<event>
 6    1  0.1001928E-005  0.1078492E+04  0.7818608E-02  0.9226412E-01
          1   -1    0    0  501    0  0.00000000000E+00  0.00000000000E+00  0.10215973718E+04  0.10215973718E+04  0.00000000000E+00 0. -1.
         -1   -1    0    0    0  501 -0.00000000000E+00 -0.00000000000E+00 -0.28463884209E+03  0.28463884209E+03  0.00000000000E+00 0.  1.
         23    2    1    2    0    0  0.41415661328E+03  0.29559730540E+02 -0.38096665124E+02  0.42696945514E+03  0.91935203997E+02 0.  0.
         11    1    3    3    0    0  0.20797783770E+03  0.47225491331E+01  0.25960610780E+02  0.20964502559E+03  0.00000000000E+00 0.  1.
        -11    1    3    3    0    0  0.20617877559E+03  0.24837181406E+02 -0.64057275904E+02  0.21732442955E+03  0.00000000000E+00 0. -1.
         22    1    1    2    0    0 -0.41415661328E+03 -0.29559730540E+02  0.77505519484E+03  0.87926675875E+03  0.00000000000E+00 0. -1.
<mgrwt>
<rscale>  0 0.10784921E+04</rscale>
<asrwt>0</asrwt>
<pdfrwt beam="1">  1        1 0.15716882E+00 0.10784921E+04</pdfrwt>
<pdfrwt beam="2">  1       -1 0.43790592E-01 0.10784921E+04</pdfrwt>
<totfact> 0.74794136E+01</totfact>
</mgrwt>
</event>
<event>
 6    1  0.1001928E-005  0.1728175E+04  0.7818608E-02  0.8745456E-01
         -1   -1    0    0    0  501 -0.00000000000E+00  0.00000000000E+00  0.88033154289E+03  0.88033154289E+03  0.00000000000E+00 0.  1.
          1   -1    0    0  501    0  0.00000000000E+00 -0.00000000000E+00 -0.84814366858E+03  0.84814366858E+03  0.00000000000E+00 0. -1.
         23    2    1    2    0    0  0.34552551337E+03 -0.76178514564E+03  0.22260777815E+03  0.87059163645E+03  0.93118666518E+02 0.  0.
         11    1    3    3    0    0  0.43594704360E+02 -0.13840899461E+03  0.74773916198E+01  0.14530471232E+03  0.00000000000E+00 0.  1.
        -11    1    3    3    0    0  0.30193080901E+03 -0.62337615104E+03  0.21513038653E+03  0.72528692413E+03  0.00000000000E+00 0. -1.
         22    1    1    2    0    0 -0.34552551337E+03  0.76178514564E+03 -0.19041990384E+03  0.85788357502E+03  0.00000000000E+00 0. -1.
<mgrwt>
<rscale>  0 0.17281755E+04</rscale>
<asrwt>0</asrwt>
<pdfrwt beam="1">  1        1 0.13048364E+00 0.17281755E+04</pdfrwt>
<pdfrwt beam="2">  1       -1 0.13543562E+00 0.17281755E+04</pdfrwt>
<totfact> 0.87191278E+00</totfact>
</mgrwt>
</event>
<event>
 6    1  0.1001928E-005  0.3309026E+04  0.7818608E-02  0.8160602E-01
         -2   -1    0    0    0  501 -0.00000000000E+00  0.00000000000E+00  0.13422245963E+04  0.13422245963E+04  0.00000000000E+00 0. -1.
          2   -1    0    0  501    0  0.00000000000E+00 -0.00000000000E+00 -0.20394603960E+04  0.20394603960E+04  0.00000000000E+00 0.  1.
         23    2    1    2    0    0 -0.15087189934E+04 -0.19024553539E+03 -0.10116862907E+04  0.18288471140E+04  0.93521391991E+02 0.  0.
         13    1    3    3    0    0 -0.12063794994E+04 -0.14914312662E+03 -0.76269442252E+03  0.14350254182E+04  0.00000000000E+00 0. -1.
        -13    1    3    3    0    0 -0.30233949403E+03 -0.41102408767E+02 -0.24899186817E+03  0.39382169579E+03  0.00000000000E+00 0.  1.
         22    1    1    2    0    0  0.15087189934E+04  0.19024553539E+03  0.31445049106E+03  0.15528378783E+04  0.00000000000E+00 0. -1.
<mgrwt>
<rscale>  0 0.33090264E+04</rscale>
<asrwt>0</asrwt>
<pdfrwt beam="1">  1        2 0.31376314E+00 0.33090264E+04</pdfrwt>
<pdfrwt beam="2">  1       -2 0.20649609E+00 0.33090264E+04</pdfrwt>
<totfact> 0.63950424E-01</totfact>
</mgrwt>
</event>
<event>
 6    1  0.1001928E-005  0.5560874E+04  0.7818608E-02  0.7747368E-01
          2   -1    0    0  501    0  0.00000000000E+00  0.00000000000E+00  0.18447639881E+04  0.18447639881E+04  0.00000000000E+00 0.  1.
         -2   -1    0    0    0  501 -0.00000000000E+00 -0.00000000000E+00 -0.41906879015E+04  0.41906879015E+04  0.00000000000E+00 0. -1.
         23    2    1    2    0    0 -0.21006300087E+04  0.14181987246E+04 -0.24116800946E+04  0.35000509486E+04  0.10110246358E+03 0.  0.
         11    1    3    3    0    0 -0.57658043243E+03  0.42292869404E+03 -0.73030660367E+03  0.10220867921E+04  0.00000000000E+00 0. -1.
        -11    1    3    3    0    0 -0.15240495763E+04  0.99527003056E+03 -0.16813734910E+04  0.24779641565E+04  0.00000000000E+00 0.  1.
         22    1    1    2    0    0  0.21006300087E+04 -0.14181987246E+04  0.65756181202E+02  0.25354009409E+04  0.00000000000E+00 0. -1.
<mgrwt>
<rscale>  0 0.55608741E+04</rscale>
<asrwt>0</asrwt>
<pdfrwt beam="1">  1        2 0.28380984E+00 0.55608741E+04</pdfrwt>
<pdfrwt beam="2">  1       -2 0.64472122E+00 0.55608741E+04</pdfrwt>
<totfact> 0.20195386E-03</totfact>
</mgrwt>
</event>
<event>
 6    1  0.1001928E-005  0.2688833E+04  0.7818608E-02  0.8338637E-01
         -1   -1    0    0    0  501 -0.00000000000E+00  0.00000000000E+00  0.60138241372E+03  0.60138241372E+03  0.00000000000E+00 0.  1.
          1   -1    0    0  501    0  0.00000000000E+00 -0.00000000000E+00 -0.30055005589E+04  0.30055005589E+04  0.00000000000E+00 0. -1.
         23    2    1    2    0    0  0.53272905374E+03  0.62148866249E+03 -0.26314611749E+04  0.27573341185E+04  0.90857710934E+02 0.  0.
         13    1    3    3    0    0  0.39640070275E+03  0.43572977316E+03 -0.17619392622E+04  0.18578008278E+04  0.00000000000E+00 0.  1.
        -13    1    3    3    0    0  0.13632835100E+03  0.18575888933E+03 -0.86952191279E+03  0.89953329070E+03  0.00000000000E+00 0. -1.
         22    1    1    2    0    0 -0.53272905374E+03 -0.62148866249E+03  0.22734302977E+03  0.84954885409E+03  0.00000000000E+00 0.  1.
<mgrwt>
<rscale>  0 0.26888326E+04</rscale>
<asrwt>0</asrwt>
<pdfrwt beam="1">  1        1 0.46238468E+00 0.26888326E+04</pdfrwt>
<pdfrwt beam="2">  1       -1 0.92520375E-01 0.26888326E+04</pdfrwt>
<totfact> 0.58779324E-01</totfact>
</mgrwt>
</event>
<event>
 6    1  0.1001928E-005  0.6417927E+03  0.7818608E-02  0.9822303E-01
          2   -1    0    0  501    0  0.00000000000E+00  0.00000000000E+00  0.23185849036E+04  0.23185849036E+04  0.00000000000E+00 0. -1.
         -2   -1    0    0    0  501 -0.00000000000E+00 -0.00000000000E+00 -0.44412629688E+02  0.44412629688E+02  0.00000000000E+00 0.  1.
         23    2    1    2    0    0  0.15306114528E+03 -0.26731358108E+03  0.13858730885E+04  0.14228062190E+04  0.94069412262E+02 0.  0.
         11    1    3    3    0    0  0.18732326070E+02 -0.23333020835E+02  0.31098111086E+03  0.31241731901E+03  0.00000000000E+00 0. -1.
        -11    1    3    3    0    0  0.13432881921E+03 -0.24398056025E+03  0.10748919777E+04  0.11103888999E+04  0.00000000000E+00 0.  1.
         22    1    1    2    0    0 -0.15306114528E+03  0.26731358108E+03  0.88829918539E+03  0.94019131436E+03  0.00000000000E+00 0. -1.
<mgrwt>
<rscale>  0 0.64179265E+03</rscale>
<asrwt>0</asrwt>
<pdfrwt beam="1">  1        2 0.35670528E+00 0.64179265E+03</pdfrwt>
<pdfrwt beam="2">  1       -2 0.68327141E-02 0.64179265E+03</pdfrwt>
<totfact> 0.58273640E+02</totfact>
</mgrwt>
</event>
<event>
 6    1  0.1001928E-005  0.3696111E+04  0.7818608E-02  0.8068824E-01
         -2   -1    0    0    0  501 -0.00000000000E+00  0.00000000000E+00  0.20928014630E+04  0.20928014630E+04  0.00000000000E+00 0. -1.
          2   -1    0    0  501    0  0.00000000000E+00 -0.00000000000E+00 -0.16319319114E+04  0.16319319114E+04  0.00000000000E+00 0.  1.
         23    2    1    2    0    0 -0.10773384927E+04 -0.10548723966E+04 -0.84424356273E+03  0.17305582963E+04  0.93117251887E+02 0.  0.
         11    1    3    3    0    0 -0.38809379977E+03 -0.34370946044E+03 -0.33145130795E+03  0.61531533392E+03  0.00000000000E+00 0.  1.
        -11    1    3    3    0    0 -0.68924469295E+03 -0.71116293612E+03 -0.51279225478E+03  0.11152429623E+04  0.00000000000E+00 0. -1.
         22    1    1    2    0    0  0.10773384927E+04  0.10548723966E+04  0.13051131144E+04  0.19941750781E+04  0.00000000000E+00 0. -1.
<mgrwt>
<rscale>  0 0.36961112E+04</rscale>
<asrwt>0</asrwt>
<pdfrwt beam="1">  1        2 0.25106645E+00 0.36961112E+04</pdfrwt>
<pdfrwt beam="2">  1       -2 0.32196946E+00 0.36961112E+04</pdfrwt>
<totfact> 0.20146302E-01</totfact>
</mgrwt>
</event>
<event>
 6    1  0.1001928E-005  0.2688592E+04  0.7818608E-02  0.8338716E-01
          2   -1    0    0  501    0  0.00000000000E+00  0.00000000000E+00  0.41598711556E+04  0.41598711556E+04  0.00000000000E+00 0. -1.
         -2   -1    0    0    0  501 -0.00000000000E+00 -0.00000000000E+00 -0.43441997375E+03  0.43441997375E+03  0.00000000000E+00 0.  1.
         23    2    1    2    0    0 -0.14248575433E+03 -0.10492762427E+04  0.45413131431E+03  0.11558588558E+04  0.92149987914E+02 0.  0.
         13    1    3    3    0    0 -0.11030760497E+03 -0.52522530481E+03  0.20224865874E+03  0.57352760046E+03  0.00000000000E+00 0.  1.
        -13    1    3    3    0    0 -0.32178149358E+02 -0.52405093790E+03  0.25188265556E+03  0.58233125538E+03  0.00000000000E+00 0. -1.
         22    1    1    2    0    0  0.14248575433E+03  0.10492762427E+04  0.32713198675E+04  0.34384322735E+04  0.00000000000E+00 0. -1.
<mgrwt>
<rscale>  0 0.26885915E+04</rscale>
<asrwt>0</asrwt>
<pdfrwt beam="1">  1        2 0.63998015E+00 0.26885915E+04</pdfrwt>
<pdfrwt beam="2">  1       -2 0.66833845E-01 0.26885915E+04</pdfrwt>
<totfact> 0.45550663E-01</totfact>
</mgrwt>
</event>
<event>
 6    1  0.1188558E-005  0.3057285E+04  0.7818608E-02  0.8227559E-01
          2   -1    0    0  501    0  0.00000000000E+00  0.00000000000E+00  0.17865130541E+04  0.17865130541E+04  0.00000000000E+00 0. -1.
         -2   -1    0    0    0  501 -0.00000000000E+00 -0.00000000000E+00 -0.13079937800E+04  0.13079937800E+04  0.00000000000E+00 0.  1.
         23    2    1    2    0    0  0.64918737851E+03  0.12868763345E+04 -0.27352030196E+03  0.14687582445E+04  0.70302720445E+02 0.  0.
         13    1    3    3    0    0  0.13318559384E+03  0.22782543443E+03 -0.72341339484E+02  0.27363497653E+03  0.00000000000E+00 0. -1.
        -13    1    3    3    0    0  0.51600178467E+03  0.10590509001E+04 -0.20117896247E+03  0.11951232680E+04  0.00000000000E+00 0.  1.
         22    1    1    2    0    0 -0.64918737851E+03 -0.12868763345E+04  0.75203957604E+03  0.16257485896E+04  0.00000000000E+00 0. -1.
<mgrwt>
<rscale>  0 0.30572850E+04</rscale>
<asrwt>0</asrwt>
<pdfrwt beam="1">  1        2 0.27484816E+00 0.30572850E+04</pdfrwt>
<pdfrwt beam="2">  1       -2 0.20122981E+00 0.30572850E+04</pdfrwt>
<totfact> 0.97657687E-01</totfact>
</mgrwt>
</event>
<event>
 6    1  0.1001928E-005  0.7512900E+03  0.7818608E-02  0.9633329E-01
         -1   -1    0    0    0  501 -0.00000000000E+00  0.00000000000E+00  0.66177632463E+02  0.66177632463E+02  0.00000000000E+00 0.  1.
          1   -1    0    0  501    0  0.00000000000E+00 -0.00000000000E+00 -0.21322791211E+04  0.21322791211E+04  0.00000000000E+00 0. -1.
         23    2    1    2    0    0 -0.18282890328E+03  0.25617769434E+03 -0.47835725966E+03  0.57981993339E+03  0.91170545368E+02 0.  0.
         13    1    3    3    0    0 -0.97259173896E+02  0.20695267044E+03 -0.34497626784E+03  0.41388087668E+03  0.00000000000E+00 0. -1.
        -13    1    3    3    0    0 -0.85569729385E+02  0.49225023900E+02 -0.13338099181E+03  0.16593905671E+03  0.00000000000E+00 0.  1.
         22    1    1    2    0    0  0.18282890328E+03 -0.25617769434E+03 -0.15877442290E+04  0.16186368202E+04  0.00000000000E+00 0. -1.
<mgrwt>
<rscale>  0 0.75129005E+03</rscale>
<asrwt>0</asrwt>
<pdfrwt beam="1">  1        1 0.32804297E+00 0.75129005E+03</pdfrwt>
<pdfrwt beam="2">  1       -1 0.10181173E-01 0.75129005E+03</pdfrwt>
<totfact> 0.15342150E+02</totfact>
</mgrwt>
</event>
<event>
 6    1  0.1001928E-005  0.2183105E+04  0.7818608E-02  0.8525493E-01
         -2   -1    0    0    0  501 -0.00000000000E+00  0.00000000000E+00  0.29126102247E+03  0.29126102247E+03  0.00000000000E+00 0.  1.
          2   -1    0    0  501    0  0.00000000000E+00 -0.00000000000E+00 -0.40907867755E+04  0.40907867755E+04  0.00000000000E+00 0. -1.
         23    2    1    2    0    0 -0.33962395529E+03 -0.10247213045E+04 -0.16051981824E+04  0.19365475076E+04  0.90315345371E+02 0.  0.
         11    1    3    3    0    0 -0.29763879315E+03 -0.93270244263E+03 -0.14081070543E+04  0.17150184180E+04  0.00000000000E+00 0. -1.
        -11    1    3    3    0    0 -0.41985162140E+02 -0.92018861865E+02 -0.19709112807E+03  0.22152908961E+03  0.00000000000E+00 0.  1.
         22    1    1    2    0    0  0.33962395529E+03  0.10247213045E+04 -0.21943275706E+04  0.24455002903E+04  0.00000000000E+00 0.  1.
<mgrwt>
<rscale>  0 0.21831049E+04</rscale>
<asrwt>0</asrwt>
<pdfrwt beam="1">  1        2 0.62935178E+00 0.21831049E+04</pdfrwt>
<pdfrwt beam="2">  1       -2 0.44809390E-01 0.21831049E+04</pdfrwt>
<totfact> 0.12556343E+00</totfact>
</mgrwt>
</event>
<event>
 6    1  0.1001928E-005  0.1425083E+04  0.7818608E-02  0.8935860E-01
          1   -1    0    0  501    0  0.00000000000E+00  0.00000000000E+00  0.53583148104E+03  0.53583148104E+03  0.00000000000E+00 0. -1.
         -1   -1    0    0    0  501 -0.00000000000E+00 -0.00000000000E+00 -0.94752821746E+03  0.94752821746E+03  0.00000000000E+00 0.  1.
         23    2    1    2    0    0 -0.35786370913E+03 -0.59932301960E+03 -0.73500085979E+02  0.70771062160E+03  0.90540295723E+02 0.  0.
         11    1    3    3    0    0 -0.26880095764E+03 -0.51417957405E+03 -0.50783088090E+02  0.58242039047E+03  0.00000000000E+00 0. -1.
        -11    1    3    3    0    0 -0.89062751491E+02 -0.85143445546E+02 -0.22716997889E+02  0.12529023113E+03  0.00000000000E+00 0.  1.
         22    1    1    2    0    0  0.35786370913E+03  0.59932301960E+03 -0.33819665044E+03  0.77564907691E+03  0.00000000000E+00 0. -1.
<mgrwt>
<rscale>  0 0.14250831E+04</rscale>
<asrwt>0</asrwt>
<pdfrwt beam="1">  1        1 0.82435613E-01 0.14250831E+04</pdfrwt>
<pdfrwt beam="2">  1       -1 0.14577357E+00 0.14250831E+04</pdfrwt>
<totfact> 0.14755238E+01</totfact>
</mgrwt>
</event>
<event>
 6    1  0.1001928E-005  0.2000389E+04  0.7818608E-02  0.8606439E-01
         -1   -1    0    0    0  501 -0.00000000000E+00  0.00000000000E+00  0.10873959481E+04  0.10873959481E+04  0.00000000000E+00 0.  1.
          1   -1    0    0  501    0  0.00000000000E+00 -0.00000000000E+00 -0.91998635099E+03  0.91998635099E+03  0.00000000000E+00 0. -1.
         23    2    1    2    0    0 -0.89028948772E+03 -0.40517692346E+03 -0.11554937875E+03  0.98912423101E+03  0.90726920996E+02 0.  0.
         13    1    3    3    0    0 -0.13288199834E+03 -0.87346699713E+02  0.40598326518E+01  0.15907090770E+03  0.00000000000E+00 0. -1.
        -13    1    3    3    0    0 -0.75740748937E+03 -0.31783022375E+03 -0.11960921141E+03  0.83005332331E+03  0.00000000000E+00 0.  1.
         22    1    1    2    0    0  0.89028948772E+03  0.40517692346E+03  0.28295897590E+03  0.10182580681E+04  0.00000000000E+00 0.  1.
<mgrwt>
<rscale>  0 0.20003894E+04</rscale>
<asrwt>0</asrwt>
<pdfrwt beam="1">  1        1 0.14153636E+00 0.20003894E+04</pdfrwt>
<pdfrwt beam="2">  1       -1 0.16729168E+00 0.20003894E+04</pdfrwt>
<totfact> 0.41888374E+00</totfact>
</mgrwt>
</event>
<event>
 6    1  0.1001928E-005  0.7510150E+03  0.7818608E-02  0.9633759E-01
          2   -1    0    0  501    0  0.00000000000E+00  0.00000000000E+00  0.11523973174E+04  0.11523973174E+04  0.00000000000E+00 0. -1.
         -2   -1    0    0    0  501 -0.00000000000E+00 -0.00000000000E+00 -0.12235874685E+03  0.12235874685E+03  0.00000000000E+00 0.  1.
         23    2    1    2    0    0  0.31690147080E+03 -0.18684978541E+03  0.45908479290E+03  0.59554505084E+03  0.92604945961E+02 0.  0.
         11    1    3    3    0    0  0.15522591280E+03 -0.14083246645E+03  0.28230063727E+03  0.35159993944E+03  0.00000000000E+00 0. -1.
        -11    1    3    3    0    0  0.16167555800E+03 -0.46017318963E+02  0.17678415562E+03  0.24394511140E+03  0.00000000000E+00 0.  1.
         22    1    1    2    0    0 -0.31690147080E+03  0.18684978541E+03  0.57095377765E+03  0.67921101339E+03  0.00000000000E+00 0.  1.
<mgrwt>
<rscale>  0 0.75101502E+03</rscale>
<asrwt>0</asrwt>
<pdfrwt beam="1">  1        2 0.17729189E+00 0.75101502E+03</pdfrwt>
<pdfrwt beam="2">  1       -2 0.18824423E-01 0.75101502E+03</pdfrwt>
<totfact> 0.48353512E+02</totfact>
</mgrwt>
</event>
<event>
 6    1  0.1001928E-005  0.8347492E+03  0.7818608E-02  0.9511038E-01
          1   -1    0    0  501    0  0.00000000000E+00  0.00000000000E+00  0.43336040200E+03  0.43336040200E+03  0.00000000000E+00 0. -1.
         -1   -1    0    0    0  501 -0.00000000000E+00 -0.00000000000E+00 -0.40197851010E+03  0.40197851010E+03  0.00000000000E+00 0.  1.
         23    2    1    2    0    0 -0.54013526663E+02 -0.37529590503E+03  0.17731150749E+03  0.42906322971E+03  0.94294257543E+02 0.  0.
         13    1    3    3    0    0 -0.64556742613E+02 -0.29117782124E+03  0.10067387567E+03  0.31478139373E+03  0.00000000000E+00 0. -1.
        -13    1    3    3    0    0  0.10543215950E+02 -0.84118083790E+02  0.76637631817E+02  0.11428183597E+03  0.00000000000E+00 0.  1.
         22    1    1    2    0    0  0.54013526663E+02  0.37529590503E+03 -0.14592961558E+03  0.40627568239E+03  0.00000000000E+00 0. -1.
<mgrwt>
<rscale>  0 0.83474923E+03</rscale>
<asrwt>0</asrwt>
<pdfrwt beam="1">  1        1 0.66670831E-01 0.83474923E+03</pdfrwt>
<pdfrwt beam="2">  1       -1 0.61842848E-01 0.83474923E+03</pdfrwt>
<totfact> 0.14446167E+02</totfact>
</mgrwt>
</event>
<event>
 6    1  0.1001928E-005  0.1937009E+04  0.7818608E-02  0.8636651E-01
          2   -1    0    0  501    0  0.00000000000E+00  0.00000000000E+00  0.14188138248E+04  0.14188138248E+04  0.00000000000E+00 0. -1.
         -2   -1    0    0    0  501 -0.00000000000E+00 -0.00000000000E+00 -0.66111643648E+03  0.66111643648E+03  0.00000000000E+00 0.  1.
         23    2    1    2    0    0 -0.39291948176E+02 -0.82404207468E+03  0.91975264510E+03  0.12391858862E+04  0.95118528161E+02 0.  0.
         11    1    3    3    0    0 -0.37900570085E+02 -0.60793964376E+03  0.61506465893E+03  0.86563941589E+03  0.00000000000E+00 0. -1.
        -11    1    3    3    0    0 -0.13913780909E+01 -0.21610243092E+03  0.30468798617E+03  0.37354647033E+03  0.00000000000E+00 0.  1.
         22    1    1    2    0    0  0.39291948176E+02  0.82404207468E+03 -0.16205525674E+03  0.84074437511E+03  0.00000000000E+00 0. -1.
<mgrwt>
<rscale>  0 0.19370092E+04</rscale>
<asrwt>0</asrwt>
<pdfrwt beam="1">  1        2 0.21827905E+00 0.19370092E+04</pdfrwt>
<pdfrwt beam="2">  1       -2 0.10171022E+00 0.19370092E+04</pdfrwt>
<totfact> 0.10458639E+01</totfact>
</mgrwt>
</event>
<event>
 6    1  0.1001928E-005  0.2230749E+04  0.7818608E-02  0.8505738E-01
         -1   -1    0    0    0  501 -0.00000000000E+00  0.00000000000E+00  0.54288167394E+03  0.54288167394E+03  0.00000000000E+00 0.  1.
          1   -1    0    0  501    0  0.00000000000E+00 -0.00000000000E+00 -0.22915864667E+04  0.22915864667E+04  0.00000000000E+00 0. -1.
         23    2    1    2    0    0 -0.10450924264E+04 -0.37069790602E+03 -0.74668432854E+03  0.13399179983E+04  0.90596017051E+02 0.  0.
         13    1    3    3    0    0 -0.62920596989E+03 -0.22682252110E+03 -0.50308372798E+03  0.83692403835E+03  0.00000000000E+00 0. -1.
        -13    1    3    3    0    0 -0.41588645655E+03 -0.14387538492E+03 -0.24360060056E+03  0.50299395993E+03  0.00000000000E+00 0.  1.
         22    1    1    2    0    0  0.10450924264E+04  0.37069790602E+03 -0.10020204643E+04  0.14945501424E+04  0.00000000000E+00 0. -1.
<mgrwt>
<rscale>  0 0.22307490E+04</rscale>
<asrwt>0</asrwt>
<pdfrwt beam="1">  1        1 0.35255177E+00 0.22307490E+04</pdfrwt>
<pdfrwt beam="2">  1       -1 0.83520257E-01 0.22307490E+04</pdfrwt>
<totfact> 0.24385883E+00</totfact>
</mgrwt>
</event>
<event>
 6    1  0.1001928E-005  0.4063507E+04  0.7818608E-02  0.7991856E-01
          2   -1    0    0  501    0  0.00000000000E+00  0.00000000000E+00  0.22602854344E+04  0.22602854344E+04  0.00000000000E+00 0. -1.
         -2   -1    0    0    0  501 -0.00000000000E+00 -0.00000000000E+00 -0.18263277399E+04  0.18263277399E+04  0.00000000000E+00 0.  1.
         23    2    1    2    0    0 -0.17877155282E+04  0.81415650523E+03 -0.30072811009E+03  0.19893433166E+04  0.90949494275E+02 0.  0.
         13    1    3    3    0    0 -0.80800673153E+03  0.41225419299E+03 -0.11772686279E+03  0.91470651689E+03  0.00000000000E+00 0.  1.
        -13    1    3    3    0    0 -0.97970879664E+03  0.40190231224E+03 -0.18300124730E+03  0.10746367997E+04  0.00000000000E+00 0. -1.
         22    1    1    2    0    0  0.17877155282E+04 -0.81415650523E+03  0.73468580453E+03  0.20972698577E+04  0.00000000000E+00 0.  1.
<mgrwt>
<rscale>  0 0.40635069E+04</rscale>
<asrwt>0</asrwt>
<pdfrwt beam="1">  1        2 0.34773622E+00 0.40635069E+04</pdfrwt>
<pdfrwt beam="2">  1       -2 0.28097350E+00 0.40635069E+04</pdfrwt>
<totfact> 0.15568215E-01</totfact>
</mgrwt>
</event>
<event>
 6    1  0.1001928E-005  0.9630499E+03  0.7818608E-02  0.9350026E-01
          1   -1    0    0  501    0  0.00000000000E+00  0.00000000000E+00  0.41492851853E+03  0.41492851853E+03  0.00000000000E+00 0. -1.
         -1   -1    0    0    0  501 -0.00000000000E+00 -0.00000000000E+00 -0.55881012457E+03  0.55881012457E+03  0.00000000000E+00 0.  1.
         23    2    1    2    0    0 -0.35140364690E+03  0.64291198775E+02  0.24718087675E+03  0.44407106175E+03  0.92102338486E+02 0.  0.
         11    1    3    3    0    0 -0.30318361419E+03  0.26791104968E+02  0.22715759022E+03  0.37978762225E+03  0.00000000000E+00 0. -1.
        -11    1    3    3    0    0 -0.48220032709E+02  0.37500093807E+02  0.20023286529E+02  0.64283439496E+02  0.00000000000E+00 0.  1.
         22    1    1    2    0    0  0.35140364690E+03 -0.64291198775E+02 -0.39106248279E+03  0.52966758135E+03  0.00000000000E+00 0.  1.
<mgrwt>
<rscale>  0 0.96304986E+03</rscale>
<asrwt>0</asrwt>
<pdfrwt beam="1">  1        1 0.63835157E-01 0.96304986E+03</pdfrwt>
<pdfrwt beam="2">  1       -1 0.85970788E-01 0.96304986E+03</pdfrwt>
<totfact> 0.76708718E+01</totfact>
</mgrwt>
</event>
<event>
 6    1  0.1001928E-005  0.1129030E+04  0.7818608E-02  0.9177350E-01
         -2   -1    0    0    0  501 -0.00000000000E+00  0.00000000000E+00  0.15067327836E+03  0.15067327836E+03  0.00000000000E+00 0.  1.
          2   -1    0    0  501    0  0.00000000000E+00 -0.00000000000E+00 -0.21150212427E+04  0.21150212427E+04  0.00000000000E+00 0. -1.
         23    2    1    2    0    0  0.42615752130E+03  0.17308950597E+03 -0.16328216007E+04  0.16987025107E+04  0.88958585783E+02 0.  0.
         11    1    3    3    0    0  0.27193549051E+03  0.14572981270E+03 -0.11749673713E+04  0.12147980955E+04  0.00000000000E+00 0. -1.
        -11    1    3    3    0    0  0.15422203079E+03  0.27359693268E+02 -0.45785422944E+03  0.48390441516E+03  0.00000000000E+00 0.  1.
         22    1    1    2    0    0 -0.42615752130E+03 -0.17308950597E+03 -0.33152636358E+03  0.56699201034E+03  0.00000000000E+00 0.  1.
<mgrwt>
<rscale>  0 0.11290300E+04</rscale>
<asrwt>0</asrwt>
<pdfrwt beam="1">  1        2 0.32538786E+00 0.11290300E+04</pdfrwt>
<pdfrwt beam="2">  1       -2 0.23180506E-01 0.11290300E+04</pdfrwt>
<totfact> 0.94210115E+01</totfact>
</mgrwt>
</event>
<event>
 6    1  0.1001928E-005  0.4248079E+04  0.7818608E-02  0.7956289E-01
          2   -1    0    0  501    0  0.00000000000E+00  0.00000000000E+00  0.32943401072E+04  0.32943401072E+04  0.00000000000E+00 0.  1.
         -2   -1    0    0    0  501 -0.00000000000E+00 -0.00000000000E+00 -0.13694835301E+04  0.13694835301E+04  0.00000000000E+00 0. -1.
         23    2    1    2    0    0 -0.15727927155E+02  0.19230981925E+04 -0.24328142971E+02  0.19255988294E+04  0.93728156252E+02 0.  0.
         13    1    3    3    0    0 -0.13893524406E+02  0.79461020782E+03 -0.55620008309E+02  0.79667559126E+03  0.00000000000E+00 0.  1.
        -13    1    3    3    0    0 -0.18344027489E+01  0.11284879847E+04  0.31291865338E+02  0.11289232381E+04  0.00000000000E+00 0. -1.
         22    1    1    2    0    0  0.15727927155E+02 -0.19230981925E+04  0.19491847201E+04  0.27382248080E+04  0.00000000000E+00 0.  1.
<mgrwt>
<rscale>  0 0.42480793E+04</rscale>
<asrwt>0</asrwt>
<pdfrwt beam="1">  1        2 0.50682155E+00 0.42480793E+04</pdfrwt>
<pdfrwt beam="2">  1       -2 0.21068978E+00 0.42480793E+04</pdfrwt>
<totfact> 0.98354609E-02</totfact>
</mgrwt>
</event>
<event>
 6    1  0.1001928E-005  0.2767283E+04  0.7818608E-02  0.8313498E-01
          2   -1    0    0  501    0  0.00000000000E+00  0.00000000000E+00  0.18746545347E+04  0.18746545347E+04  0.00000000000E+00 0. -1.
         -2   -1    0    0    0  501 -0.00000000000E+00 -0.00000000000E+00 -0.10212358407E+04  0.10212358407E+04  0.00000000000E+00 0.  1.
         23    2    1    2    0    0 -0.11237250414E+03  0.12173928410E+04  0.11018617852E+04  0.16483340125E+04  0.90734305067E+02 0.  0.
         13    1    3    3    0    0 -0.37445936561E+02  0.40477422593E+03  0.42487273689E+03  0.58801463816E+03  0.00000000000E+00 0.  1.
        -13    1    3    3    0    0 -0.74926567582E+02  0.81261861505E+03  0.67698904829E+03  0.10603193743E+04  0.00000000000E+00 0. -1.
         22    1    1    2    0    0  0.11237250414E+03 -0.12173928410E+04 -0.24844309116E+03  0.12475563629E+04  0.00000000000E+00 0. -1.
<mgrwt>
<rscale>  0 0.27672834E+04</rscale>
<asrwt>0</asrwt>
<pdfrwt beam="1">  1        2 0.28840839E+00 0.27672834E+04</pdfrwt>
<pdfrwt beam="2">  1       -2 0.15711321E+00 0.27672834E+04</pdfrwt>
<totfact> 0.18114251E+00</totfact>
</mgrwt>
</event>
<event>
 6    1  0.1001928E-005  0.3847769E+04  0.7818608E-02  0.8035981E-01
         -1   -1    0    0    0  501 -0.00000000000E+00  0.00000000000E+00  0.18227490615E+04  0.18227490615E+04  0.00000000000E+00 0.  1.
          1   -1    0    0  501    0  0.00000000000E+00 -0.00000000000E+00 -0.20306312188E+04  0.20306312188E+04  0.00000000000E+00 0. -1.
         23    2    1    2    0    0  0.13728712017E+04 -0.10546870548E+04  0.73415675672E+03  0.18824471421E+04  0.86492656174E+02 0.  0.
         11    1    3    3    0    0  0.89022582276E+03 -0.67712617609E+03  0.42949826490E+03  0.11981112776E+04  0.00000000000E+00 0. -1.
        -11    1    3    3    0    0  0.48264537891E+03 -0.37756087866E+03  0.30465849182E+03  0.68433586456E+03  0.00000000000E+00 0.  1.
         22    1    1    2    0    0 -0.13728712017E+04  0.10546870548E+04 -0.94203891393E+03  0.19709331382E+04  0.00000000000E+00 0. -1.
<mgrwt>
<rscale>  0 0.38477688E+04</rscale>
<asrwt>0</asrwt>
<pdfrwt beam="1">  1        1 0.31240480E+00 0.38477688E+04</pdfrwt>
<pdfrwt beam="2">  1       -1 0.28042293E+00 0.38477688E+04</pdfrwt>
<totfact> 0.99569844E-02</totfact>
</mgrwt>
</event>
<event>
 6    1  0.1001928E-005  0.3249567E+03  0.7818608E-02  0.1073390E+00
         -2   -1    0    0    0  501 -0.00000000000E+00  0.00000000000E+00  0.28729548212E+02  0.28729548212E+02  0.00000000000E+00 0. -1.
          2   -1    0    0  501    0  0.00000000000E+00 -0.00000000000E+00 -0.91888729827E+03  0.91888729827E+03  0.00000000000E+00 0.  1.
         23    2    1    2    0    0  0.49503041437E+02  0.43399865980E+02 -0.87229366200E+03  0.87940229437E+03  0.90100294595E+02 0.  0.
         13    1    3    3    0    0 -0.20906650679E+02  0.31849409638E+02 -0.22686134475E+03  0.23003813310E+03  0.00000000000E+00 0.  1.
        -13    1    3    3    0    0  0.70409692116E+02  0.11550456342E+02 -0.64543231725E+03  0.64936416127E+03  0.00000000000E+00 0. -1.
         22    1    1    2    0    0 -0.49503041437E+02 -0.43399865980E+02 -0.17864088058E+02  0.68214552118E+02  0.00000000000E+00 0. -1.
<mgrwt>
<rscale>  0 0.32495672E+03</rscale>
<asrwt>0</asrwt>
<pdfrwt beam="1">  1        2 0.14136726E+00 0.32495672E+03</pdfrwt>
<pdfrwt beam="2">  1       -2 0.44199309E-02 0.32495672E+03</pdfrwt>
<totfact> 0.69985272E+03</totfact>
</mgrwt>
</event>
<event>
 6    1  0.1001928E-005  0.1330129E+04  0.7818608E-02  0.9006008E-01
          1   -1    0    0  501    0  0.00000000000E+00  0.00000000000E+00  0.26959951265E+04  0.26959951265E+04  0.00000000000E+00 0. -1.
         -1   -1    0    0    0  501 -0.00000000000E+00 -0.00000000000E+00 -0.16406223395E+03  0.16406223395E+03  0.00000000000E+00 0.  1.
         23    2    1    2    0    0  0.89737524989E+02  0.41054218806E+03  0.17200037953E+03  0.46300100368E+03  0.90488050472E+02 0.  0.
         11    1    3    3    0    0  0.31708138568E+02  0.11832084415E+03  0.76166855618E+01  0.12273240041E+03  0.00000000000E+00 0.  1.
        -11    1    3    3    0    0  0.58029386422E+02  0.29222134391E+03  0.16438369397E+03  0.34026860327E+03  0.00000000000E+00 0. -1.
         22    1    1    2    0    0 -0.89737524989E+02 -0.41054218806E+03  0.23599325130E+04  0.23970563568E+04  0.00000000000E+00 0. -1.
<mgrwt>
<rscale>  0 0.13301293E+04</rscale>
<asrwt>0</asrwt>
<pdfrwt beam="1">  1        1 0.41476845E+00 0.13301293E+04</pdfrwt>
<pdfrwt beam="2">  1       -1 0.25240346E-01 0.13301293E+04</pdfrwt>
<totfact> 0.13423162E+01</totfact>
</mgrwt>
</event>
<event>
 6    1  0.1001928E-005  0.6320442E+03  0.7818608E-02  0.9841068E-01
         -2   -1    0    0    0  501 -0.00000000000E+00  0.00000000000E+00  0.44295699136E+02  0.44295699136E+02  0.00000000000E+00 0.  1.
          2   -1    0    0  501    0  0.00000000000E+00 -0.00000000000E+00 -0.22546199662E+04  0.22546199662E+04  0.00000000000E+00 0. -1.
         23    2    1    2    0    0  0.18801892152E+02  0.29272641358E+03 -0.14724556864E+04  0.15048802085E+04  0.10245208263E+03 0.  0.
         13    1    3    3    0    0  0.27821628517E+02  0.32333186303E+02 -0.11522809405E+03  0.12286981569E+03  0.00000000000E+00 0.  1.
        -13    1    3    3    0    0 -0.90197363649E+01  0.26039322727E+03 -0.13572275923E+04  0.13820103928E+04  0.00000000000E+00 0. -1.
         22    1    1    2    0    0 -0.18801892152E+02 -0.29272641358E+03 -0.73786858073E+03  0.79403545688E+03  0.00000000000E+00 0.  1.
<mgrwt>
<rscale>  0 0.63204420E+03</rscale>
<asrwt>0</asrwt>
<pdfrwt beam="1">  1        2 0.34686464E+00 0.63204420E+03</pdfrwt>
<pdfrwt beam="2">  1       -2 0.68147223E-02 0.63204420E+03</pdfrwt>
<totfact> 0.63523246E+02</totfact>
</mgrwt>
</event>
<event>
 6    1  0.1001928E-005  0.2029792E+04  0.7818608E-02  0.8592817E-01
         -2   -1    0    0    0  501 -0.00000000000E+00  0.00000000000E+00  0.70554571496E+03  0.70554571496E+03  0.00000000000E+00 0.  1.
          2   -1    0    0  501    0  0.00000000000E+00 -0.00000000000E+00 -0.14598826100E+04  0.14598826100E+04  0.00000000000E+00 0. -1.
         23    2    1    2    0    0  0.16470477266E+03  0.24543291754E+03 -0.14114741097E+04  0.14448769403E+04  0.89695212129E+02 0.  0.
         13    1    3    3    0    0  0.77358336035E+02  0.87938810608E+02 -0.75986464873E+03  0.76883797445E+03  0.00000000000E+00 0.  1.
        -13    1    3    3    0    0  0.87346436625E+02  0.15749410693E+03 -0.65160946097E+03  0.67603896584E+03  0.00000000000E+00 0. -1.
         22    1    1    2    0    0 -0.16470477266E+03 -0.24543291754E+03  0.65713721463E+03  0.72055138471E+03  0.00000000000E+00 0.  1.
<mgrwt>
<rscale>  0 0.20297920E+04</rscale>
<asrwt>0</asrwt>
<pdfrwt beam="1">  1        2 0.22459733E+00 0.20297920E+04</pdfrwt>
<pdfrwt beam="2">  1       -2 0.10854549E+00 0.20297920E+04</pdfrwt>
<totfact> 0.84131561E+00</totfact>
</mgrwt>
</event>
<event>
 6    1  0.1001928E-005  0.2694729E+04  0.7818608E-02  0.8336717E-01
          2   -1    0    0  501    0  0.00000000000E+00  0.00000000000E+00  0.68024551013E+03  0.68024551013E+03  0.00000000000E+00 0. -1.
         -2   -1    0    0    0  501 -0.00000000000E+00 -0.00000000000E+00 -0.26687286034E+04  0.26687286034E+04  0.00000000000E+00 0.  1.
         23    2    1    2    0    0  0.58344091672E+03  0.68565114242E+03  0.24793956054E+03  0.93814291270E+03  0.90096096205E+02 0.  0.
         13    1    3    3    0    0  0.26208881484E+03  0.35552122602E+03  0.15544679437E+03  0.46824095815E+03  0.00000000000E+00 0. -1.
        -13    1    3    3    0    0  0.32135210188E+03  0.33012991641E+03  0.92492766173E+02  0.46990195455E+03  0.00000000000E+00 0.  1.
         22    1    1    2    0    0 -0.58344091672E+03 -0.68565114242E+03 -0.22364226539E+04  0.24108312009E+04  0.00000000000E+00 0.  1.
<mgrwt>
<rscale>  0 0.26947287E+04</rscale>
<asrwt>0</asrwt>
<pdfrwt beam="1">  1        2 0.10465316E+00 0.26947287E+04</pdfrwt>
<pdfrwt beam="2">  1       -2 0.41057363E+00 0.26947287E+04</pdfrwt>
<totfact> 0.23579297E-01</totfact>
</mgrwt>
</event>
<event>
 6    1  0.1001928E-005  0.3954010E+04  0.7818608E-02  0.8013889E-01
          2   -1    0    0  501    0  0.00000000000E+00  0.00000000000E+00  0.19773399635E+04  0.19773399635E+04  0.00000000000E+00 0. -1.
         -2   -1    0    0    0  501 -0.00000000000E+00 -0.00000000000E+00 -0.19766698716E+04  0.19766698716E+04  0.00000000000E+00 0.  1.
         23    2    1    2    0    0  0.86336705520E+03 -0.14368649094E+04  0.10462532638E+04  0.19783510565E+04  0.96143490404E+02 0.  0.
         13    1    3    3    0    0  0.13013857458E+03 -0.18848223532E+03  0.10890416170E+03  0.25361726689E+03  0.00000000000E+00 0. -1.
        -13    1    3    3    0    0  0.73322848062E+03 -0.12483826741E+04  0.93734910207E+03  0.17247337896E+04  0.00000000000E+00 0.  1.
         22    1    1    2    0    0 -0.86336705520E+03  0.14368649094E+04 -0.10455831719E+04  0.19756587785E+04  0.00000000000E+00 0.  1.
<mgrwt>
<rscale>  0 0.39540098E+04</rscale>
<asrwt>0</asrwt>
<pdfrwt beam="1">  1        2 0.30420615E+00 0.39540098E+04</pdfrwt>
<pdfrwt beam="2">  1       -2 0.30410305E+00 0.39540098E+04</pdfrwt>
<totfact> 0.16335911E-01</totfact>
</mgrwt>
</event>
<event>
 6    1  0.1001928E-005  0.2402152E+04  0.7818608E-02  0.8438698E-01
         -1   -1    0    0    0  501 -0.00000000000E+00  0.00000000000E+00  0.16039817659E+04  0.16039817659E+04  0.00000000000E+00 0.  1.
          1   -1    0    0  501    0  0.00000000000E+00 -0.00000000000E+00 -0.89937657116E+03  0.89937657116E+03  0.00000000000E+00 0. -1.
         23    2    1    2    0    0 -0.38252677257E+03  0.45676367893E+03  0.14376123551E+04  0.15587635629E+04  0.89748378182E+02 0.  0.
         13    1    3    3    0    0 -0.16491520347E+03  0.19857636976E+03  0.50993076386E+03  0.57154088471E+03  0.00000000000E+00 0. -1.
        -13    1    3    3    0    0 -0.21761156910E+03  0.25818730917E+03  0.92768159128E+03  0.98722267823E+03  0.00000000000E+00 0.  1.
         22    1    1    2    0    0  0.38252677257E+03 -0.45676367893E+03 -0.73300716039E+03  0.94459477413E+03  0.00000000000E+00 0. -1.
<mgrwt>
<rscale>  0 0.24021521E+04</rscale>
<asrwt>0</asrwt>
<pdfrwt beam="1">  1        1 0.13836563E+00 0.24021521E+04</pdfrwt>
<pdfrwt beam="2">  1       -1 0.24676642E+00 0.24021521E+04</pdfrwt>
<totfact> 0.11947446E+00</totfact>
</mgrwt>
</event>
<event>
 6    1  0.1001928E-005  0.1435205E+04  0.7818608E-02  0.8928722E-01
         -2   -1    0    0    0  501 -0.00000000000E+00  0.00000000000E+00  0.79080718676E+03  0.79080718676E+03  0.00000000000E+00 0.  1.
          2   -1    0    0  501    0  0.00000000000E+00 -0.00000000000E+00 -0.65117418352E+03  0.65117418352E+03  0.00000000000E+00 0. -1.
         23    2    1    2    0    0 -0.52032232551E+03  0.31466436108E+03 -0.30726449460E+03  0.68735142380E+03  0.91057825653E+02 0.  0.
         11    1    3    3    0    0 -0.23545037433E+03  0.13281981511E+03 -0.87159225006E+02  0.28403294275E+03  0.00000000000E+00 0. -1.
        -11    1    3    3    0    0 -0.28487195117E+03  0.18184454596E+03 -0.22010526959E+03  0.40331848106E+03  0.00000000000E+00 0.  1.
         22    1    1    2    0    0  0.52032232551E+03 -0.31466436108E+03  0.44689749783E+03  0.75462994648E+03  0.00000000000E+00 0.  1.
<mgrwt>
<rscale>  0 0.14352048E+04</rscale>
<asrwt>0</asrwt>
<pdfrwt beam="1">  1        2 0.10018064E+00 0.14352048E+04</pdfrwt>
<pdfrwt beam="2">  1       -2 0.12166264E+00 0.14352048E+04</pdfrwt>
<totfact> 0.22342778E+01</totfact>
</mgrwt>
</event>
<event>
 6    1  0.1001928E-005  0.1816388E+04  0.7818608E-02  0.8697633E-01
          2   -1    0    0  501    0  0.00000000000E+00  0.00000000000E+00  0.94280593641E+03  0.94280593641E+03  0.00000000000E+00 0. -1.
         -2   -1    0    0    0  501 -0.00000000000E+00 -0.00000000000E+00 -0.87485233415E+03  0.87485233415E+03  0.00000000000E+00 0.  1.
         23    2    1    2    0    0 -0.22985899061E+03 -0.14041315923E+03 -0.83113178732E+03  0.87909258367E+03  0.97327857850E+02 0.  0.
         11    1    3    3    0    0 -0.98622887191E+02 -0.58705166341E+02 -0.50908876156E+03  0.52186601496E+03  0.00000000000E+00 0.  1.
        -11    1    3    3    0    0 -0.13123610342E+03 -0.81707992885E+02 -0.32204302577E+03  0.35722656870E+03  0.00000000000E+00 0. -1.
         22    1    1    2    0    0  0.22985899061E+03  0.14041315923E+03  0.89908538958E+03  0.93856568689E+03  0.00000000000E+00 0. -1.
<mgrwt>
<rscale>  0 0.18163876E+04</rscale>
<asrwt>0</asrwt>
<pdfrwt beam="1">  1        2 0.14504707E+00 0.18163876E+04</pdfrwt>
<pdfrwt beam="2">  1       -2 0.13459267E+00 0.18163876E+04</pdfrwt>
<totfact> 0.10288232E+01</totfact>
</mgrwt>
</event>
<event>
 6    1  0.1001928E-005  0.4022882E+04  0.7818608E-02  0.7999946E-01
         -2   -1    0    0    0  501 -0.00000000000E+00  0.00000000000E+00  0.14010229935E+04  0.14010229935E+04  0.00000000000E+00 0.  1.
          2   -1    0    0  501    0  0.00000000000E+00 -0.00000000000E+00 -0.28878153075E+04  0.28878153075E+04  0.00000000000E+00 0. -1.
         23    2    1    2    0    0 -0.14635146299E+04 -0.13782300356E+04 -0.76273348729E+03  0.21520991293E+04  0.91516046979E+02 0.  0.
         13    1    3    3    0    0 -0.77677612985E+03 -0.79361518721E+03 -0.41533446798E+03  0.11856259704E+04  0.00000000000E+00 0.  1.
        -13    1    3    3    0    0 -0.68673850002E+03 -0.58461484841E+03 -0.34739901931E+03  0.96647315897E+03  0.00000000000E+00 0. -1.
         22    1    1    2    0    0  0.14635146299E+04  0.13782300356E+04 -0.72405882671E+03  0.21367391716E+04  0.00000000000E+00 0.  1.
<mgrwt>
<rscale>  0 0.40228824E+04</rscale>
<asrwt>0</asrwt>
<pdfrwt beam="1">  1        2 0.44427927E+00 0.40228824E+04</pdfrwt>
<pdfrwt beam="2">  1       -2 0.21554200E+00 0.40228824E+04</pdfrwt>
<totfact> 0.16974797E-01</totfact>
</mgrwt>
</event>
<event>
 6    1  0.1001928E-005  0.1629852E+04  0.7818608E-02  0.8802416E-01
         -1   -1    0    0    0  501 -0.00000000000E+00  0.00000000000E+00  0.81412632736E+03  0.81412632736E+03  0.00000000000E+00 0.  1.
          1   -1    0    0  501    0  0.00000000000E+00 -0.00000000000E+00 -0.81572623410E+03  0.81572623410E+03  0.00000000000E+00 0. -1.
         23    2    1    2    0    0  0.10867513430E+03  0.32989632837E+03 -0.73513655453E+03  0.81823819124E+03  0.91902728481E+02 0.  0.
         13    1    3    3    0    0  0.12014880349E+03  0.24253741198E+03 -0.57288747400E+03  0.63360886125E+03  0.00000000000E+00 0.  1.
        -13    1    3    3    0    0 -0.11473669186E+02  0.87358916398E+02 -0.16224908053E+03  0.18462932999E+03  0.00000000000E+00 0. -1.
         22    1    1    2    0    0 -0.10867513430E+03 -0.32989632837E+03  0.73353664779E+03  0.81161437022E+03  0.00000000000E+00 0.  1.
<mgrwt>
<rscale>  0 0.16298518E+04</rscale>
<asrwt>0</asrwt>
<pdfrwt beam="1">  1        1 0.12549634E+00 0.16298518E+04</pdfrwt>
<pdfrwt beam="2">  1       -1 0.12525020E+00 0.16298518E+04</pdfrwt>
<totfact> 0.11422090E+01</totfact>
</mgrwt>
</event>
<event>
 6    1  0.1001928E-005  0.9877933E+03  0.7818608E-02  0.9322035E-01
         -1   -1    0    0    0  501 -0.00000000000E+00  0.00000000000E+00  0.12083566832E+04  0.12083566832E+04  0.00000000000E+00 0.  1.
          1   -1    0    0  501    0  0.00000000000E+00 -0.00000000000E+00 -0.20187243176E+03  0.20187243176E+03  0.00000000000E+00 0. -1.
         23    2    1    2    0    0 -0.34118273328E+03  0.26738958387E+02  0.75550694578E+01  0.35430291488E+03  0.91393911339E+02 0.  0.
         11    1    3    3    0    0 -0.11409039157E+03  0.34987509217E+02 -0.32216199090E+02  0.12360674226E+03  0.00000000000E+00 0.  1.
        -11    1    3    3    0    0 -0.22709234171E+03 -0.82485508292E+01  0.39771268548E+02  0.23069617261E+03  0.00000000000E+00 0. -1.
         22    1    1    2    0    0  0.34118273328E+03 -0.26738958387E+02  0.99892918194E+03  0.10559262000E+04  0.00000000000E+00 0.  1.
<mgrwt>
<rscale>  0 0.98779330E+03</rscale>
<asrwt>0</asrwt>
<pdfrwt beam="1">  1        1 0.31057298E-01 0.98779330E+03</pdfrwt>
<pdfrwt beam="2">  1       -1 0.18590102E+00 0.98779330E+03</pdfrwt>
<totfact> 0.27889760E+01</totfact>
</mgrwt>
</event>
<event>
 6    1  0.1001928E-005  0.3727271E+04  0.7818608E-02  0.8061945E-01
          1   -1    0    0  501    0  0.00000000000E+00  0.00000000000E+00  0.31109144534E+04  0.31109144534E+04  0.00000000000E+00 0. -1.
         -1   -1    0    0    0  501 -0.00000000000E+00 -0.00000000000E+00 -0.11164363167E+04  0.11164363167E+04  0.00000000000E+00 0.  1.
         23    2    1    2    0    0  0.59521747410E+03 -0.12356304389E+04 -0.43114530297E+03  0.14408268613E+04  0.95022886055E+02 0.  0.
         13    1    3    3    0    0  0.13826002506E+03 -0.25378222799E+03 -0.12905951503E+03  0.31650847097E+03  0.00000000000E+00 0. -1.
        -13    1    3    3    0    0  0.45695744904E+03 -0.98184821092E+03 -0.30208578793E+03  0.11243183903E+04  0.00000000000E+00 0.  1.
         22    1    1    2    0    0 -0.59521747410E+03  0.12356304389E+04  0.24256234397E+04  0.27865239088E+04  0.00000000000E+00 0. -1.
<mgrwt>
<rscale>  0 0.37272713E+04</rscale>
<asrwt>0</asrwt>
<pdfrwt beam="1">  1        1 0.47860222E+00 0.37272713E+04</pdfrwt>
<pdfrwt beam="2">  1       -1 0.17175943E+00 0.37272713E+04</pdfrwt>
<totfact> 0.94633931E-02</totfact>
</mgrwt>
</event>
<event>
 6    1  0.1001928E-005  0.1064775E+04  0.7818608E-02  0.9240221E-01
          1   -1    0    0  501    0  0.00000000000E+00  0.00000000000E+00  0.27843603807E+03  0.27843603807E+03  0.00000000000E+00 0. -1.
         -1   -1    0    0    0  501 -0.00000000000E+00 -0.00000000000E+00 -0.10179594475E+04  0.10179594475E+04  0.00000000000E+00 0.  1.
         23    2    1    2    0    0  0.46756124239E+03 -0.15789244298E+03 -0.60278329318E+03  0.78430037883E+03  0.90751566182E+02 0.  0.
         13    1    3    3    0    0  0.43934250295E+03 -0.13277484897E+03 -0.52173633265E+03  0.69488113820E+03  0.00000000000E+00 0.  1.
        -13    1    3    3    0    0  0.28218739440E+02 -0.25117594010E+02 -0.81046960528E+02  0.89419240632E+02  0.00000000000E+00 0. -1.
         22    1    1    2    0    0 -0.46756124239E+03  0.15789244298E+03 -0.13674011622E+03  0.51209510671E+03  0.00000000000E+00 0. -1.
<mgrwt>
<rscale>  0 0.10647753E+04</rscale>
<asrwt>0</asrwt>
<pdfrwt beam="1">  1        1 0.42836314E-01 0.10647753E+04</pdfrwt>
<pdfrwt beam="2">  1       -1 0.15660914E+00 0.10647753E+04</pdfrwt>
<totfact> 0.29941936E+01</totfact>
</mgrwt>
</event>
<event>
 6    1  0.1001928E-005  0.4011330E+04  0.7818608E-02  0.8002265E-01
         -1   -1    0    0    0  501 -0.00000000000E+00  0.00000000000E+00  0.30173323587E+04  0.30173323587E+04  0.00000000000E+00 0.  1.
          1   -1    0    0  501    0  0.00000000000E+00 -0.00000000000E+00 -0.13331947380E+04  0.13331947380E+04  0.00000000000E+00 0. -1.
         23    2    1    2    0    0  0.11813758274E+04  0.12508778541E+04  0.19582461995E+04  0.26082642681E+04  0.89275208808E+02 0.  0.
         11    1    3    3    0    0  0.99866532680E+03  0.10871512685E+04  0.17138529308E+04  0.22619730732E+04  0.00000000000E+00 0. -1.
        -11    1    3    3    0    0  0.18271050057E+03  0.16372658559E+03  0.24439326867E+03  0.34629119483E+03  0.00000000000E+00 0.  1.
         22    1    1    2    0    0 -0.11813758274E+04 -0.12508778541E+04 -0.27410857881E+03  0.17422628287E+04  0.00000000000E+00 0. -1.
<mgrwt>
<rscale>  0 0.40113298E+04</rscale>
<asrwt>0</asrwt>
<pdfrwt beam="1">  1        1 0.20510688E+00 0.40113298E+04</pdfrwt>
<pdfrwt beam="2">  1       -1 0.46420498E+00 0.40113298E+04</pdfrwt>
<totfact> 0.17315022E-02</totfact>
</mgrwt>
</event>
<event>
 6    1  0.1001928E-005  0.1144198E+04  0.7818608E-02  0.9163152E-01
          1   -1    0    0  501    0  0.00000000000E+00  0.00000000000E+00  0.16467211125E+04  0.16467211125E+04  0.00000000000E+00 0. -1.
         -1   -1    0    0    0  501 -0.00000000000E+00 -0.00000000000E+00 -0.19875709222E+03  0.19875709222E+03  0.00000000000E+00 0.  1.
         23    2    1    2    0    0 -0.39737470851E+03  0.37397479537E+02  0.13815523450E+04  0.14408601860E+04  0.89921985057E+02 0.  0.
         11    1    3    3    0    0 -0.20833433012E+03  0.64535942612E+02  0.72475777906E+03  0.75686321043E+03  0.00000000000E+00 0.  1.
        -11    1    3    3    0    0 -0.18904037838E+03 -0.27138463075E+02  0.65679456589E+03  0.68399697560E+03  0.00000000000E+00 0. -1.
         22    1    1    2    0    0  0.39737470851E+03 -0.37397479537E+02  0.66411675326E+02  0.40461801870E+03  0.00000000000E+00 0.  1.
<mgrwt>
<rscale>  0 0.11441984E+04</rscale>
<asrwt>0</asrwt>
<pdfrwt beam="1">  1        1 0.25334170E+00 0.11441984E+04</pdfrwt>
<pdfrwt beam="2">  1       -1 0.30578015E-01 0.11441984E+04</pdfrwt>
<totfact> 0.50823912E+01</totfact>
</mgrwt>
</event>
<event>
 6    1  0.1001928E-005  0.2252170E+04  0.7818608E-02  0.8497022E-01
          2   -1    0    0  501    0  0.00000000000E+00  0.00000000000E+00  0.13281912407E+04  0.13281912407E+04  0.00000000000E+00 0. -1.
         -2   -1    0    0    0  501 -0.00000000000E+00 -0.00000000000E+00 -0.95473257385E+03  0.95473257385E+03  0.00000000000E+00 0.  1.
         23    2    1    2    0    0  0.31748089708E+03  0.44690478227E+03 -0.80796294313E+03  0.98051257960E+03  0.89904376204E+02 0.  0.
         13    1    3    3    0    0  0.22701198400E+03  0.30090251430E+03 -0.62256497388E+03  0.72778012524E+03  0.00000000000E+00 0. -1.
        -13    1    3    3    0    0  0.90468913075E+02  0.14600226797E+03 -0.18539796925E+03  0.25273245436E+03  0.00000000000E+00 0.  1.
         22    1    1    2    0    0 -0.31748089708E+03 -0.44690478227E+03  0.11814216100E+04  0.13024112350E+04  0.00000000000E+00 0. -1.
<mgrwt>
<rscale>  0 0.22521700E+04</rscale>
<asrwt>0</asrwt>
<pdfrwt beam="1">  1        2 0.20433711E+00 0.22521700E+04</pdfrwt>
<pdfrwt beam="2">  1       -2 0.14688193E+00 0.22521700E+04</pdfrwt>
<totfact> 0.45896589E+00</totfact>
</mgrwt>
</event>
<event>
 6    1  0.1001928E-005  0.2330101E+04  0.7818608E-02  0.8466147E-01
         -1   -1    0    0    0  501 -0.00000000000E+00  0.00000000000E+00  0.45143346591E+03  0.45143346591E+03  0.00000000000E+00 0. -1.
          1   -1    0    0  501    0  0.00000000000E+00 -0.00000000000E+00 -0.30067382153E+04  0.30067382153E+04  0.00000000000E+00 0.  1.
         23    2    1    2    0    0  0.59481794298E+03  0.81170337669E+03 -0.21450299127E+04  0.23714351913E+04  0.99402126676E+02 0.  0.
         11    1    3    3    0    0  0.39236840245E+03  0.58482255662E+03 -0.15779754474E+04  0.17279979452E+04  0.00000000000E+00 0.  1.
        -11    1    3    3    0    0  0.20244954053E+03  0.22688082008E+03 -0.56705446537E+03  0.64343724610E+03  0.00000000000E+00 0. -1.
         22    1    1    2    0    0 -0.59481794298E+03 -0.81170337669E+03 -0.41027483667E+03  0.10867364900E+04  0.00000000000E+00 0. -1.
<mgrwt>
<rscale>  0 0.23301006E+04</rscale>
<asrwt>0</asrwt>
<pdfrwt beam="1">  1        1 0.46257510E+00 0.23301006E+04</pdfrwt>
<pdfrwt beam="2">  1       -1 0.69451303E-01 0.23301006E+04</pdfrwt>
<totfact> 0.11177810E+00</totfact>
</mgrwt>
</event>
<event>
 6    1  0.1001928E-005  0.3832981E+04  0.7818608E-02  0.8039114E-01
         -2   -1    0    0    0  501 -0.00000000000E+00  0.00000000000E+00  0.12933602878E+04  0.12933602878E+04  0.00000000000E+00 0.  1.
          2   -1    0    0  501    0  0.00000000000E+00 -0.00000000000E+00 -0.28398395580E+04  0.28398395580E+04  0.00000000000E+00 0. -1.
         23    2    1    2    0    0  0.13958023064E+04  0.35500682810E+03  0.58816407695E+03  0.15581277796E+04  0.86782886948E+02 0.  0.
         11    1    3    3    0    0  0.91175324996E+03  0.24593658461E+03  0.42732272375E+03  0.10365247236E+04  0.00000000000E+00 0. -1.
        -11    1    3    3    0    0  0.48404905644E+03  0.10907024350E+03  0.16084135320E+03  0.52160305593E+03  0.00000000000E+00 0.  1.
         22    1    1    2    0    0 -0.13958023064E+04 -0.35500682810E+03 -0.21346433472E+04  0.25750720663E+04  0.00000000000E+00 0.  1.
<mgrwt>
<rscale>  0 0.38329809E+04</rscale>
<asrwt>0</asrwt>
<pdfrwt beam="1">  1        2 0.43689839E+00 0.38329809E+04</pdfrwt>
<pdfrwt beam="2">  1       -2 0.19897851E+00 0.38329809E+04</pdfrwt>
<totfact> 0.23613877E-01</totfact>
</mgrwt>
</event>
<event>
 6    1  0.1001928E-005  0.1289829E+04  0.7818608E-02  0.9037670E-01
         -2   -1    0    0    0  501 -0.00000000000E+00  0.00000000000E+00  0.69130599568E+03  0.69130599568E+03  0.00000000000E+00 0.  1.
          2   -1    0    0  501    0  0.00000000000E+00 -0.00000000000E+00 -0.60163581148E+03  0.60163581148E+03  0.00000000000E+00 0. -1.
         23    2    1    2    0    0  0.37097291842E+02 -0.62841163091E+03  0.17056093455E+03  0.65826023312E+03  0.89096100921E+02 0.  0.
         13    1    3    3    0    0  0.34862877206E+02 -0.33979487053E+03  0.13566228430E+03  0.36753262389E+03  0.00000000000E+00 0.  1.
        -13    1    3    3    0    0  0.22344146360E+01 -0.28861676038E+03  0.34898650245E+02  0.29072760923E+03  0.00000000000E+00 0. -1.
         22    1    1    2    0    0 -0.37097291842E+02  0.62841163091E+03 -0.80890750349E+02  0.63468157403E+03  0.00000000000E+00 0.  1.
<mgrwt>
<rscale>  0 0.12898286E+04</rscale>
<asrwt>0</asrwt>
<pdfrwt beam="1">  1        2 0.92559355E-01 0.12898286E+04</pdfrwt>
<pdfrwt beam="2">  1       -2 0.10635477E+00 0.12898286E+04</pdfrwt>
<totfact> 0.34563108E+01</totfact>
</mgrwt>
</event>
<event>
 6    1  0.1001928E-005  0.2000961E+04  0.7818608E-02  0.8606171E-01
         -1   -1    0    0    0  501 -0.00000000000E+00  0.00000000000E+00  0.50026890569E+03  0.50026890569E+03  0.00000000000E+00 0.  1.
          1   -1    0    0  501    0  0.00000000000E+00 -0.00000000000E+00 -0.20008470783E+04  0.20008470783E+04  0.00000000000E+00 0. -1.
         23    2    1    2    0    0 -0.50260893516E+03 -0.68286988508E+03 -0.14108221167E+04  0.16484829028E+04  0.90276321184E+02 0.  0.
         11    1    3    3    0    0 -0.32745933589E+03 -0.38635475523E+03 -0.89245920840E+03  0.10261496247E+04  0.00000000000E+00 0. -1.
        -11    1    3    3    0    0 -0.17514959928E+03 -0.29651512985E+03 -0.51836290828E+03  0.62233327810E+03  0.00000000000E+00 0.  1.
         22    1    1    2    0    0  0.50260893516E+03  0.68286988508E+03 -0.89756055948E+02  0.85263308124E+03  0.00000000000E+00 0.  1.
<mgrwt>
<rscale>  0 0.20009613E+04</rscale>
<asrwt>0</asrwt>
<pdfrwt beam="1">  1        1 0.30782263E+00 0.20009613E+04</pdfrwt>
<pdfrwt beam="2">  1       -1 0.76964447E-01 0.20009613E+04</pdfrwt>
<totfact> 0.46740565E+00</totfact>
</mgrwt>
</event>
<event>
 6    1  0.1001928E-005  0.1001354E+04  0.7818608E-02  0.9307061E-01
          2   -1    0    0  501    0  0.00000000000E+00  0.00000000000E+00  0.13753405102E+04  0.13753405102E+04  0.00000000000E+00 0. -1.
         -2   -1    0    0    0  501 -0.00000000000E+00 -0.00000000000E+00 -0.18226561328E+03  0.18226561328E+03  0.00000000000E+00 0.  1.
         23    2    1    2    0    0  0.16677473555E+03 -0.41685012879E+03  0.27188378592E+03  0.53282765704E+03  0.91687931444E+02 0.  0.
         11    1    3    3    0    0  0.10652891492E+03 -0.15272763712E+03  0.92547173665E+02  0.20794018421E+03  0.00000000000E+00 0. -1.
        -11    1    3    3    0    0  0.60245820624E+02 -0.26412249168E+03  0.17933661225E+03  0.32488747284E+03  0.00000000000E+00 0.  1.
         22    1    1    2    0    0 -0.16677473555E+03  0.41685012879E+03  0.92119111100E+03  0.10247784664E+04  0.00000000000E+00 0. -1.
<mgrwt>
<rscale>  0 0.10013536E+04</rscale>
<asrwt>0</asrwt>
<pdfrwt beam="1">  1        2 0.21159084E+00 0.10013536E+04</pdfrwt>
<pdfrwt beam="2">  1       -2 0.28040864E-01 0.10013536E+04</pdfrwt>
<totfact> 0.17329404E+02</totfact>
</mgrwt>
</event>
<event>
 6    1  0.1001928E-005  0.3192171E+04  0.7818608E-02  0.8190888E-01
          4   -1    0    0  501    0  0.00000000000E+00  0.00000000000E+00  0.18645260202E+04  0.18645260202E+04  0.00000000000E+00 0. -1.
         -4   -1    0    0    0  501 -0.00000000000E+00 -0.00000000000E+00 -0.13662927683E+04  0.13662927683E+04  0.00000000000E+00 0.  1.
         23    2    1    2    0    0 -0.24815571984E+03 -0.61616423757E+03 -0.12181620566E+04  0.13903697988E+04  0.89273470242E+02 0.  0.
         11    1    3    3    0    0 -0.15413484345E+03 -0.35106092910E+03 -0.61295557235E+03  0.72299091252E+03  0.00000000000E+00 0.  1.
        -11    1    3    3    0    0 -0.94020876389E+02 -0.26510330847E+03 -0.60520648421E+03  0.66737888631E+03  0.00000000000E+00 0. -1.
         22    1    1    2    0    0  0.24815571984E+03  0.61616423757E+03  0.17163953084E+04  0.18404489897E+04  0.00000000000E+00 0. -1.
<mgrwt>
<rscale>  0 0.31921707E+04</rscale>
<asrwt>0</asrwt>
<pdfrwt beam="1">  1        4 0.28685016E+00 0.31921707E+04</pdfrwt>
<pdfrwt beam="2">  1       -4 0.21019889E+00 0.31921707E+04</pdfrwt>
<totfact> 0.70205754E-03</totfact>
</mgrwt>
</event>
<event>
 6    1  0.1001928E-005  0.1778997E+04  0.7818608E-02  0.8717549E-01
         -1   -1    0    0    0  501 -0.00000000000E+00  0.00000000000E+00  0.54090025999E+03  0.54090025999E+03  0.00000000000E+00 0.  1.
          1   -1    0    0  501    0  0.00000000000E+00 -0.00000000000E+00 -0.14627608135E+04  0.14627608135E+04  0.00000000000E+00 0. -1.
         23    2    1    2    0    0  0.34778004134E+03 -0.59881481881E+03  0.16269906303E+03  0.71688226336E+03  0.88989044453E+02 0.  0.
         13    1    3    3    0    0  0.17965189482E+03 -0.22442393063E+03  0.77256582348E+02  0.29767345107E+03  0.00000000000E+00 0.  1.
        -13    1    3    3    0    0  0.16812814651E+03 -0.37439088817E+03  0.85442480679E+02  0.41920881229E+03  0.00000000000E+00 0. -1.
         22    1    1    2    0    0 -0.34778004134E+03  0.59881481881E+03 -0.10845596166E+04  0.12867788102E+04  0.00000000000E+00 0. -1.
<mgrwt>
<rscale>  0 0.17789971E+04</rscale>
<asrwt>0</asrwt>
<pdfrwt beam="1">  1        1 0.22504013E+00 0.17789971E+04</pdfrwt>
<pdfrwt beam="2">  1       -1 0.83215424E-01 0.17789971E+04</pdfrwt>
<totfact> 0.94085827E+00</totfact>
</mgrwt>
</event>
<event>
 6    1  0.1001928E-005  0.2342544E+04  0.7818608E-02  0.8461333E-01
         -2   -1    0    0    0  501 -0.00000000000E+00  0.00000000000E+00  0.10844764319E+04  0.10844764319E+04  0.00000000000E+00 0.  1.
          2   -1    0    0  501    0  0.00000000000E+00 -0.00000000000E+00 -0.12650143990E+04  0.12650143990E+04  0.00000000000E+00 0. -1.
         23    2    1    2    0    0 -0.49363427071E+03 -0.98910043851E+03 -0.47199672723E+03  0.12062748935E+04  0.10160579439E+03 0.  0.
         13    1    3    3    0    0 -0.40068307956E+03 -0.87657643214E+03 -0.41984854654E+03  0.10512877692E+04  0.00000000000E+00 0. -1.
        -13    1    3    3    0    0 -0.92951191152E+02 -0.11252400637E+03 -0.52148180689E+02  0.15498712429E+03  0.00000000000E+00 0.  1.
         22    1    1    2    0    0  0.49363427071E+03  0.98910043851E+03  0.29145876010E+03  0.11432159374E+04  0.00000000000E+00 0.  1.
<mgrwt>
<rscale>  0 0.23425442E+04</rscale>
<asrwt>0</asrwt>
<pdfrwt beam="1">  1        2 0.19461760E+00 0.23425442E+04</pdfrwt>
<pdfrwt beam="2">  1       -2 0.16684253E+00 0.23425442E+04</pdfrwt>
<totfact> 0.35158429E+00</totfact>
</mgrwt>
</event>
<event>
 6    1  0.1001928E-005  0.1396708E+04  0.7818608E-02  0.8956205E-01
          2   -1    0    0  501    0  0.00000000000E+00  0.00000000000E+00  0.84667216625E+03  0.84667216625E+03  0.00000000000E+00 0. -1.
         -2   -1    0    0    0  501 -0.00000000000E+00 -0.00000000000E+00 -0.57601825778E+03  0.57601825778E+03  0.00000000000E+00 0.  1.
         23    2    1    2    0    0 -0.35997263705E+03  0.43625043487E+03 -0.27622239990E+03  0.63594495185E+03  0.90732718657E+02 0.  0.
         13    1    3    3    0    0 -0.35947381102E+03  0.40736008804E+03 -0.26860569780E+03  0.60606326653E+03  0.00000000000E+00 0. -1.
        -13    1    3    3    0    0 -0.49882602449E+00  0.28890346824E+02 -0.76167020994E+01  0.29881685326E+02  0.00000000000E+00 0.  1.
         22    1    1    2    0    0  0.35997263705E+03 -0.43625043487E+03  0.54687630837E+03  0.78674547219E+03  0.00000000000E+00 0. -1.
<mgrwt>
<rscale>  0 0.13967085E+04</rscale>
<asrwt>0</asrwt>
<pdfrwt beam="1">  1        2 0.13025726E+00 0.13967085E+04</pdfrwt>
<pdfrwt beam="2">  1       -2 0.88618194E-01 0.13967085E+04</pdfrwt>
<totfact> 0.34033005E+01</totfact>
</mgrwt>
</event>
<event>
 6    1  0.1001928E-005  0.2113070E+04  0.7818608E-02  0.8555508E-01
         -2   -1    0    0    0  501 -0.00000000000E+00  0.00000000000E+00  0.51806614788E+03  0.51806614788E+03  0.00000000000E+00 0.  1.
          2   -1    0    0  501    0  0.00000000000E+00 -0.00000000000E+00 -0.21546781026E+04  0.21546781026E+04  0.00000000000E+00 0. -1.
         23    2    1    2    0    0  0.65201989380E+03 -0.17885024046E+03  0.20335488516E+03  0.71249035818E+03  0.95770302097E+02 0.  0.
         13    1    3    3    0    0  0.33746617104E+03 -0.57689963940E+02  0.13802005026E+03  0.36913558865E+03  0.00000000000E+00 0.  1.
        -13    1    3    3    0    0  0.31455372276E+03 -0.12116027652E+03  0.65334834894E+02  0.34335476953E+03  0.00000000000E+00 0. -1.
         22    1    1    2    0    0 -0.65201989380E+03  0.17885024046E+03 -0.18399668399E+04  0.19602538923E+04  0.00000000000E+00 0. -1.
<mgrwt>
<rscale>  0 0.21130696E+04</rscale>
<asrwt>0</asrwt>
<pdfrwt beam="1">  1        2 0.33148894E+00 0.21130696E+04</pdfrwt>
<pdfrwt beam="2">  1       -2 0.79702484E-01 0.21130696E+04</pdfrwt>
<totfact> 0.70259625E+00</totfact>
</mgrwt>
</event>
<event>
 6    1  0.1001928E-005  0.2799662E+04  0.7818608E-02  0.8303373E-01
         -2   -1    0    0    0  501 -0.00000000000E+00  0.00000000000E+00  0.61325433962E+03  0.61325433962E+03  0.00000000000E+00 0.  1.
          2   -1    0    0  501    0  0.00000000000E+00 -0.00000000000E+00 -0.31952924597E+04  0.31952924597E+04  0.00000000000E+00 0. -1.
         23    2    1    2    0    0 -0.10779047089E+04  0.87237386470E+03 -0.10478118440E+04  0.17405127117E+04  0.92520904979E+02 0.  0.
         11    1    3    3    0    0 -0.70365585017E+03  0.54578157807E+03 -0.62154345694E+03  0.10859674743E+04  0.00000000000E+00 0.  1.
        -11    1    3    3    0    0 -0.37424885875E+03  0.32659228662E+03 -0.42626838709E+03  0.65454523739E+03  0.00000000000E+00 0. -1.
         22    1    1    2    0    0  0.10779047089E+04 -0.87237386470E+03 -0.15342262760E+04  0.20680340876E+04  0.00000000000E+00 0. -1.
<mgrwt>
<rscale>  0 0.27996621E+04</rscale>
<asrwt>0</asrwt>
<pdfrwt beam="1">  1        2 0.49158346E+00 0.27996621E+04</pdfrwt>
<pdfrwt beam="2">  1       -2 0.94346821E-01 0.27996621E+04</pdfrwt>
<totfact> 0.10759738E+00</totfact>
</mgrwt>
</event>
<event>
 6    1  0.1001928E-005  0.2575960E+04  0.7818608E-02  0.8376413E-01
         -1   -1    0    0    0  501 -0.00000000000E+00  0.00000000000E+00  0.85108322653E+03  0.85108322653E+03  0.00000000000E+00 0.  1.
          1   -1    0    0  501    0  0.00000000000E+00 -0.00000000000E+00 -0.19491546198E+04  0.19491546198E+04  0.00000000000E+00 0. -1.
         23    2    1    2    0    0 -0.80519389099E+03  0.58956821832E+03  0.33244225928E+03  0.10560196271E+04  0.93443624316E+02 0.  0.
         13    1    3    3    0    0 -0.10867187419E+03  0.11407408332E+03  0.73190913541E+02  0.17372214179E+03  0.00000000000E+00 0. -1.
        -13    1    3    3    0    0 -0.69652201680E+03  0.47549413501E+03  0.25925134574E+03  0.88229748531E+03  0.00000000000E+00 0.  1.
         22    1    1    2    0    0  0.80519389099E+03 -0.58956821832E+03 -0.14305136525E+04  0.17442182192E+04  0.00000000000E+00 0. -1.
<mgrwt>
<rscale>  0 0.25759603E+04</rscale>
<asrwt>0</asrwt>
<pdfrwt beam="1">  1        1 0.29986994E+00 0.25759603E+04</pdfrwt>
<pdfrwt beam="2">  1       -1 0.13093588E+00 0.25759603E+04</pdfrwt>
<totfact> 0.14179545E+00</totfact>
</mgrwt>
</event>
<event>
 6    1  0.1001928E-005  0.6452089E+04  0.7818608E-02  0.7636743E-01
          2   -1    0    0  501    0  0.00000000000E+00  0.00000000000E+00  0.45090090822E+04  0.45090090822E+04  0.00000000000E+00 0. -1.
         -2   -1    0    0    0  501 -0.00000000000E+00 -0.00000000000E+00 -0.23081265288E+04  0.23081265288E+04  0.00000000000E+00 0.  1.
         23    2    1    2    0    0 -0.10226202973E+04 -0.16223904275E+04  0.38405937081E+04  0.42939321625E+04  0.98946519043E+02 0.  0.
         13    1    3    3    0    0 -0.19479654236E+03 -0.33398643991E+03  0.86056721096E+03  0.94343444898E+03  0.00000000000E+00 0. -1.
        -13    1    3    3    0    0 -0.82782375499E+03 -0.12884039876E+04  0.29800264971E+04  0.33504977135E+04  0.00000000000E+00 0.  1.
         22    1    1    2    0    0  0.10226202973E+04  0.16223904275E+04 -0.16397111547E+04  0.25232034486E+04  0.00000000000E+00 0.  1.
<mgrwt>
<rscale>  0 0.64520891E+04</rscale>
<asrwt>0</asrwt>
<pdfrwt beam="1">  1        2 0.69369370E+00 0.64520891E+04</pdfrwt>
<pdfrwt beam="2">  1       -2 0.35509639E+00 0.64520891E+04</pdfrwt>
<totfact> 0.11186329E-03</totfact>
</mgrwt>
</event>
<event>
 6    1  0.1001928E-005  0.2528783E+04  0.7818608E-02  0.8392803E-01
          1   -1    0    0  501    0  0.00000000000E+00  0.00000000000E+00  0.16564635483E+04  0.16564635483E+04  0.00000000000E+00 0. -1.
         -1   -1    0    0    0  501 -0.00000000000E+00 -0.00000000000E+00 -0.96511978648E+03  0.96511978648E+03  0.00000000000E+00 0.  1.
         23    2    1    2    0    0  0.90386144672E+03  0.53113838547E+03  0.10758769061E+04  0.15049189992E+04  0.90534953753E+02 0.  0.
         13    1    3    3    0    0  0.43505605855E+03  0.26636467953E+03  0.46017456578E+03  0.68701131546E+03  0.00000000000E+00 0. -1.
        -13    1    3    3    0    0  0.46880538817E+03  0.26477370595E+03  0.61570234027E+03  0.81790768376E+03  0.00000000000E+00 0.  1.
         22    1    1    2    0    0 -0.90386144672E+03 -0.53113838547E+03 -0.38453314420E+03  0.11166643356E+04  0.00000000000E+00 0.  1.
<mgrwt>
<rscale>  0 0.25287829E+04</rscale>
<asrwt>0</asrwt>
<pdfrwt beam="1">  1        1 0.25484055E+00 0.25287829E+04</pdfrwt>
<pdfrwt beam="2">  1       -1 0.14847997E+00 0.25287829E+04</pdfrwt>
<totfact> 0.16220453E+00</totfact>
</mgrwt>
</event>
<event>
 6    1  0.1001928E-005  0.4118782E+04  0.7818608E-02  0.7981004E-01
         -2   -1    0    0    0  501 -0.00000000000E+00  0.00000000000E+00  0.12089905444E+04  0.12089905444E+04  0.00000000000E+00 0.  1.
          2   -1    0    0  501    0  0.00000000000E+00 -0.00000000000E+00 -0.35079610835E+04  0.35079610835E+04  0.00000000000E+00 0. -1.
         23    2    1    2    0    0  0.11561902560E+04 -0.14658340856E+04 -0.21428035086E+04  0.28434966335E+04  0.91764663934E+02 0.  0.
         11    1    3    3    0    0  0.10450825148E+04 -0.13309579640E+04 -0.19805407525E+04  0.26050313313E+04  0.00000000000E+00 0. -1.
        -11    1    3    3    0    0  0.11110774116E+03 -0.13487612163E+03 -0.16226275612E+03  0.23846530221E+03  0.00000000000E+00 0.  1.
         22    1    1    2    0    0 -0.11561902560E+04  0.14658340856E+04 -0.15616703043E+03  0.18734549944E+04  0.00000000000E+00 0. -1.
<mgrwt>
<rscale>  0 0.41187822E+04</rscale>
<asrwt>0</asrwt>
<pdfrwt beam="1">  1        2 0.53968632E+00 0.41187822E+04</pdfrwt>
<pdfrwt beam="2">  1       -2 0.18599855E+00 0.41187822E+04</pdfrwt>
<totfact> 0.10325141E-01</totfact>
</mgrwt>
</event>
<event>
 6    1  0.1001928E-005  0.2016745E+04  0.7818608E-02  0.8598832E-01
          2   -1    0    0  501    0  0.00000000000E+00  0.00000000000E+00  0.22291956693E+04  0.22291956693E+04  0.00000000000E+00 0. -1.
         -2   -1    0    0    0  501 -0.00000000000E+00 -0.00000000000E+00 -0.45613527060E+03  0.45613527060E+03  0.00000000000E+00 0.  1.
         23    2    1    2    0    0  0.52191260042E+03 -0.88672419536E+02 -0.25116253373E+03  0.59302741491E+03  0.91341863475E+02 0.  0.
         13    1    3    3    0    0  0.44004137733E+03 -0.80817972437E+02 -0.17336796034E+03  0.47981705691E+03  0.00000000000E+00 0. -1.
        -13    1    3    3    0    0  0.81871223098E+02 -0.78544470995E+01 -0.77794573393E+02  0.11321035801E+03  0.00000000000E+00 0.  1.
         22    1    1    2    0    0 -0.52191260042E+03  0.88672419536E+02  0.20242229325E+04  0.20923035250E+04  0.00000000000E+00 0. -1.
<mgrwt>
<rscale>  0 0.20167447E+04</rscale>
<asrwt>0</asrwt>
<pdfrwt beam="1">  1        2 0.34295317E+00 0.20167447E+04</pdfrwt>
<pdfrwt beam="2">  1       -2 0.70174658E-01 0.20167447E+04</pdfrwt>
<totfact> 0.85287082E+00</totfact>
</mgrwt>
</event>
<event>
 6    1  0.1001928E-005  0.3157706E+04  0.7818608E-02  0.8200077E-01
          1   -1    0    0  501    0  0.00000000000E+00  0.00000000000E+00  0.21947042129E+04  0.21947042129E+04  0.00000000000E+00 0. -1.
         -1   -1    0    0    0  501 -0.00000000000E+00 -0.00000000000E+00 -0.11358146253E+04  0.11358146253E+04  0.00000000000E+00 0.  1.
         23    2    1    2    0    0  0.14796189255E+04 -0.42150000468E+03  0.16198275597E+03  0.15496829999E+04  0.91348609794E+02 0.  0.
         13    1    3    3    0    0  0.38950852039E+03 -0.13678254553E+03  0.11386286751E+02  0.41298426089E+03  0.00000000000E+00 0. -1.
        -13    1    3    3    0    0  0.10901104051E+04 -0.28471745915E+03  0.15059646922E+03  0.11366987390E+04  0.00000000000E+00 0.  1.
         22    1    1    2    0    0 -0.14796189255E+04  0.42150000468E+03  0.89690683164E+03  0.17808358384E+04  0.00000000000E+00 0. -1.
<mgrwt>
<rscale>  0 0.31577062E+04</rscale>
<asrwt>0</asrwt>
<pdfrwt beam="1">  1        1 0.33764680E+00 0.31577062E+04</pdfrwt>
<pdfrwt beam="2">  1       -1 0.17474071E+00 0.31577062E+04</pdfrwt>
<totfact> 0.41900006E-01</totfact>
</mgrwt>
</event>
<event>
 6    1  0.1001928E-005  0.6656017E+03  0.7818608E-02  0.9777936E-01
         -1   -1    0    0    0  501 -0.00000000000E+00  0.00000000000E+00  0.30068359998E+03  0.30068359998E+03  0.00000000000E+00 0.  1.
          1   -1    0    0  501    0  0.00000000000E+00 -0.00000000000E+00 -0.36834863211E+03  0.36834863211E+03  0.00000000000E+00 0. -1.
         23    2    1    2    0    0  0.73973186102E+02  0.14922714084E+03  0.24799029509E+03  0.31213020431E+03  0.90472681849E+02 0.  0.
         13    1    3    3    0    0 -0.81481829080E+01 -0.84598094854E+01  0.14747575370E+02  0.18853441079E+02  0.00000000000E+00 0.  1.
        -13    1    3    3    0    0  0.82121369010E+02  0.15768695033E+03  0.23324271972E+03  0.29327676323E+03  0.00000000000E+00 0. -1.
         22    1    1    2    0    0 -0.73973186102E+02 -0.14922714084E+03 -0.31565532722E+03  0.35690202777E+03  0.00000000000E+00 0. -1.
<mgrwt>
<rscale>  0 0.66560166E+03</rscale>
<asrwt>0</asrwt>
<pdfrwt beam="1">  1        1 0.56669020E-01 0.66560166E+03</pdfrwt>
<pdfrwt beam="2">  1       -1 0.46259016E-01 0.66560166E+03</pdfrwt>
<totfact> 0.31550982E+02</totfact>
</mgrwt>
</event>
<event>
 6    1  0.1001928E-005  0.3873828E+04  0.7818608E-02  0.8030495E-01
         -1   -1    0    0    0  501 -0.00000000000E+00  0.00000000000E+00  0.25195609363E+04  0.25195609363E+04  0.00000000000E+00 0.  1.
          1   -1    0    0  501    0  0.00000000000E+00 -0.00000000000E+00 -0.14890039737E+04  0.14890039737E+04  0.00000000000E+00 0. -1.
         23    2    1    2    0    0 -0.15681984563E+04 -0.73855313311E+03  0.14073876599E+04  0.22346684916E+04  0.91083001452E+02 0.  0.
         11    1    3    3    0    0 -0.12425188316E+04 -0.55497319398E+03  0.11365294768E+04  0.17730052297E+04  0.00000000000E+00 0. -1.
        -11    1    3    3    0    0 -0.32567962465E+03 -0.18357993913E+03  0.27085818313E+03  0.46166326184E+03  0.00000000000E+00 0.  1.
         22    1    1    2    0    0  0.15681984563E+04  0.73855313311E+03 -0.37683069736E+03  0.17738964184E+04  0.00000000000E+00 0. -1.
<mgrwt>
<rscale>  0 0.38738282E+04</rscale>
<asrwt>0</asrwt>
<pdfrwt beam="1">  1        1 0.22907754E+00 0.38738282E+04</pdfrwt>
<pdfrwt beam="2">  1       -1 0.38762476E+00 0.38738282E+04</pdfrwt>
<totfact> 0.45702634E-02</totfact>
</mgrwt>
</event>
<event>
 6    1  0.1001928E-005  0.1561854E+04  0.7818608E-02  0.8844331E-01
         -2   -1    0    0    0  501 -0.00000000000E+00  0.00000000000E+00  0.26135848632E+03  0.26135848632E+03  0.00000000000E+00 0.  1.
          2   -1    0    0  501    0  0.00000000000E+00 -0.00000000000E+00 -0.23333747983E+04  0.23333747983E+04  0.00000000000E+00 0. -1.
         23    2    1    2    0    0 -0.48738366794E+03  0.56192145625E+03 -0.14199079820E+04  0.16055195378E+04  0.90861137602E+02 0.  0.
         13    1    3    3    0    0 -0.31656388065E+02  0.14847057857E+02 -0.97945808889E+02  0.10399972842E+03  0.00000000000E+00 0.  1.
        -13    1    3    3    0    0 -0.45572727987E+03  0.54707439839E+03 -0.13219621731E+04  0.15015198094E+04  0.00000000000E+00 0. -1.
         22    1    1    2    0    0  0.48738366794E+03 -0.56192145625E+03 -0.65210832998E+03  0.98921374676E+03  0.00000000000E+00 0.  1.
<mgrwt>
<rscale>  0 0.15618544E+04</rscale>
<asrwt>0</asrwt>
<pdfrwt beam="1">  1        2 0.35898074E+00 0.15618544E+04</pdfrwt>
<pdfrwt beam="2">  1       -2 0.40208998E-01 0.15618544E+04</pdfrwt>
<totfact> 0.24468300E+01</totfact>
</mgrwt>
</event>
<event>
 6    1  0.1001928E-005  0.2836570E+04  0.7818608E-02  0.8292004E-01
         -1   -1    0    0    0  501 -0.00000000000E+00  0.00000000000E+00  0.10805176887E+04  0.10805176887E+04  0.00000000000E+00 0.  1.
          1   -1    0    0  501    0  0.00000000000E+00 -0.00000000000E+00 -0.18616380618E+04  0.18616380618E+04  0.00000000000E+00 0. -1.
         23    2    1    2    0    0  0.86868206800E+03  0.50619814387E+03  0.64450902956E+03  0.11976603249E+04  0.90295451055E+02 0.  0.
         11    1    3    3    0    0  0.75815382122E+03  0.45363066848E+03  0.59737550786E+03  0.10665062107E+04  0.00000000000E+00 0.  1.
        -11    1    3    3    0    0  0.11052824678E+03  0.52567475390E+02  0.47133521705E+02  0.13115411420E+03  0.00000000000E+00 0. -1.
         22    1    1    2    0    0 -0.86868206800E+03 -0.50619814387E+03 -0.14256294026E+04  0.17444954256E+04  0.00000000000E+00 0. -1.
<mgrwt>
<rscale>  0 0.28365704E+04</rscale>
<asrwt>0</asrwt>
<pdfrwt beam="1">  1        1 0.28640585E+00 0.28365704E+04</pdfrwt>
<pdfrwt beam="2">  1       -1 0.16623349E+00 0.28365704E+04</pdfrwt>
<totfact> 0.83767131E-01</totfact>
</mgrwt>
</event>
<event>
 6    1  0.1001928E-005  0.5981371E+04  0.7818608E-02  0.7692716E-01
         -2   -1    0    0    0  501 -0.00000000000E+00  0.00000000000E+00  0.29282160438E+04  0.29282160438E+04  0.00000000000E+00 0.  1.
          2   -1    0    0  501    0  0.00000000000E+00 -0.00000000000E+00 -0.30544877563E+04  0.30544877563E+04  0.00000000000E+00 0. -1.
         23    2    1    2    0    0 -0.66423374243E+03 -0.13087601722E+04 -0.26687263866E+04  0.30470377049E+04  0.90986787461E+02 0.  0.
         13    1    3    3    0    0 -0.35576088883E+03 -0.61324983595E+03 -0.13332299391E+04  0.15100143185E+04  0.00000000000E+00 0. -1.
        -13    1    3    3    0    0 -0.30847285360E+03 -0.69551033625E+03 -0.13354964475E+04  0.15370233864E+04  0.00000000000E+00 0.  1.
         22    1    1    2    0    0  0.66423374243E+03  0.13087601722E+04  0.25424546741E+04  0.29356660952E+04  0.00000000000E+00 0.  1.
<mgrwt>
<rscale>  0 0.59813711E+04</rscale>
<asrwt>0</asrwt>
<pdfrwt beam="1">  1        2 0.46992119E+00 0.59813711E+04</pdfrwt>
<pdfrwt beam="2">  1       -2 0.45049478E+00 0.59813711E+04</pdfrwt>
<totfact> 0.37514287E-03</totfact>
</mgrwt>
</event>
<event>
 6    1  0.1001928E-005  0.1053570E+04  0.7818608E-02  0.9251666E-01
          1   -1    0    0  501    0  0.00000000000E+00  0.00000000000E+00  0.18795440474E+03  0.18795440474E+03  0.00000000000E+00 0. -1.
         -1   -1    0    0    0  501 -0.00000000000E+00 -0.00000000000E+00 -0.14764355941E+04  0.14764355941E+04  0.00000000000E+00 0.  1.
         23    2    1    2    0    0 -0.34450348638E+03  0.39587939545E+02 -0.30829327036E+02  0.35980651593E+03  0.90886877020E+02 0.  0.
         13    1    3    3    0    0 -0.71703301279E+02  0.46732745441E+02 -0.69120516939E+01  0.85866695345E+02  0.00000000000E+00 0. -1.
        -13    1    3    3    0    0 -0.27280018510E+03 -0.71448058957E+01 -0.23917275342E+02  0.27393982059E+03  0.00000000000E+00 0.  1.
         22    1    1    2    0    0  0.34450348638E+03 -0.39587939545E+02 -0.12576518623E+04  0.13045834829E+04  0.00000000000E+00 0.  1.
<mgrwt>
<rscale>  0 0.10535703E+04</rscale>
<asrwt>0</asrwt>
<pdfrwt beam="1">  1        1 0.28916064E-01 0.10535703E+04</pdfrwt>
<pdfrwt beam="2">  1       -1 0.22714393E+00 0.10535703E+04</pdfrwt>
<totfact> 0.15948710E+01</totfact>
</mgrwt>
</event>
<event>
 6    1  0.1001928E-005  0.1787783E+04  0.7818608E-02  0.8712823E-01
         -2   -1    0    0    0  501 -0.00000000000E+00  0.00000000000E+00  0.42428262129E+03  0.42428262129E+03  0.00000000000E+00 0.  1.
          2   -1    0    0  501    0  0.00000000000E+00 -0.00000000000E+00 -0.18832783243E+04  0.18832783243E+04  0.00000000000E+00 0. -1.
         23    2    1    2    0    0  0.65912279314E+03  0.60412613296E+02  0.39691548950E+02  0.66922153647E+03  0.90495886786E+02 0.  0.
         11    1    3    3    0    0  0.83725017222E+02  0.34408754381E+01  0.35472987290E+02  0.90994785344E+02  0.00000000000E+00 0.  1.
        -11    1    3    3    0    0  0.57539777592E+03  0.56971737858E+02  0.42185616604E+01  0.57822675112E+03  0.00000000000E+00 0. -1.
         22    1    1    2    0    0 -0.65912279314E+03 -0.60412613296E+02 -0.14986872519E+04  0.16383394091E+04  0.00000000000E+00 0. -1.
<mgrwt>
<rscale>  0 0.17877833E+04</rscale>
<asrwt>0</asrwt>
<pdfrwt beam="1">  1        2 0.28973513E+00 0.17877833E+04</pdfrwt>
<pdfrwt beam="2">  1       -2 0.65274249E-01 0.17877833E+04</pdfrwt>
<totfact> 0.15858431E+01</totfact>
</mgrwt>
</event>
<event>
 6    1  0.1001928E-005  0.1020005E+04  0.7818608E-02  0.9286872E-01
          1   -1    0    0  501    0  0.00000000000E+00  0.00000000000E+00  0.10438062453E+04  0.10438062453E+04  0.00000000000E+00 0. -1.
         -1   -1    0    0    0  501 -0.00000000000E+00 -0.00000000000E+00 -0.24918638767E+03  0.24918638767E+03  0.00000000000E+00 0.  1.
         23    2    1    2    0    0  0.26024579282E+03 -0.38018048858E+03  0.66587809111E+03  0.81462089571E+03  0.89154331998E+02 0.  0.
         11    1    3    3    0    0  0.11019313260E+03 -0.10167777192E+03  0.17277192744E+03  0.22875977506E+03  0.00000000000E+00 0. -1.
        -11    1    3    3    0    0  0.15005266022E+03 -0.27850271666E+03  0.49310616368E+03  0.58586112064E+03  0.00000000000E+00 0.  1.
         22    1    1    2    0    0 -0.26024579282E+03  0.38018048858E+03  0.12874176654E+03  0.47837173728E+03  0.00000000000E+00 0. -1.
<mgrwt>
<rscale>  0 0.10200045E+04</rscale>
<asrwt>0</asrwt>
<pdfrwt beam="1">  1        1 0.16058557E+00 0.10200045E+04</pdfrwt>
<pdfrwt beam="2">  1       -1 0.38336368E-01 0.10200045E+04</pdfrwt>
<totfact> 0.92141374E+01</totfact>
</mgrwt>
</event>
<event>
 6    1  0.1001928E-005  0.1006416E+04  0.7818608E-02  0.9301536E-01
         -2   -1    0    0    0  501 -0.00000000000E+00  0.00000000000E+00  0.29208486826E+03  0.29208486826E+03  0.00000000000E+00 0.  1.
          2   -1    0    0  501    0  0.00000000000E+00 -0.00000000000E+00 -0.86693384277E+03  0.86693384277E+03  0.00000000000E+00 0. -1.
         23    2    1    2    0    0  0.44991043090E+03  0.49878609060E+02 -0.53177382877E+03  0.70430700055E+03  0.91420318216E+02 0.  0.
         13    1    3    3    0    0  0.30241849562E+03  0.53057942728E+02 -0.29798708412E+03  0.42786492505E+03  0.00000000000E+00 0.  1.
        -13    1    3    3    0    0  0.14749193527E+03 -0.31793336675E+01 -0.23378674465E+03  0.27644207550E+03  0.00000000000E+00 0. -1.
         22    1    1    2    0    0 -0.44991043090E+03 -0.49878609060E+02 -0.43075145741E+02  0.45471171048E+03  0.00000000000E+00 0.  1.
<mgrwt>
<rscale>  0 0.10064159E+04</rscale>
<asrwt>0</asrwt>
<pdfrwt beam="1">  1        2 0.13337444E+00 0.10064159E+04</pdfrwt>
<pdfrwt beam="2">  1       -2 0.44936134E-01 0.10064159E+04</pdfrwt>
<totfact> 0.14473494E+02</totfact>
</mgrwt>
</event>
<event>
 6    1  0.1001928E-005  0.3258880E+04  0.7818608E-02  0.8173438E-01
          2   -1    0    0  501    0  0.00000000000E+00  0.00000000000E+00  0.98922156396E+03  0.98922156396E+03  0.00000000000E+00 0. -1.
         -2   -1    0    0    0  501 -0.00000000000E+00 -0.00000000000E+00 -0.26840048703E+04  0.26840048703E+04  0.00000000000E+00 0.  1.
         23    2    1    2    0    0 -0.65441855377E+03  0.12530628967E+04  0.62343401792E+02  0.14180269896E+04  0.92106335489E+02 0.  0.
         13    1    3    3    0    0 -0.23886670306E+03  0.46164894083E+03  0.67374966031E+02  0.52413398330E+03  0.00000000000E+00 0. -1.
        -13    1    3    3    0    0 -0.41555185071E+03  0.79141395586E+03 -0.50315642392E+01  0.89389300635E+03  0.00000000000E+00 0.  1.
         22    1    1    2    0    0  0.65441855377E+03 -0.12530628967E+04 -0.17571267081E+04  0.22551994446E+04  0.00000000000E+00 0.  1.
<mgrwt>
<rscale>  0 0.32588805E+04</rscale>
<asrwt>0</asrwt>
<pdfrwt beam="1">  1        2 0.15218794E+00 0.32588805E+04</pdfrwt>
<pdfrwt beam="2">  1       -2 0.41292382E+00 0.32588805E+04</pdfrwt>
<totfact> 0.13081328E-01</totfact>
</mgrwt>
</event>
<event>
 6    1  0.1001928E-005  0.5195820E+04  0.7818608E-02  0.7798990E-01
         -2   -1    0    0    0  501 -0.00000000000E+00  0.00000000000E+00  0.18068218700E+04  0.18068218700E+04  0.00000000000E+00 0.  1.
          2   -1    0    0  501    0  0.00000000000E+00 -0.00000000000E+00 -0.37353640711E+04  0.37353640711E+04  0.00000000000E+00 0. -1.
         23    2    1    2    0    0 -0.21307184992E+04 -0.12134196331E+04 -0.52090480360E+02  0.24545623259E+04  0.99066971501E+02 0.  0.
         13    1    3    3    0    0 -0.13665954282E+04 -0.82069911808E+03 -0.63401240731E+02  0.15953525705E+04  0.00000000000E+00 0. -1.
        -13    1    3    3    0    0 -0.76412307095E+03 -0.39272051505E+03  0.11310760371E+02  0.85920975541E+03  0.00000000000E+00 0.  1.
         22    1    1    2    0    0  0.21307184992E+04  0.12134196331E+04 -0.18764517207E+04  0.30876236152E+04  0.00000000000E+00 0.  1.
<mgrwt>
<rscale>  0 0.51958204E+04</rscale>
<asrwt>0</asrwt>
<pdfrwt beam="1">  1        2 0.57467139E+00 0.51958204E+04</pdfrwt>
<pdfrwt beam="2">  1       -2 0.27797260E+00 0.51958204E+04</pdfrwt>
<totfact> 0.17011257E-02</totfact>
</mgrwt>
</event>
<event>
 6    1  0.1001928E-005  0.2847579E+04  0.7818608E-02  0.8288647E-01
          1   -1    0    0  501    0  0.00000000000E+00  0.00000000000E+00  0.12622475153E+04  0.12622475153E+04  0.00000000000E+00 0. -1.
         -1   -1    0    0    0  501 -0.00000000000E+00 -0.00000000000E+00 -0.16060052172E+04  0.16060052172E+04  0.00000000000E+00 0.  1.
         23    2    1    2    0    0 -0.11348313683E+04  0.74367563396E+03  0.25695662241E+03  0.13844220877E+04  0.98499380696E+02 0.  0.
         13    1    3    3    0    0 -0.59100704480E+03  0.44016629541E+03  0.16091176516E+03  0.75427335283E+03  0.00000000000E+00 0. -1.
        -13    1    3    3    0    0 -0.54382432350E+03  0.30350933855E+03  0.96044857258E+02  0.63014873484E+03  0.00000000000E+00 0.  1.
         22    1    1    2    0    0  0.11348313683E+04 -0.74367563396E+03 -0.60071432430E+03  0.14838306448E+04  0.00000000000E+00 0. -1.
<mgrwt>
<rscale>  0 0.28475787E+04</rscale>
<asrwt>0</asrwt>
<pdfrwt beam="1">  1        1 0.19419192E+00 0.28475787E+04</pdfrwt>
<pdfrwt beam="2">  1       -1 0.24707773E+00 0.28475787E+04</pdfrwt>
<totfact> 0.60484074E-01</totfact>
</mgrwt>
</event>
<event>
 6    1  0.1001928E-005  0.2199594E+04  0.7818608E-02  0.8518597E-01
         -1   -1    0    0    0  501 -0.00000000000E+00  0.00000000000E+00  0.58439737938E+03  0.58439737938E+03  0.00000000000E+00 0.  1.
          1   -1    0    0  501    0  0.00000000000E+00 -0.00000000000E+00 -0.20697442483E+04  0.20697442483E+04  0.00000000000E+00 0. -1.
         23    2    1    2    0    0  0.59703992378E+03 -0.74607181526E+03 -0.91937905906E+02  0.96456524223E+03  0.94094122360E+02 0.  0.
         11    1    3    3    0    0  0.49133213373E+03 -0.65612588011E+03 -0.98600346660E+02  0.82560914756E+03  0.00000000000E+00 0.  1.
        -11    1    3    3    0    0  0.10570779005E+03 -0.89945935157E+02  0.66624407541E+01  0.13895609467E+03  0.00000000000E+00 0. -1.
         22    1    1    2    0    0 -0.59703992378E+03  0.74607181526E+03 -0.13934089630E+04  0.16895763855E+04  0.00000000000E+00 0. -1.
<mgrwt>
<rscale>  0 0.21995937E+04</rscale>
<asrwt>0</asrwt>
<pdfrwt beam="1">  1        1 0.31842219E+00 0.21995937E+04</pdfrwt>
<pdfrwt beam="2">  1       -1 0.89907290E-01 0.21995937E+04</pdfrwt>
<totfact> 0.29490613E+00</totfact>
</mgrwt>
</event>
<event>
 6    1  0.1001928E-005  0.1856775E+04  0.7818608E-02  0.8676677E-01
          2   -1    0    0  501    0  0.00000000000E+00  0.00000000000E+00  0.17295553208E+04  0.17295553208E+04  0.00000000000E+00 0. -1.
         -2   -1    0    0    0  501 -0.00000000000E+00 -0.00000000000E+00 -0.49833800576E+03  0.49833800576E+03  0.00000000000E+00 0.  1.
         23    2    1    2    0    0 -0.30116793772E+03 -0.63429569398E+03  0.13418988363E+04  0.15170603270E+04  0.88013606172E+02 0.  0.
         13    1    3    3    0    0 -0.10564206692E+03 -0.29936033304E+03  0.54267349651E+03  0.62870611507E+03  0.00000000000E+00 0. -1.
        -13    1    3    3    0    0 -0.19552587080E+03 -0.33493536094E+03  0.79922533978E+03  0.88835421196E+03  0.00000000000E+00 0.  1.
         22    1    1    2    0    0  0.30116793772E+03  0.63429569398E+03 -0.11068152123E+03  0.71083299956E+03  0.00000000000E+00 0.  1.
<mgrwt>
<rscale>  0 0.18567748E+04</rscale>
<asrwt>0</asrwt>
<pdfrwt beam="1">  1        2 0.26608543E+00 0.18567748E+04</pdfrwt>
<pdfrwt beam="2">  1       -2 0.76667386E-01 0.18567748E+04</pdfrwt>
<totfact> 0.13492457E+01</totfact>
</mgrwt>
</event>
<event>
 6    1  0.1001928E-005  0.2531247E+04  0.7818608E-02  0.8391938E-01
          2   -1    0    0  501    0  0.00000000000E+00  0.00000000000E+00  0.33452920668E+04  0.33452920668E+04  0.00000000000E+00 0. -1.
         -2   -1    0    0    0  501 -0.00000000000E+00 -0.00000000000E+00 -0.47882288611E+03  0.47882288611E+03  0.00000000000E+00 0.  1.
         23    2    1    2    0    0  0.68071232555E+02  0.35558429408E+03  0.32646772403E+04  0.32859295373E+04  0.90230581681E+02 0.  0.
         13    1    3    3    0    0  0.74486091134E+02  0.17171230599E+03  0.14780296490E+04  0.14898338622E+04  0.00000000000E+00 0.  1.
        -13    1    3    3    0    0 -0.64148585781E+01  0.18387198809E+03  0.17866475913E+04  0.17960956751E+04  0.00000000000E+00 0. -1.
         22    1    1    2    0    0 -0.68071232555E+02 -0.35558429408E+03 -0.39820805957E+03  0.53818541564E+03  0.00000000000E+00 0.  1.
<mgrwt>
<rscale>  0 0.25312467E+04</rscale>
<asrwt>0</asrwt>
<pdfrwt beam="1">  1        2 0.51466030E+00 0.25312467E+04</pdfrwt>
<pdfrwt beam="2">  1       -2 0.73665061E-01 0.25312467E+04</pdfrwt>
<totfact> 0.15362141E+00</totfact>
</mgrwt>
</event>
<event>
 6    1  0.1001928E-005  0.4517251E+04  0.7818608E-02  0.7907624E-01
         -2   -1    0    0    0  501 -0.00000000000E+00  0.00000000000E+00  0.18964170666E+04  0.18964170666E+04  0.00000000000E+00 0.  1.
          2   -1    0    0  501    0  0.00000000000E+00 -0.00000000000E+00 -0.26900144834E+04  0.26900144834E+04  0.00000000000E+00 0. -1.
         23    2    1    2    0    0  0.21793932826E+04 -0.23390071054E+03  0.15230096005E+03  0.21991342576E+04  0.92364916805E+02 0.  0.
         13    1    3    3    0    0  0.15050030712E+04 -0.13668096611E+03  0.69962460956E+02  0.15128154800E+04  0.00000000000E+00 0. -1.
        -13    1    3    3    0    0  0.67439021146E+03 -0.97219744429E+02  0.82338499097E+02  0.68631877757E+03  0.00000000000E+00 0.  1.
         22    1    1    2    0    0 -0.21793932826E+04  0.23390071054E+03 -0.94589837687E+03  0.23872972924E+04  0.00000000000E+00 0. -1.
<mgrwt>
<rscale>  0 0.45172511E+04</rscale>
<asrwt>0</asrwt>
<pdfrwt beam="1">  1        2 0.41384838E+00 0.45172511E+04</pdfrwt>
<pdfrwt beam="2">  1       -2 0.29175647E+00 0.45172511E+04</pdfrwt>
<totfact> 0.72706937E-02</totfact>
</mgrwt>
</event>
<event>
 6    1  0.1001928E-005  0.2711682E+04  0.7818608E-02  0.8331225E-01
         -1   -1    0    0    0  501 -0.00000000000E+00  0.00000000000E+00  0.83393019009E+03  0.83393019009E+03  0.00000000000E+00 0.  1.
          1   -1    0    0  501    0  0.00000000000E+00 -0.00000000000E+00 -0.22043864993E+04  0.22043864993E+04  0.00000000000E+00 0. -1.
         23    2    1    2    0    0  0.95091352670E+03  0.38493824651E+03 -0.16766776031E+04  0.19677161711E+04  0.90802843889E+02 0.  0.
         13    1    3    3    0    0  0.46054290469E+03  0.13771247746E+03 -0.77578588224E+03  0.91263806001E+03  0.00000000000E+00 0.  1.
        -13    1    3    3    0    0  0.49037062201E+03  0.24722576905E+03 -0.90089172082E+03  0.10550781111E+04  0.00000000000E+00 0. -1.
         22    1    1    2    0    0 -0.95091352670E+03 -0.38493824651E+03  0.30622129389E+03  0.10706005183E+04  0.00000000000E+00 0.  1.
<mgrwt>
<rscale>  0 0.27116817E+04</rscale>
<asrwt>0</asrwt>
<pdfrwt beam="1">  1        1 0.33913638E+00 0.27116817E+04</pdfrwt>
<pdfrwt beam="2">  1       -1 0.12829695E+00 0.27116817E+04</pdfrwt>
<totfact> 0.98922940E-01</totfact>
</mgrwt>
</event>
<event>
 6    1  0.1001928E-005  0.1924111E+04  0.7818608E-02  0.8642947E-01
         -2   -1    0    0    0  501 -0.00000000000E+00  0.00000000000E+00  0.10083656527E+04  0.10083656527E+04  0.00000000000E+00 0.  1.
          2   -1    0    0  501    0  0.00000000000E+00 -0.00000000000E+00 -0.91787232437E+03  0.91787232437E+03  0.00000000000E+00 0. -1.
         23    2    1    2    0    0 -0.29513203012E+03  0.42774161608E+03  0.85326987840E+03  0.10032570072E+04  0.91593295566E+02 0.  0.
         13    1    3    3    0    0 -0.70459087516E+02  0.17843566583E+03  0.32499258584E+03  0.37739097857E+03  0.00000000000E+00 0. -1.
        -13    1    3    3    0    0 -0.22467294260E+03  0.24930595026E+03  0.52827729256E+03  0.62586602864E+03  0.00000000000E+00 0.  1.
         22    1    1    2    0    0  0.29513203012E+03 -0.42774161608E+03 -0.76277655009E+03  0.92298096984E+03  0.00000000000E+00 0. -1.
<mgrwt>
<rscale>  0 0.19241111E+04</rscale>
<asrwt>0</asrwt>
<pdfrwt beam="1">  1        2 0.14121113E+00 0.19241111E+04</pdfrwt>
<pdfrwt beam="2">  1       -2 0.15513318E+00 0.19241111E+04</pdfrwt>
<totfact> 0.72997626E+00</totfact>
</mgrwt>
</event>
<event>
 6    1  0.1001928E-005  0.2101649E+04  0.7818608E-02  0.8560517E-01
         -2   -1    0    0    0  501 -0.00000000000E+00  0.00000000000E+00  0.95645082721E+03  0.95645082721E+03  0.00000000000E+00 0.  1.
          2   -1    0    0  501    0  0.00000000000E+00 -0.00000000000E+00 -0.11545099279E+04  0.11545099279E+04  0.00000000000E+00 0. -1.
         23    2    1    2    0    0  0.25891201621E+02  0.70121416512E+03 -0.88224203487E+03  0.11309209870E+04  0.90882402908E+02 0.  0.
         13    1    3    3    0    0 -0.35254017532E+01  0.50451416497E+03 -0.57547417243E+03  0.76532182397E+03  0.00000000000E+00 0.  1.
        -13    1    3    3    0    0  0.29416603374E+02  0.19670000015E+03 -0.30676786244E+03  0.36559916307E+03  0.00000000000E+00 0. -1.
         22    1    1    2    0    0 -0.25891201621E+02 -0.70121416512E+03  0.68418293414E+03  0.98003976810E+03  0.00000000000E+00 0.  1.
<mgrwt>
<rscale>  0 0.21016489E+04</rscale>
<asrwt>0</asrwt>
<pdfrwt beam="1">  1        2 0.17761691E+00 0.21016489E+04</pdfrwt>
<pdfrwt beam="2">  1       -2 0.14714628E+00 0.21016489E+04</pdfrwt>
<totfact> 0.58605413E+00</totfact>
</mgrwt>
</event>
<event>
 6    1  0.1001928E-005  0.1539228E+04  0.7818608E-02  0.8858778E-01
          2   -1    0    0  501    0  0.00000000000E+00  0.00000000000E+00  0.14535104251E+04  0.14535104251E+04  0.00000000000E+00 0. -1.
         -2   -1    0    0    0  501 -0.00000000000E+00 -0.00000000000E+00 -0.40749991750E+03  0.40749991750E+03  0.00000000000E+00 0.  1.
         23    2    1    2    0    0  0.33259441401E+03  0.62581734695E+03  0.87911730168E+03  0.11329171218E+04  0.91583725799E+02 0.  0.
         13    1    3    3    0    0  0.25957353178E+03  0.44332472324E+03  0.57777946229E+03  0.77313927315E+03  0.00000000000E+00 0. -1.
        -13    1    3    3    0    0  0.73020882238E+02  0.18249262370E+03  0.30133783940E+03  0.35977784868E+03  0.00000000000E+00 0.  1.
         22    1    1    2    0    0 -0.33259441401E+03 -0.62581734695E+03  0.16689320593E+03  0.72809322079E+03  0.00000000000E+00 0.  1.
<mgrwt>
<rscale>  0 0.15392276E+04</rscale>
<asrwt>0</asrwt>
<pdfrwt beam="1">  1        2 0.22361699E+00 0.15392276E+04</pdfrwt>
<pdfrwt beam="2">  1       -2 0.62692296E-01 0.15392276E+04</pdfrwt>
<totfact> 0.30650438E+01</totfact>
</mgrwt>
</event>
<event>
 6    1  0.1001928E-005  0.1172386E+04  0.7818608E-02  0.9137376E-01
         -2   -1    0    0    0  501 -0.00000000000E+00  0.00000000000E+00  0.24631934243E+03  0.24631934243E+03  0.00000000000E+00 0.  1.
          2   -1    0    0  501    0  0.00000000000E+00 -0.00000000000E+00 -0.13950274781E+04  0.13950274781E+04  0.00000000000E+00 0. -1.
         23    2    1    2    0    0 -0.29761900018E+03  0.15427037525E+03 -0.12450743424E+04  0.12925447796E+04  0.89919248363E+02 0.  0.
         13    1    3    3    0    0 -0.87101373101E+02  0.85217927006E+02 -0.53535452162E+03  0.54904754630E+03  0.00000000000E+00 0. -1.
        -13    1    3    3    0    0 -0.21051762708E+03  0.69052448249E+02 -0.70971982075E+03  0.74349723327E+03  0.00000000000E+00 0.  1.
         22    1    1    2    0    0  0.29761900018E+03 -0.15427037525E+03  0.96366206729E+02  0.34880204092E+03  0.00000000000E+00 0.  1.
<mgrwt>
<rscale>  0 0.11723860E+04</rscale>
<asrwt>0</asrwt>
<pdfrwt beam="1">  1        2 0.21461961E+00 0.11723860E+04</pdfrwt>
<pdfrwt beam="2">  1       -2 0.37895283E-01 0.11723860E+04</pdfrwt>
<totfact> 0.94560589E+01</totfact>
</mgrwt>
</event>
<event>
 6    1  0.1001928E-005  0.3448954E+04  0.7818608E-02  0.8125995E-01
          2   -1    0    0  501    0  0.00000000000E+00  0.00000000000E+00  0.11840208938E+04  0.11840208938E+04  0.00000000000E+00 0. -1.
         -2   -1    0    0    0  501 -0.00000000000E+00 -0.00000000000E+00 -0.25116282324E+04  0.25116282324E+04  0.00000000000E+00 0.  1.
         23    2    1    2    0    0 -0.15430840862E+04  0.38353076641E+03 -0.13762277214E+04  0.21048731245E+04  0.91015291368E+02 0.  0.
         11    1    3    3    0    0 -0.12876441057E+04  0.29061845658E+03 -0.11657349712E+04  0.17610861572E+04  0.00000000000E+00 0. -1.
        -11    1    3    3    0    0 -0.25543998057E+03  0.92912309826E+02 -0.21049275018E+03  0.34378696727E+03  0.00000000000E+00 0.  1.
         22    1    1    2    0    0  0.15430840862E+04 -0.38353076641E+03  0.48620382818E+02  0.15907760017E+04  0.00000000000E+00 0. -1.
<mgrwt>
<rscale>  0 0.34489536E+04</rscale>
<asrwt>0</asrwt>
<pdfrwt beam="1">  1        2 0.18215706E+00 0.34489536E+04</pdfrwt>
<pdfrwt beam="2">  1       -2 0.38640434E+00 0.34489536E+04</pdfrwt>
<totfact> 0.14530513E-01</totfact>
</mgrwt>
</event>
<event>
 6    1  0.1001928E-005  0.4357096E+04  0.7818608E-02  0.7936144E-01
         -1   -1    0    0    0  501 -0.00000000000E+00  0.00000000000E+00  0.24487124836E+04  0.24487124836E+04  0.00000000000E+00 0.  1.
          1   -1    0    0  501    0  0.00000000000E+00 -0.00000000000E+00 -0.19381901889E+04  0.19381901889E+04  0.00000000000E+00 0. -1.
         23    2    1    2    0    0 -0.56915164543E+03 -0.14729773786E+04 -0.12543954835E+04  0.20186690021E+04  0.88997516518E+02 0.  0.
         11    1    3    3    0    0 -0.53076415317E+03 -0.12981873878E+04 -0.11215719515E+04  0.17958075405E+04  0.00000000000E+00 0. -1.
        -11    1    3    3    0    0 -0.38387492257E+02 -0.17478999077E+03 -0.13282353202E+03  0.22286146166E+03  0.00000000000E+00 0.  1.
         22    1    1    2    0    0  0.56915164543E+03  0.14729773786E+04  0.17649177782E+04  0.23682336703E+04  0.00000000000E+00 0.  1.
<mgrwt>
<rscale>  0 0.43570956E+04</rscale>
<asrwt>0</asrwt>
<pdfrwt beam="1">  1        1 0.29818311E+00 0.43570956E+04</pdfrwt>
<pdfrwt beam="2">  1       -1 0.37672500E+00 0.43570956E+04</pdfrwt>
<totfact> 0.25680852E-02</totfact>
</mgrwt>
</event>
<event>
 6    1  0.1001928E-005  0.2697726E+04  0.7818608E-02  0.8335743E-01
          2   -1    0    0  501    0  0.00000000000E+00  0.00000000000E+00  0.19438773289E+04  0.19438773289E+04  0.00000000000E+00 0. -1.
         -2   -1    0    0    0  501 -0.00000000000E+00 -0.00000000000E+00 -0.93598030150E+03  0.93598030150E+03  0.00000000000E+00 0.  1.
         23    2    1    2    0    0 -0.81427054145E+03 -0.10599147249E+04  0.32343050946E+03  0.13782084860E+04  0.91627494501E+02 0.  0.
         11    1    3    3    0    0 -0.45074784812E+03 -0.58797505923E+03  0.22604160308E+03  0.77458575974E+03  0.00000000000E+00 0. -1.
        -11    1    3    3    0    0 -0.36352269333E+03 -0.47193966565E+03  0.97388906374E+02  0.60362272626E+03  0.00000000000E+00 0.  1.
         22    1    1    2    0    0  0.81427054145E+03  0.10599147249E+04  0.68446651796E+03  0.15016491444E+04  0.00000000000E+00 0. -1.
<mgrwt>
<rscale>  0 0.26977256E+04</rscale>
<asrwt>0</asrwt>
<pdfrwt beam="1">  1        2 0.29905805E+00 0.26977256E+04</pdfrwt>
<pdfrwt beam="2">  1       -2 0.14399697E+00 0.26977256E+04</pdfrwt>
<totfact> 0.21022824E+00</totfact>
</mgrwt>
</event>
<event>
 6    1  0.1001928E-005  0.2232396E+04  0.7818608E-02  0.8505064E-01
          2   -1    0    0  501    0  0.00000000000E+00  0.00000000000E+00  0.21996652107E+04  0.21996652107E+04  0.00000000000E+00 0. -1.
         -2   -1    0    0    0  501 -0.00000000000E+00 -0.00000000000E+00 -0.56640329657E+03  0.56640329657E+03  0.00000000000E+00 0.  1.
         23    2    1    2    0    0  0.54317617893E+03 -0.63537026836E+03 -0.95107193281E+02  0.84617384592E+03  0.90714166625E+02 0.  0.
         13    1    3    3    0    0  0.21019620081E+03 -0.23132923530E+03  0.74628036722E+01  0.31265212518E+03  0.00000000000E+00 0. -1.
        -13    1    3    3    0    0  0.33297997811E+03 -0.40404103306E+03 -0.10256999695E+03  0.53352172073E+03  0.00000000000E+00 0.  1.
         22    1    1    2    0    0 -0.54317617893E+03  0.63537026836E+03  0.17283691074E+04  0.19198946614E+04  0.00000000000E+00 0. -1.
<mgrwt>
<rscale>  0 0.22323957E+04</rscale>
<asrwt>0</asrwt>
<pdfrwt beam="1">  1        2 0.33841003E+00 0.22323957E+04</pdfrwt>
<pdfrwt beam="2">  1       -2 0.87138970E-01 0.22323957E+04</pdfrwt>
<totfact> 0.53604045E+00</totfact>
</mgrwt>
</event>
<event>
 6    1  0.1001928E-005  0.8769838E+03  0.7818608E-02  0.9454819E-01
         -1   -1    0    0    0  501 -0.00000000000E+00  0.00000000000E+00  0.16434329295E+03  0.16434329295E+03  0.00000000000E+00 0.  1.
          1   -1    0    0  501    0  0.00000000000E+00 -0.00000000000E+00 -0.11699603395E+04  0.11699603395E+04  0.00000000000E+00 0. -1.
         23    2    1    2    0    0 -0.34912328358E+02 -0.42679853691E+03 -0.40187417096E+03  0.59411357469E+03  0.89956815041E+02 0.  0.
         13    1    3    3    0    0 -0.44307197447E+02 -0.18845397166E+03 -0.13407326947E+03  0.23548602669E+03  0.00000000000E+00 0. -1.
        -13    1    3    3    0    0  0.93948690888E+01 -0.23834456525E+03 -0.26780090149E+03  0.35862754800E+03  0.00000000000E+00 0.  1.
         22    1    1    2    0    0  0.34912328358E+02  0.42679853691E+03 -0.60374287560E+03  0.74019005777E+03  0.00000000000E+00 0.  1.
<mgrwt>
<rscale>  0 0.87698377E+03</rscale>
<asrwt>0</asrwt>
<pdfrwt beam="1">  1        1 0.17999390E+00 0.87698377E+03</pdfrwt>
<pdfrwt beam="2">  1       -1 0.25283583E-01 0.87698377E+03</pdfrwt>
<totfact> 0.15562425E+02</totfact>
</mgrwt>
</event>
<event>
 6    1  0.1001928E-005  0.8993868E+03  0.7818608E-02  0.9426348E-01
          2   -1    0    0  501    0  0.00000000000E+00  0.00000000000E+00  0.46848962913E+03  0.46848962913E+03  0.00000000000E+00 0. -1.
         -2   -1    0    0    0  501 -0.00000000000E+00 -0.00000000000E+00 -0.43165131275E+03  0.43165131275E+03  0.00000000000E+00 0.  1.
         23    2    1    2    0    0  0.25466315964E+03  0.17724956231E+02 -0.34630639285E+03  0.43974180291E+03  0.90979319372E+02 0.  0.
         13    1    3    3    0    0  0.14836740622E+03  0.35993089263E+02 -0.26040454785E+03  0.30185910330E+03  0.00000000000E+00 0.  1.
        -13    1    3    3    0    0  0.10629575342E+03 -0.18268133032E+02 -0.85901844993E+02  0.13788269961E+03  0.00000000000E+00 0. -1.
         22    1    1    2    0    0 -0.25466315964E+03 -0.17724956231E+02  0.38314470922E+03  0.46039913896E+03  0.00000000000E+00 0. -1.
<mgrwt>
<rscale>  0 0.89938682E+03</rscale>
<asrwt>0</asrwt>
<pdfrwt beam="1">  1        2 0.72075328E-01 0.89938682E+03</pdfrwt>
<pdfrwt beam="2">  1       -2 0.66407894E-01 0.89938682E+03</pdfrwt>
<totfact> 0.13898027E+02</totfact>
</mgrwt>
</event>
<event>
 6    1  0.1001928E-005  0.1968469E+04  0.7818608E-02  0.8621506E-01
         -2   -1    0    0    0  501 -0.00000000000E+00  0.00000000000E+00  0.32475156937E+03  0.32475156937E+03  0.00000000000E+00 0.  1.
          2   -1    0    0  501    0  0.00000000000E+00 -0.00000000000E+00 -0.29829489902E+04  0.29829489902E+04  0.00000000000E+00 0. -1.
         23    2    1    2    0    0 -0.55163044695E+02 -0.86394303262E+03 -0.55263256531E+03  0.10311145441E+04  0.91399812089E+02 0.  0.
         13    1    3    3    0    0 -0.59025297136E+02 -0.75516563811E+03 -0.51493990052E+03  0.91592697735E+03  0.00000000000E+00 0. -1.
        -13    1    3    3    0    0  0.38622524411E+01 -0.10877739451E+03 -0.37692664797E+02  0.11518756673E+03  0.00000000000E+00 0.  1.
         22    1    1    2    0    0  0.55163044695E+02  0.86394303262E+03 -0.21055648555E+04  0.22765860155E+04  0.00000000000E+00 0. -1.
<mgrwt>
<rscale>  0 0.19684688E+04</rscale>
<asrwt>0</asrwt>
<pdfrwt beam="1">  1        2 0.45891523E+00 0.19684688E+04</pdfrwt>
<pdfrwt beam="2">  1       -2 0.49961780E-01 0.19684688E+04</pdfrwt>
<totfact> 0.63156055E+00</totfact>
</mgrwt>
</event>
<event>
 6    1  0.1162104E-005  0.2385209E+04  0.7818608E-02  0.8445062E-01
         -1   -1    0    0    0  501 -0.00000000000E+00  0.00000000000E+00  0.91376932227E+03  0.91376932227E+03  0.00000000000E+00 0.  1.
          1   -1    0    0  501    0  0.00000000000E+00 -0.00000000000E+00 -0.15565256189E+04  0.15565256189E+04  0.00000000000E+00 0. -1.
         23    2    1    2    0    0  0.76511599231E+02 -0.44931269086E+03 -0.14613977046E+04  0.15333265992E+04  0.87585899322E+02 0.  0.
         11    1    3    3    0    0 -0.96353085787E+01 -0.18154625344E+03 -0.52444437341E+03  0.55506196241E+03  0.00000000000E+00 0.  1.
        -11    1    3    3    0    0  0.86146907809E+02 -0.26776643742E+03 -0.93695333122E+03  0.97826463680E+03  0.00000000000E+00 0. -1.
         22    1    1    2    0    0 -0.76511599231E+02  0.44931269086E+03  0.81864140799E+03  0.93696834197E+03  0.00000000000E+00 0.  1.
<mgrwt>
<rscale>  0 0.23852089E+04</rscale>
<asrwt>0</asrwt>
<pdfrwt beam="1">  1        1 0.23946548E+00 0.23852089E+04</pdfrwt>
<pdfrwt beam="2">  1       -1 0.14057990E+00 0.23852089E+04</pdfrwt>
<totfact> 0.22242352E+00</totfact>
</mgrwt>
</event>
<event>
 6    1  0.1001928E-005  0.3451498E+04  0.7818608E-02  0.8125382E-01
          2   -1    0    0  501    0  0.00000000000E+00  0.00000000000E+00  0.35594714909E+04  0.35594714909E+04  0.00000000000E+00 0. -1.
         -2   -1    0    0    0  501 -0.00000000000E+00 -0.00000000000E+00 -0.83669973149E+03  0.83669973149E+03  0.00000000000E+00 0.  1.
         23    2    1    2    0    0 -0.27940315692E+03  0.15284682600E+04  0.40935713719E+03  0.16093865949E+04  0.90942840125E+02 0.  0.
         11    1    3    3    0    0 -0.23283887479E+03  0.12494320578E+04  0.29834488554E+03  0.13054899767E+04  0.00000000000E+00 0. -1.
        -11    1    3    3    0    0 -0.46564282129E+02  0.27903620220E+03  0.11101225166E+03  0.30389661815E+03  0.00000000000E+00 0.  1.
         22    1    1    2    0    0  0.27940315692E+03 -0.15284682600E+04  0.23134146222E+04  0.27867846275E+04  0.00000000000E+00 0. -1.
<mgrwt>
<rscale>  0 0.34514976E+04</rscale>
<asrwt>0</asrwt>
<pdfrwt beam="1">  1        2 0.54761099E+00 0.34514976E+04</pdfrwt>
<pdfrwt beam="2">  1       -2 0.12872304E+00 0.34514976E+04</pdfrwt>
<totfact> 0.27067039E-01</totfact>
</mgrwt>
</event>
<event>
 6    1  0.1001928E-005  0.2106474E+04  0.7818608E-02  0.8558397E-01
          2   -1    0    0  501    0  0.00000000000E+00  0.00000000000E+00  0.14588040275E+04  0.14588040275E+04  0.00000000000E+00 0. -1.
         -2   -1    0    0    0  501 -0.00000000000E+00 -0.00000000000E+00 -0.76042301804E+03  0.76042301804E+03  0.00000000000E+00 0.  1.
         23    2    1    2    0    0  0.12961087836E+03 -0.32118068345E+03  0.13956233170E+04  0.14407009724E+04  0.88875405290E+02 0.  0.
         11    1    3    3    0    0  0.97431116139E+02 -0.23783482152E+03  0.11728273133E+04  0.12006590405E+04  0.00000000000E+00 0.  1.
        -11    1    3    3    0    0  0.32179762221E+02 -0.83345861927E+02  0.22279600373E+03  0.24004193191E+03  0.00000000000E+00 0. -1.
         22    1    1    2    0    0 -0.12961087836E+03  0.32118068345E+03 -0.69724230752E+03  0.77852607317E+03  0.00000000000E+00 0.  1.
<mgrwt>
<rscale>  0 0.21064740E+04</rscale>
<asrwt>0</asrwt>
<pdfrwt beam="1">  1        2 0.22443139E+00 0.21064740E+04</pdfrwt>
<pdfrwt beam="2">  1       -2 0.11698816E+00 0.21064740E+04</pdfrwt>
<totfact> 0.69770225E+00</totfact>
</mgrwt>
</event>
<event>
 6    1  0.1001928E-005  0.3312412E+04  0.7818608E-02  0.8159744E-01
          1   -1    0    0  501    0  0.00000000000E+00  0.00000000000E+00  0.16770603166E+04  0.16770603166E+04  0.00000000000E+00 0. -1.
         -1   -1    0    0    0  501 -0.00000000000E+00 -0.00000000000E+00 -0.16356107197E+04  0.16356107197E+04  0.00000000000E+00 0.  1.
         23    2    1    2    0    0 -0.15299751145E+04  0.21145056680E+02 -0.60983610013E+03  0.16497086124E+04  0.91473889630E+02 0.  0.
         11    1    3    3    0    0 -0.61679250035E+03  0.53099835006E+02 -0.24063914460E+03  0.66419859897E+03  0.00000000000E+00 0.  1.
        -11    1    3    3    0    0 -0.91318261410E+03 -0.31954778325E+02 -0.36919695553E+03  0.98551001341E+03  0.00000000000E+00 0. -1.
         22    1    1    2    0    0  0.15299751145E+04 -0.21145056680E+02  0.65128569700E+03  0.16629624239E+04  0.00000000000E+00 0. -1.
<mgrwt>
<rscale>  0 0.33124117E+04</rscale>
<asrwt>0</asrwt>
<pdfrwt beam="1">  1        1 0.25800928E+00 0.33124117E+04</pdfrwt>
<pdfrwt beam="2">  1       -1 0.25163242E+00 0.33124117E+04</pdfrwt>
<totfact> 0.27857910E-01</totfact>
</mgrwt>
</event>
<event>
 6    1  0.1001928E-005  0.3008640E+04  0.7818608E-02  0.8241268E-01
         -1   -1    0    0    0  501 -0.00000000000E+00  0.00000000000E+00  0.14791781498E+04  0.14791781498E+04  0.00000000000E+00 0. -1.
          1   -1    0    0  501    0  0.00000000000E+00 -0.00000000000E+00 -0.15298891551E+04  0.15298891551E+04  0.00000000000E+00 0.  1.
         23    2    1    2    0    0  0.96165288310E+03 -0.71617481949E+03 -0.93168097752E+03  0.15211860155E+04  0.91075848091E+02 0.  0.
         13    1    3    3    0    0  0.82161236543E+03 -0.62520390900E+03 -0.76263175585E+03  0.12835630105E+04  0.00000000000E+00 0. -1.
        -13    1    3    3    0    0  0.14004051768E+03 -0.90970910487E+02 -0.16904922167E+03  0.23762300497E+03  0.00000000000E+00 0.  1.
         22    1    1    2    0    0 -0.96165288310E+03  0.71617481949E+03  0.88096997223E+03  0.14878812895E+04  0.00000000000E+00 0. -1.
<mgrwt>
<rscale>  0 0.30086400E+04</rscale>
<asrwt>0</asrwt>
<pdfrwt beam="1">  1        1 0.23536756E+00 0.30086400E+04</pdfrwt>
<pdfrwt beam="2">  1       -1 0.22756587E+00 0.30086400E+04</pdfrwt>
<totfact> 0.51968118E-01</totfact>
</mgrwt>
</event>
<event>
 6    1  0.1001928E-005  0.1818970E+04  0.7818608E-02  0.8696276E-01
          1   -1    0    0  501    0  0.00000000000E+00  0.00000000000E+00  0.21829876009E+04  0.21829876009E+04  0.00000000000E+00 0. -1.
         -1   -1    0    0    0  501 -0.00000000000E+00 -0.00000000000E+00 -0.37891318394E+03  0.37891318394E+03  0.00000000000E+00 0.  1.
         23    2    1    2    0    0  0.83769575466E+02  0.63721295653E+03  0.18060004040E+04  0.19192022527E+04  0.92963078304E+02 0.  0.
         11    1    3    3    0    0  0.17370309937E+02  0.41255390690E+03  0.12264408839E+04  0.12940864328E+04  0.00000000000E+00 0.  1.
        -11    1    3    3    0    0  0.66399265529E+02  0.22465904963E+03  0.57955952010E+03  0.62511581998E+03  0.00000000000E+00 0. -1.
         22    1    1    2    0    0 -0.83769575466E+02 -0.63721295653E+03 -0.19259870401E+01  0.64269853211E+03  0.00000000000E+00 0.  1.
<mgrwt>
<rscale>  0 0.18189698E+04</rscale>
<asrwt>0</asrwt>
<pdfrwt beam="1">  1        1 0.33584424E+00 0.18189698E+04</pdfrwt>
<pdfrwt beam="2">  1       -1 0.58294337E-01 0.18189698E+04</pdfrwt>
<totfact> 0.62873121E+00</totfact>
</mgrwt>
</event>
<event>
 6    1  0.1001928E-005  0.3586345E+04  0.7818608E-02  0.8093627E-01
          3   -1    0    0  501    0  0.00000000000E+00  0.00000000000E+00  0.40739891166E+04  0.40739891166E+04  0.00000000000E+00 0. -1.
         -3   -1    0    0    0  501 -0.00000000000E+00 -0.00000000000E+00 -0.78926781201E+03  0.78926781201E+03  0.00000000000E+00 0.  1.
         23    2    1    2    0    0 -0.15199365823E+04  0.57651482495E+03  0.26637799340E+04  0.31231004002E+04  0.12432222593E+03 0.  0.
         13    1    3    3    0    0 -0.93661961614E+03  0.34910357471E+03  0.17515072442E+04  0.20166574419E+04  0.00000000000E+00 0.  1.
        -13    1    3    3    0    0 -0.58331696611E+03  0.22741125024E+03  0.91227268973E+03  0.11064429584E+04  0.00000000000E+00 0. -1.
         22    1    1    2    0    0  0.15199365823E+04 -0.57651482495E+03  0.62094137059E+03  0.17401565284E+04  0.00000000000E+00 0.  1.
<mgrwt>
<rscale>  0 0.35863455E+04</rscale>
<asrwt>0</asrwt>
<pdfrwt beam="1">  1        3 0.62676754E+00 0.35863455E+04</pdfrwt>
<pdfrwt beam="2">  1       -3 0.12142582E+00 0.35863455E+04</pdfrwt>
<totfact> 0.96209651E-04</totfact>
</mgrwt>
</event>
<event>
 6    1  0.1001928E-005  0.1794167E+04  0.7818608E-02  0.8709407E-01
          1   -1    0    0  501    0  0.00000000000E+00  0.00000000000E+00  0.66736268638E+03  0.66736268638E+03  0.00000000000E+00 0. -1.
         -1   -1    0    0    0  501 -0.00000000000E+00 -0.00000000000E+00 -0.12058794179E+04  0.12058794179E+04  0.00000000000E+00 0.  1.
         23    2    1    2    0    0 -0.71701255914E+03  0.33658994269E+03 -0.70431021231E+03  0.10639910445E+04  0.92866937707E+02 0.  0.
         13    1    3    3    0    0 -0.22970397192E+03  0.15091933452E+03 -0.21586490687E+03  0.34948278679E+03  0.00000000000E+00 0. -1.
        -13    1    3    3    0    0 -0.48730858722E+03  0.18567060817E+03 -0.48844530545E+03  0.71450825771E+03  0.00000000000E+00 0.  1.
         22    1    1    2    0    0  0.71701255914E+03 -0.33658994269E+03  0.16579348080E+03  0.80925105978E+03  0.00000000000E+00 0. -1.
<mgrwt>
<rscale>  0 0.17941671E+04</rscale>
<asrwt>0</asrwt>
<pdfrwt beam="1">  1        1 0.10267118E+00 0.17941671E+04</pdfrwt>
<pdfrwt beam="2">  1       -1 0.18551991E+00 0.17941671E+04</pdfrwt>
<totfact> 0.52531470E+00</totfact>
</mgrwt>
</event>
<event>
 6    1  0.1030637E-005  0.2695239E+04  0.7818608E-02  0.8336551E-01
         -1   -1    0    0    0  501 -0.00000000000E+00  0.00000000000E+00  0.81415573649E+03  0.81415573649E+03  0.00000000000E+00 0.  1.
          1   -1    0    0  501    0  0.00000000000E+00 -0.00000000000E+00 -0.22306277662E+04  0.22306277662E+04  0.00000000000E+00 0. -1.
         23    2    1    2    0    0  0.65513790665E+03  0.30873508487E+03 -0.19908576087E+04  0.21204232792E+04  0.90320738652E+02 0.  0.
         13    1    3    3    0    0  0.33530918622E+03  0.15908493690E+03 -0.88869063235E+03  0.96307388478E+03  0.00000000000E+00 0.  1.
        -13    1    3    3    0    0  0.31982872043E+03  0.14965014797E+03 -0.11021669763E+04  0.11573493945E+04  0.00000000000E+00 0. -1.
         22    1    1    2    0    0 -0.65513790665E+03 -0.30873508487E+03  0.57438557896E+03  0.92436022344E+03  0.00000000000E+00 0.  1.
<mgrwt>
<rscale>  0 0.26952391E+04</rscale>
<asrwt>0</asrwt>
<pdfrwt beam="1">  1        1 0.34317350E+00 0.26952391E+04</pdfrwt>
<pdfrwt beam="2">  1       -1 0.12525473E+00 0.26952391E+04</pdfrwt>
<totfact> 0.10094714E+00</totfact>
</mgrwt>
</event>
<event>
 6    1  0.1027039E-005  0.2192707E+04  0.7818608E-02  0.8521470E-01
          2   -1    0    0  501    0  0.00000000000E+00  0.00000000000E+00  0.12904705052E+04  0.12904705052E+04  0.00000000000E+00 0. -1.
         -2   -1    0    0    0  501 -0.00000000000E+00 -0.00000000000E+00 -0.93143647302E+03  0.93143647302E+03  0.00000000000E+00 0.  1.
         23    2    1    2    0    0 -0.47177336225E+03  0.94255344943E+03 -0.11891082235E+03  0.10645788509E+04  0.90615869090E+02 0.  0.
         13    1    3    3    0    0 -0.23183830337E+03  0.55250908617E+03 -0.87953267964E+02  0.60559975772E+03  0.00000000000E+00 0.  1.
        -13    1    3    3    0    0 -0.23993505889E+03  0.39004436327E+03 -0.30957554391E+02  0.45897909318E+03  0.00000000000E+00 0. -1.
         22    1    1    2    0    0  0.47177336225E+03 -0.94255344943E+03  0.47794485459E+03  0.11573281274E+04  0.00000000000E+00 0.  1.
<mgrwt>
<rscale>  0 0.21927073E+04</rscale>
<asrwt>0</asrwt>
<pdfrwt beam="1">  1        2 0.19853392E+00 0.21927073E+04</pdfrwt>
<pdfrwt beam="2">  1       -2 0.14329792E+00 0.21927073E+04</pdfrwt>
<totfact> 0.51768699E+00</totfact>
</mgrwt>
</event>
<event>
 6    1  0.1001928E-005  0.9242182E+03  0.7818608E-02  0.9395804E-01
          1   -1    0    0  501    0  0.00000000000E+00  0.00000000000E+00  0.13558307860E+04  0.13558307860E+04  0.00000000000E+00 0. -1.
         -1   -1    0    0    0  501 -0.00000000000E+00 -0.00000000000E+00 -0.15750107466E+03  0.15750107466E+03  0.00000000000E+00 0.  1.
         23    2    1    2    0    0 -0.16214641683E+02 -0.35204434045E+03  0.12698982320E+03  0.38551658848E+03  0.91096062222E+02 0.  0.
         11    1    3    3    0    0 -0.28614068947E+02 -0.69045457061E+02 -0.82739820744E+00  0.74744395578E+02  0.00000000000E+00 0. -1.
        -11    1    3    3    0    0  0.12399427264E+02 -0.28299888339E+03  0.12781722140E+03  0.31077219290E+03  0.00000000000E+00 0.  1.
         22    1    1    2    0    0  0.16214641683E+02  0.35204434045E+03  0.10713398882E+04  0.11278152722E+04  0.00000000000E+00 0. -1.
<mgrwt>
<rscale>  0 0.92421817E+03</rscale>
<asrwt>0</asrwt>
<pdfrwt beam="1">  1        1 0.20858934E+00 0.92421817E+03</pdfrwt>
<pdfrwt beam="2">  1       -1 0.24230935E-01 0.92421817E+03</pdfrwt>
<totfact> 0.12274155E+02</totfact>
</mgrwt>
</event>
<event>
 6    1  0.1001928E-005  0.3026359E+04  0.7818608E-02  0.8236244E-01
          1   -1    0    0  501    0  0.00000000000E+00  0.00000000000E+00  0.21410410379E+04  0.21410410379E+04  0.00000000000E+00 0.  1.
         -1   -1    0    0    0  501 -0.00000000000E+00 -0.00000000000E+00 -0.10694384141E+04  0.10694384141E+04  0.00000000000E+00 0. -1.
         23    2    1    2    0    0 -0.13388364467E+04 -0.69674528641E+03  0.63288325951E+03  0.16387251118E+04  0.83317145509E+02 0.  0.
         13    1    3    3    0    0 -0.59178993959E+03 -0.30489694169E+03  0.23451236801E+03  0.70581408912E+03  0.00000000000E+00 0.  1.
        -13    1    3    3    0    0 -0.74704650712E+03 -0.39184834472E+03  0.39837089150E+03  0.93291102269E+03  0.00000000000E+00 0. -1.
         22    1    1    2    0    0  0.13388364467E+04  0.69674528641E+03  0.43871936425E+03  0.15717543401E+04  0.00000000000E+00 0. -1.
<mgrwt>
<rscale>  0 0.30263586E+04</rscale>
<asrwt>0</asrwt>
<pdfrwt beam="1">  1        1 0.32939093E+00 0.30263586E+04</pdfrwt>
<pdfrwt beam="2">  1       -1 0.16452899E+00 0.30263586E+04</pdfrwt>
<totfact> 0.54817766E-01</totfact>
</mgrwt>
</event>
<event>
 6    1  0.1001928E-005  0.2875974E+04  0.7818608E-02  0.8280062E-01
          2   -1    0    0  501    0  0.00000000000E+00  0.00000000000E+00  0.26607885273E+04  0.26607885273E+04  0.00000000000E+00 0. -1.
         -2   -1    0    0    0  501 -0.00000000000E+00 -0.00000000000E+00 -0.77714076117E+03  0.77714076117E+03  0.00000000000E+00 0.  1.
         23    2    1    2    0    0  0.97215865671E+03  0.90018890196E+03  0.27922053107E+03  0.13571555704E+04  0.92057723121E+02 0.  0.
         11    1    3    3    0    0  0.51460089272E+03  0.52690861556E+03  0.18246296682E+03  0.75877500104E+03  0.00000000000E+00 0. -1.
        -11    1    3    3    0    0  0.45755776399E+03  0.37328028640E+03  0.96757564247E+02  0.59838056941E+03  0.00000000000E+00 0.  1.
         22    1    1    2    0    0 -0.97215865671E+03 -0.90018890196E+03  0.16044272351E+04  0.20807737181E+04  0.00000000000E+00 0. -1.
<mgrwt>
<rscale>  0 0.28759744E+04</rscale>
<asrwt>0</asrwt>
<pdfrwt beam="1">  1        2 0.40935208E+00 0.28759744E+04</pdfrwt>
<pdfrwt beam="2">  1       -2 0.11956012E+00 0.28759744E+04</pdfrwt>
<totfact> 0.12980072E+00</totfact>
</mgrwt>
</event>
<event>
 6    1  0.1001928E-005  0.1636218E+04  0.7818608E-02  0.8798602E-01
          2   -1    0    0  501    0  0.00000000000E+00  0.00000000000E+00  0.15921217806E+04  0.15921217806E+04  0.00000000000E+00 0. -1.
         -2   -1    0    0    0  501 -0.00000000000E+00 -0.00000000000E+00 -0.42038378600E+03  0.42038378600E+03  0.00000000000E+00 0.  1.
         23    2    1    2    0    0 -0.55084654933E+03 -0.32711021816E+02  0.13263035097E+04  0.14394502199E+04  0.91836833434E+02 0.  0.
         13    1    3    3    0    0 -0.30527594033E+03 -0.36880728037E+02  0.84278550873E+03  0.89712931151E+03  0.00000000000E+00 0. -1.
        -13    1    3    3    0    0 -0.24557060900E+03  0.41697062208E+01  0.48351800098E+03  0.54232090843E+03  0.00000000000E+00 0.  1.
         22    1    1    2    0    0  0.55084654933E+03  0.32711021816E+02 -0.15456551511E+03  0.57305534665E+03  0.00000000000E+00 0.  1.
<mgrwt>
<rscale>  0 0.16362178E+04</rscale>
<asrwt>0</asrwt>
<pdfrwt beam="1">  1        2 0.24494181E+00 0.16362178E+04</pdfrwt>
<pdfrwt beam="2">  1       -2 0.64674430E-01 0.16362178E+04</pdfrwt>
<totfact> 0.23772245E+01</totfact>
</mgrwt>
</event>
<event>
 6    1  0.1001928E-005  0.1983337E+04  0.7818608E-02  0.8614451E-01
         -1   -1    0    0    0  501 -0.00000000000E+00  0.00000000000E+00  0.58732094199E+03  0.58732094199E+03  0.00000000000E+00 0.  1.
          1   -1    0    0  501    0  0.00000000000E+00 -0.00000000000E+00 -0.16743928524E+04  0.16743928524E+04  0.00000000000E+00 0. -1.
         23    2    1    2    0    0  0.83815393758E+02 -0.64603455038E+03  0.30514833050E+03  0.72461820214E+03  0.87007900467E+02 0.  0.
         11    1    3    3    0    0  0.58289207084E+02 -0.19417875348E+03  0.69157800352E+02  0.21420976009E+03  0.00000000000E+00 0. -1.
        -11    1    3    3    0    0  0.25526186674E+02 -0.45185579690E+03  0.23599053015E+03  0.51040844205E+03  0.00000000000E+00 0.  1.
         22    1    1    2    0    0 -0.83815393758E+02  0.64603455038E+03 -0.13922202409E+04  0.15370955922E+04  0.00000000000E+00 0. -1.
<mgrwt>
<rscale>  0 0.19833366E+04</rscale>
<asrwt>0</asrwt>
<pdfrwt beam="1">  1        1 0.25759890E+00 0.19833366E+04</pdfrwt>
<pdfrwt beam="2">  1       -1 0.90357069E-01 0.19833366E+04</pdfrwt>
<totfact> 0.55189653E+00</totfact>
</mgrwt>
</event>
<event>
 6    1  0.1001928E-005  0.5392078E+04  0.7818608E-02  0.7770716E-01
          2   -1    0    0  501    0  0.00000000000E+00  0.00000000000E+00  0.25439168089E+04  0.25439168089E+04  0.00000000000E+00 0. -1.
         -2   -1    0    0    0  501 -0.00000000000E+00 -0.00000000000E+00 -0.28572574016E+04  0.28572574016E+04  0.00000000000E+00 0.  1.
         23    2    1    2    0    0 -0.18812470393E+03 -0.11285496925E+04 -0.26012143702E+04  0.28431707441E+04  0.91040470817E+02 0.  0.
         11    1    3    3    0    0 -0.66483230998E+02 -0.40490032923E+03 -0.10433602763E+04  0.11211444879E+04  0.00000000000E+00 0.  1.
        -11    1    3    3    0    0 -0.12164147293E+03 -0.72364936327E+03 -0.15578540940E+04  0.17220262562E+04  0.00000000000E+00 0. -1.
         22    1    1    2    0    0  0.18812470393E+03  0.11285496925E+04  0.22878737775E+04  0.25580034665E+04  0.00000000000E+00 0. -1.
<mgrwt>
<rscale>  0 0.53920776E+04</rscale>
<asrwt>0</asrwt>
<pdfrwt beam="1">  1        2 0.39137182E+00 0.53920776E+04</pdfrwt>
<pdfrwt beam="2">  1       -2 0.43957806E+00 0.53920776E+04</pdfrwt>
<totfact> 0.94523458E-03</totfact>
</mgrwt>
</event>
<event>
 6    1  0.1001928E-005  0.2039597E+04  0.7818608E-02  0.8588328E-01
          1   -1    0    0  501    0  0.00000000000E+00  0.00000000000E+00  0.30166351147E+04  0.30166351147E+04  0.00000000000E+00 0. -1.
         -1   -1    0    0    0  501 -0.00000000000E+00 -0.00000000000E+00 -0.34475143052E+03  0.34475143052E+03  0.00000000000E+00 0.  1.
         23    2    1    2    0    0 -0.68423950878E+03  0.74332047910E+03  0.15407920906E+04  0.18447859936E+04  0.92119790611E+02 0.  0.
         13    1    3    3    0    0 -0.53685873356E+03  0.63492830196E+03  0.12711340690E+04  0.15189249717E+04  0.00000000000E+00 0.  1.
        -13    1    3    3    0    0 -0.14738077523E+03  0.10839217714E+03  0.26965802160E+03  0.32586102189E+03  0.00000000000E+00 0. -1.
         22    1    1    2    0    0  0.68423950878E+03 -0.74332047910E+03  0.11310915936E+04  0.15166005516E+04  0.00000000000E+00 0.  1.
<mgrwt>
<rscale>  0 0.20395973E+04</rscale>
<asrwt>0</asrwt>
<pdfrwt beam="1">  1        1 0.46409769E+00 0.20395973E+04</pdfrwt>
<pdfrwt beam="2">  1       -1 0.53038684E-01 0.20395973E+04</pdfrwt>
<totfact> 0.19294698E+00</totfact>
</mgrwt>
</event>
<event>
 6    1  0.1001928E-005  0.3842930E+04  0.7818608E-02  0.8037004E-01
         -1   -1    0    0    0  501 -0.00000000000E+00  0.00000000000E+00  0.15977481507E+04  0.15977481507E+04  0.00000000000E+00 0.  1.
          1   -1    0    0  501    0  0.00000000000E+00 -0.00000000000E+00 -0.23107700668E+04  0.23107700668E+04  0.00000000000E+00 0. -1.
         23    2    1    2    0    0  0.18949984259E+04  0.18934572995E+03 -0.60803007074E+03  0.20011917831E+04  0.90538093221E+02 0.  0.
         13    1    3    3    0    0  0.47652268383E+03  0.84637255805E+02 -0.13976452186E+03  0.50375733726E+03  0.00000000000E+00 0. -1.
        -13    1    3    3    0    0  0.14184757420E+04  0.10470847414E+03 -0.46826554889E+03  0.14974344458E+04  0.00000000000E+00 0.  1.
         22    1    1    2    0    0 -0.18949984259E+04 -0.18934572995E+03 -0.10499184536E+03  0.19073264343E+04  0.00000000000E+00 0.  1.
<mgrwt>
<rscale>  0 0.38429304E+04</rscale>
<asrwt>0</asrwt>
<pdfrwt beam="1">  1        1 0.35550309E+00 0.38429304E+04</pdfrwt>
<pdfrwt beam="2">  1       -1 0.24580741E+00 0.38429304E+04</pdfrwt>
<totfact> 0.10774331E-01</totfact>
</mgrwt>
</event>
<event>
 6    1  0.1001928E-005  0.7934083E+04  0.7818608E-02  0.7488093E-01
          1   -1    0    0  501    0  0.00000000000E+00  0.00000000000E+00  0.32652525537E+04  0.32652525537E+04  0.00000000000E+00 0. -1.
         -1   -1    0    0    0  501 -0.00000000000E+00 -0.00000000000E+00 -0.48196638640E+04  0.48196638640E+04  0.00000000000E+00 0.  1.
         23    2    1    2    0    0 -0.58897392238E+03  0.23584022064E+04  0.24166881215E+04  0.34288900061E+04  0.89184915927E+02 0.  0.
         13    1    3    3    0    0 -0.19478708694E+03  0.64544067295E+03  0.63772747270E+03  0.92802586223E+03  0.00000000000E+00 0. -1.
        -13    1    3    3    0    0 -0.39418683544E+03  0.17129615334E+04  0.17789606488E+04  0.25008641439E+04  0.00000000000E+00 0.  1.
         22    1    1    2    0    0  0.58897392238E+03 -0.23584022064E+04 -0.39710994318E+04  0.46560264116E+04  0.00000000000E+00 0.  1.
<mgrwt>
<rscale>  0 0.79340834E+04</rscale>
<asrwt>0</asrwt>
<pdfrwt beam="1">  1        1 0.50234655E+00 0.79340834E+04</pdfrwt>
<pdfrwt beam="2">  1       -1 0.74148674E+00 0.79340834E+04</pdfrwt>
<totfact> 0.31236741E-05</totfact>
</mgrwt>
</event>
<event>
 6    1  0.1001928E-005  0.2709049E+04  0.7818608E-02  0.8332075E-01
          2   -1    0    0  501    0  0.00000000000E+00  0.00000000000E+00  0.14785336197E+04  0.14785336197E+04  0.00000000000E+00 0. -1.
         -2   -1    0    0    0  501 -0.00000000000E+00 -0.00000000000E+00 -0.12409168141E+04  0.12409168141E+04  0.00000000000E+00 0.  1.
         23    2    1    2    0    0  0.33369940722E+03 -0.25230981399E+03  0.14106390798E+04  0.14740602169E+04  0.89080711544E+02 0.  0.
         13    1    3    3    0    0  0.30229959568E+03 -0.18854296301E+03  0.11523041382E+04  0.12061253340E+04  0.00000000000E+00 0. -1.
        -13    1    3    3    0    0  0.31399811542E+02 -0.63766850983E+02  0.25833494159E+03  0.26793488294E+03  0.00000000000E+00 0.  1.
         22    1    1    2    0    0 -0.33369940722E+03  0.25230981399E+03 -0.11730222742E+04  0.12453902169E+04  0.00000000000E+00 0.  1.
<mgrwt>
<rscale>  0 0.27090494E+04</rscale>
<asrwt>0</asrwt>
<pdfrwt beam="1">  1        2 0.22746671E+00 0.27090494E+04</pdfrwt>
<pdfrwt beam="2">  1       -2 0.19091028E+00 0.27090494E+04</pdfrwt>
<totfact> 0.17492323E+00</totfact>
</mgrwt>
</event>
<event>
 6    1  0.1001928E-005  0.3188436E+04  0.7818608E-02  0.8191878E-01
          1   -1    0    0  501    0  0.00000000000E+00  0.00000000000E+00  0.16565597726E+04  0.16565597726E+04  0.00000000000E+00 0. -1.
         -1   -1    0    0    0  501 -0.00000000000E+00 -0.00000000000E+00 -0.15342228320E+04  0.15342228320E+04  0.00000000000E+00 0.  1.
         23    2    1    2    0    0  0.86187086379E+03 -0.11650687306E+04  0.72290903917E+03  0.16220591177E+04  0.90949269579E+02 0.  0.
         13    1    3    3    0    0  0.71910293319E+03 -0.10031009745E+04  0.64435244954E+03  0.13923040877E+04  0.00000000000E+00 0.  1.
        -13    1    3    3    0    0  0.14276793060E+03 -0.16196775610E+03  0.78556589629E+02  0.22975502997E+03  0.00000000000E+00 0. -1.
         22    1    1    2    0    0 -0.86187086379E+03  0.11650687306E+04 -0.60057209854E+03  0.15687234869E+04  0.00000000000E+00 0.  1.
<mgrwt>
<rscale>  0 0.31884365E+04</rscale>
<asrwt>0</asrwt>
<pdfrwt beam="1">  1        1 0.25485535E+00 0.31884365E+04</pdfrwt>
<pdfrwt beam="2">  1       -1 0.23603428E+00 0.31884365E+04</pdfrwt>
<totfact> 0.36799816E-01</totfact>
</mgrwt>
</event>
<event>
 6    1  0.1001928E-005  0.2224906E+04  0.7818608E-02  0.8508133E-01
         -2   -1    0    0    0  501 -0.00000000000E+00  0.00000000000E+00  0.34384588809E+03  0.34384588809E+03  0.00000000000E+00 0.  1.
          2   -1    0    0  501    0  0.00000000000E+00 -0.00000000000E+00 -0.35991451071E+04  0.35991451071E+04  0.00000000000E+00 0. -1.
         23    2    1    2    0    0  0.60382788589E+03 -0.89994412715E+03 -0.12003804309E+04  0.16198037936E+04  0.91343326068E+02 0.  0.
         13    1    3    3    0    0  0.45683786177E+03 -0.60615964681E+03 -0.83047184520E+03  0.11250839236E+04  0.00000000000E+00 0. -1.
        -13    1    3    3    0    0  0.14699002412E+03 -0.29378448034E+03 -0.36990858569E+03  0.49471987008E+03  0.00000000000E+00 0.  1.
         22    1    1    2    0    0 -0.60382788589E+03  0.89994412715E+03 -0.20549187881E+04  0.23231872016E+04  0.00000000000E+00 0. -1.
<mgrwt>
<rscale>  0 0.22249056E+04</rscale>
<asrwt>0</asrwt>
<pdfrwt beam="1">  1        2 0.55371465E+00 0.22249056E+04</pdfrwt>
<pdfrwt beam="2">  1       -2 0.52899366E-01 0.22249056E+04</pdfrwt>
<totfact> 0.21338166E+00</totfact>
</mgrwt>
</event>
<event>
 6    1  0.1001928E-005  0.2776148E+04  0.7818608E-02  0.8310712E-01
          2   -1    0    0  501    0  0.00000000000E+00  0.00000000000E+00  0.11570722969E+04  0.11570722969E+04  0.00000000000E+00 0.  1.
         -2   -1    0    0    0  501 -0.00000000000E+00 -0.00000000000E+00 -0.16651935904E+04  0.16651935904E+04  0.00000000000E+00 0. -1.
         23    2    1    2    0    0 -0.13275306363E+04 -0.36976974272E+03 -0.41023500252E+03  0.14407272600E+04  0.91296371656E+02 0.  0.
         13    1    3    3    0    0 -0.25518614625E+03 -0.56326365059E+02 -0.43938787869E+02  0.26499669002E+03  0.00000000000E+00 0.  1.
        -13    1    3    3    0    0 -0.10723444900E+04 -0.31344337766E+03 -0.36629621465E+03  0.11757305700E+04  0.00000000000E+00 0. -1.
         22    1    1    2    0    0  0.13275306363E+04  0.36976974272E+03 -0.97886290971E+02  0.13815386274E+04  0.00000000000E+00 0. -1.
<mgrwt>
<rscale>  0 0.27761480E+04</rscale>
<asrwt>0</asrwt>
<pdfrwt beam="1">  1        2 0.17801112E+00 0.27761480E+04</pdfrwt>
<pdfrwt beam="2">  1       -2 0.25618363E+00 0.27761480E+04</pdfrwt>
<totfact> 0.10319227E+00</totfact>
</mgrwt>
</event>
<event>
 6    1  0.1001928E-005  0.3885453E+04  0.7818608E-02  0.8028062E-01
          2   -1    0    0  501    0  0.00000000000E+00  0.00000000000E+00  0.24553286231E+04  0.24553286231E+04  0.00000000000E+00 0. -1.
         -2   -1    0    0    0  501 -0.00000000000E+00 -0.00000000000E+00 -0.15371406715E+04  0.15371406715E+04  0.00000000000E+00 0.  1.
         23    2    1    2    0    0  0.14290403436E+04  0.28368617217E+02 -0.89102923321E+03  0.16867746261E+04  0.91183675543E+02 0.  0.
         11    1    3    3    0    0  0.36817980388E+03 -0.32418208999E+02 -0.22580748340E+03  0.43312391739E+03  0.00000000000E+00 0. -1.
        -11    1    3    3    0    0  0.10608605397E+04  0.60786826216E+02 -0.66522174981E+03  0.12536507087E+04  0.00000000000E+00 0.  1.
         22    1    1    2    0    0 -0.14290403436E+04 -0.28368617217E+02  0.18092171848E+04  0.23056946684E+04  0.00000000000E+00 0. -1.
<mgrwt>
<rscale>  0 0.38854526E+04</rscale>
<asrwt>0</asrwt>
<pdfrwt beam="1">  1        2 0.37774287E+00 0.38854526E+04</pdfrwt>
<pdfrwt beam="2">  1       -2 0.23648318E+00 0.38854526E+04</pdfrwt>
<totfact> 0.22914252E-01</totfact>
</mgrwt>
</event>
<event>
 6    1  0.1001928E-005  0.2618943E+04  0.7818608E-02  0.8361795E-01
         -1   -1    0    0    0  501 -0.00000000000E+00  0.00000000000E+00  0.97172030544E+03  0.97172030544E+03  0.00000000000E+00 0.  1.
          1   -1    0    0  501    0  0.00000000000E+00 -0.00000000000E+00 -0.17646186005E+04  0.17646186005E+04  0.00000000000E+00 0. -1.
         23    2    1    2    0    0  0.37909473164E+03  0.72746040834E+03 -0.14613009538E+04  0.16781926138E+04  0.89546133825E+02 0.  0.
         13    1    3    3    0    0  0.32041513918E+03  0.62374848378E+03 -0.11790545087E+04  0.13718227170E+04  0.00000000000E+00 0. -1.
        -13    1    3    3    0    0  0.58679592456E+02  0.10371192456E+03 -0.28224644510E+03  0.30636989676E+03  0.00000000000E+00 0.  1.
         22    1    1    2    0    0 -0.37909473164E+03 -0.72746040834E+03  0.66840265879E+03  0.10581462921E+04  0.00000000000E+00 0.  1.
<mgrwt>
<rscale>  0 0.26189431E+04</rscale>
<asrwt>0</asrwt>
<pdfrwt beam="1">  1        1 0.27147979E+00 0.26189431E+04</pdfrwt>
<pdfrwt beam="2">  1       -1 0.14949543E+00 0.26189431E+04</pdfrwt>
<totfact> 0.13331288E+00</totfact>
</mgrwt>
</event>
<event>
 6    1  0.1001928E-005  0.2256408E+04  0.7818608E-02  0.8495310E-01
         -2   -1    0    0    0  501 -0.00000000000E+00  0.00000000000E+00  0.76128615644E+03  0.76128615644E+03  0.00000000000E+00 0.  1.
          2   -1    0    0  501    0  0.00000000000E+00 -0.00000000000E+00 -0.16719652045E+04  0.16719652045E+04  0.00000000000E+00 0. -1.
         23    2    1    2    0    0 -0.10065528602E+04  0.29371652229E+03 -0.89989718113E+03  0.13846645479E+04  0.89793751066E+02 0.  0.
         11    1    3    3    0    0 -0.50794790401E+03  0.10162622983E+03 -0.43796500825E+03  0.67834527508E+03  0.00000000000E+00 0.  1.
        -11    1    3    3    0    0 -0.49860495622E+03  0.19209029246E+03 -0.46193217288E+03  0.70631927283E+03  0.00000000000E+00 0. -1.
         22    1    1    2    0    0  0.10065528602E+04 -0.29371652229E+03 -0.10781866957E+02  0.10485868131E+04  0.00000000000E+00 0.  1.
<mgrwt>
<rscale>  0 0.22564077E+04</rscale>
<asrwt>0</asrwt>
<pdfrwt beam="1">  1        2 0.25722541E+00 0.22564077E+04</pdfrwt>
<pdfrwt beam="2">  1       -2 0.11712095E+00 0.22564077E+04</pdfrwt>
<totfact> 0.52158654E+00</totfact>
</mgrwt>
</event>
<event>
 6    1  0.1277428E-005  0.2461352E+04  0.7818608E-02  0.8416885E-01
         -2   -1    0    0    0  501 -0.00000000000E+00  0.00000000000E+00  0.86536596985E+03  0.86536596985E+03  0.00000000000E+00 0.  1.
          2   -1    0    0  501    0  0.00000000000E+00 -0.00000000000E+00 -0.17502003057E+04  0.17502003057E+04  0.00000000000E+00 0. -1.
         23    2    1    2    0    0 -0.48270235097E+03 -0.56724261819E+03  0.59577875794E+03  0.95816442897E+03  0.91438487512E+02 0.  0.
         11    1    3    3    0    0 -0.15960536637E+03 -0.18122858964E+03  0.24914704052E+03  0.34697539175E+03  0.00000000000E+00 0. -1.
        -11    1    3    3    0    0 -0.32309698460E+03 -0.38601402856E+03  0.34663171742E+03  0.61118903722E+03  0.00000000000E+00 0.  1.
         22    1    1    2    0    0  0.48270235097E+03  0.56724261819E+03 -0.14806130938E+04  0.16574018466E+04  0.00000000000E+00 0. -1.
<mgrwt>
<rscale>  0 0.24613523E+04</rscale>
<asrwt>0</asrwt>
<pdfrwt beam="1">  1        2 0.26926158E+00 0.24613523E+04</pdfrwt>
<pdfrwt beam="2">  1       -2 0.13313323E+00 0.24613523E+04</pdfrwt>
<totfact> 0.33639931E+00</totfact>
</mgrwt>
</event>
<event>
 6    1  0.1001928E-005  0.2198841E+04  0.7818608E-02  0.8518911E-01
          2   -1    0    0  501    0  0.00000000000E+00  0.00000000000E+00  0.20133690434E+04  0.20133690434E+04  0.00000000000E+00 0. -1.
         -2   -1    0    0    0  501 -0.00000000000E+00 -0.00000000000E+00 -0.60034960579E+03  0.60034960579E+03  0.00000000000E+00 0.  1.
         23    2    1    2    0    0 -0.29633173567E+02  0.60295696794E+03 -0.38244186149E+03  0.71948621711E+03  0.83447043197E+02 0.  0.
         11    1    3    3    0    0 -0.35461609960E+02  0.24053267415E+03 -0.19345305980E+03  0.31070497173E+03  0.00000000000E+00 0. -1.
        -11    1    3    3    0    0  0.58284363927E+01  0.36242429379E+03 -0.18898880169E+03  0.40878124537E+03  0.00000000000E+00 0.  1.
         22    1    1    2    0    0  0.29633173567E+02 -0.60295696794E+03  0.17954612991E+04  0.18942324321E+04  0.00000000000E+00 0. -1.
<mgrwt>
<rscale>  0 0.21988409E+04</rscale>
<asrwt>0</asrwt>
<pdfrwt beam="1">  1        2 0.30974908E+00 0.21988409E+04</pdfrwt>
<pdfrwt beam="2">  1       -2 0.92361479E-01 0.21988409E+04</pdfrwt>
<totfact> 0.59747312E+00</totfact>
</mgrwt>
</event>
<event>
 6    1  0.1001928E-005  0.1145067E+04  0.7818608E-02  0.9162347E-01
         -1   -1    0    0    0  501 -0.00000000000E+00  0.00000000000E+00  0.71370448246E+03  0.71370448246E+03  0.00000000000E+00 0.  1.
          1   -1    0    0  501    0  0.00000000000E+00 -0.00000000000E+00 -0.45928612015E+03  0.45928612015E+03  0.00000000000E+00 0. -1.
         23    2    1    2    0    0  0.53160880681E+03 -0.17491835416E+03  0.23270968254E+02  0.56748794210E+03  0.91086071160E+02 0.  0.
         13    1    3    3    0    0  0.95407550162E+02  0.37525835011E+01 -0.10236925169E+01  0.95486807765E+02  0.00000000000E+00 0.  1.
        -13    1    3    3    0    0  0.43620125665E+03 -0.17867093767E+03  0.24294660771E+02  0.47200113434E+03  0.00000000000E+00 0. -1.
         22    1    1    2    0    0 -0.53160880681E+03  0.17491835416E+03  0.23114739405E+03  0.60550266051E+03  0.00000000000E+00 0. -1.
<mgrwt>
<rscale>  0 0.11450669E+04</rscale>
<asrwt>0</asrwt>
<pdfrwt beam="1">  1        1 0.70659403E-01 0.11450669E+04</pdfrwt>
<pdfrwt beam="2">  1       -1 0.10980069E+00 0.11450669E+04</pdfrwt>
<totfact> 0.37942363E+01</totfact>
</mgrwt>
</event>
<event>
 6    1  0.1001928E-005  0.1627778E+04  0.7818608E-02  0.8803662E-01
         -1   -1    0    0    0  501 -0.00000000000E+00  0.00000000000E+00  0.41455427901E+03  0.41455427901E+03  0.00000000000E+00 0.  1.
          1   -1    0    0  501    0  0.00000000000E+00 -0.00000000000E+00 -0.15978982130E+04  0.15978982130E+04  0.00000000000E+00 0. -1.
         23    2    1    2    0    0  0.54879882508E+03  0.52614008174E+03 -0.24314756577E+03  0.80333184177E+03  0.90651934600E+02 0.  0.
         11    1    3    3    0    0  0.48157696279E+03  0.46407977775E+03 -0.18141353110E+03  0.69296268332E+03  0.00000000000E+00 0.  1.
        -11    1    3    3    0    0  0.67221862292E+02  0.62060303985E+02 -0.61734034677E+02  0.11036915846E+03  0.00000000000E+00 0. -1.
         22    1    1    2    0    0 -0.54879882508E+03 -0.52614008174E+03 -0.94019636825E+03  0.12091206503E+04  0.00000000000E+00 0.  1.
<mgrwt>
<rscale>  0 0.16277783E+04</rscale>
<asrwt>0</asrwt>
<pdfrwt beam="1">  1        1 0.24583049E+00 0.16277783E+04</pdfrwt>
<pdfrwt beam="2">  1       -1 0.63777582E-01 0.16277783E+04</pdfrwt>
<totfact> 0.13363219E+01</totfact>
</mgrwt>
</event>
<event>
 6    1  0.1001928E-005  0.2632311E+04  0.7818608E-02  0.8357308E-01
          1   -1    0    0  501    0  0.00000000000E+00  0.00000000000E+00  0.15960460771E+04  0.15960460771E+04  0.00000000000E+00 0. -1.
         -1   -1    0    0    0  501 -0.00000000000E+00 -0.00000000000E+00 -0.10853480950E+04  0.10853480950E+04  0.00000000000E+00 0.  1.
         23    2    1    2    0    0 -0.23120422180E+03 -0.11944812705E+04 -0.25152209777E+03  0.12456990972E+04  0.90895420487E+02 0.  0.
         11    1    3    3    0    0 -0.18119359859E+03 -0.10131445855E+04 -0.24235745597E+03  0.10573694756E+04  0.00000000000E+00 0.  1.
        -11    1    3    3    0    0 -0.50010623212E+02 -0.18133668496E+03 -0.91646417963E+01  0.18832962169E+03  0.00000000000E+00 0. -1.
         22    1    1    2    0    0  0.23120422180E+03  0.11944812705E+04  0.76222007990E+03  0.14356950749E+04  0.00000000000E+00 0. -1.
<mgrwt>
<rscale>  0 0.26323112E+04</rscale>
<asrwt>0</asrwt>
<pdfrwt beam="1">  1        1 0.24554555E+00 0.26323112E+04</pdfrwt>
<pdfrwt beam="2">  1       -1 0.16697663E+00 0.26323112E+04</pdfrwt>
<totfact> 0.12776291E+00</totfact>
</mgrwt>
</event>
<event>
 6    1  0.1001928E-005  0.2892981E+04  0.7818608E-02  0.8274969E-01
          2   -1    0    0  501    0  0.00000000000E+00  0.00000000000E+00  0.22247859400E+04  0.22247859400E+04  0.00000000000E+00 0.  1.
         -2   -1    0    0    0  501 -0.00000000000E+00 -0.00000000000E+00 -0.94046584995E+03  0.94046584995E+03  0.00000000000E+00 0. -1.
         23    2    1    2    0    0 -0.99081970757E+03 -0.34956983743E+03 -0.44216697426E+03  0.11441925757E+04  0.98702852478E+02 0.  0.
         13    1    3    3    0    0 -0.72646617307E+03 -0.29079586305E+03 -0.35878654998E+03  0.86083861613E+03  0.00000000000E+00 0. -1.
        -13    1    3    3    0    0 -0.26435353451E+03 -0.58773974387E+02 -0.83380424276E+02  0.28335395961E+03  0.00000000000E+00 0.  1.
         22    1    1    2    0    0  0.99081970757E+03  0.34956983743E+03  0.17264870643E+04  0.20210592142E+04  0.00000000000E+00 0.  1.
<mgrwt>
<rscale>  0 0.28929813E+04</rscale>
<asrwt>0</asrwt>
<pdfrwt beam="1">  1        2 0.34227476E+00 0.28929813E+04</pdfrwt>
<pdfrwt beam="2">  1       -2 0.14468705E+00 0.28929813E+04</pdfrwt>
<totfact> 0.14229385E+00</totfact>
</mgrwt>
</event>
<event>
 6    1  0.1001928E-005  0.3907330E+04  0.7818608E-02  0.8023506E-01
          1   -1    0    0  501    0  0.00000000000E+00  0.00000000000E+00  0.26577806265E+04  0.26577806265E+04  0.00000000000E+00 0. -1.
         -1   -1    0    0    0  501 -0.00000000000E+00 -0.00000000000E+00 -0.14360878533E+04  0.14360878533E+04  0.00000000000E+00 0.  1.
         23    2    1    2    0    0  0.13645575060E+04 -0.94437791658E+03 -0.46702768091E+03  0.17262444369E+04  0.89096378960E+02 0.  0.
         11    1    3    3    0    0  0.50791081721E+03 -0.40369699540E+03 -0.17516633715E+03  0.67203266885E+03  0.00000000000E+00 0. -1.
        -11    1    3    3    0    0  0.85664668880E+03 -0.54068092118E+03 -0.29186134376E+03  0.10542117681E+04  0.00000000000E+00 0.  1.
         22    1    1    2    0    0 -0.13645575060E+04  0.94437791658E+03  0.16887204541E+04  0.23676240429E+04  0.00000000000E+00 0.  1.
<mgrwt>
<rscale>  0 0.39073298E+04</rscale>
<asrwt>0</asrwt>
<pdfrwt beam="1">  1        1 0.40888933E+00 0.39073298E+04</pdfrwt>
<pdfrwt beam="2">  1       -1 0.22093659E+00 0.39073298E+04</pdfrwt>
<totfact> 0.89890519E-02</totfact>
</mgrwt>
</event>
<event>
 6    1  0.1001928E-005  0.1485877E+04  0.7818608E-02  0.8893899E-01
         -2   -1    0    0    0  501 -0.00000000000E+00  0.00000000000E+00  0.10726837764E+04  0.10726837764E+04  0.00000000000E+00 0.  1.
          2   -1    0    0  501    0  0.00000000000E+00 -0.00000000000E+00 -0.51455795386E+03  0.51455795386E+03  0.00000000000E+00 0. -1.
         23    2    1    2    0    0  0.30370738606E+03  0.54307333431E+03  0.70841458316E+03  0.94712179274E+03  0.89563641425E+02 0.  0.
         11    1    3    3    0    0  0.78530000276E+02  0.21577398562E+03  0.22604614819E+03  0.32221457901E+03  0.00000000000E+00 0. -1.
        -11    1    3    3    0    0  0.22517738578E+03  0.32729934869E+03  0.48236843497E+03  0.62490721373E+03  0.00000000000E+00 0.  1.
         22    1    1    2    0    0 -0.30370738606E+03 -0.54307333431E+03 -0.15028876066E+03  0.64011993748E+03  0.00000000000E+00 0. -1.
<mgrwt>
<rscale>  0 0.14858775E+04</rscale>
<asrwt>0</asrwt>
<pdfrwt beam="1">  1        2 0.79162762E-01 0.14858775E+04</pdfrwt>
<pdfrwt beam="2">  1       -2 0.16502827E+00 0.14858775E+04</pdfrwt>
<totfact> 0.13314896E+01</totfact>
</mgrwt>
</event>
<event>
 6    1  0.1001928E-005  0.2257886E+04  0.7818608E-02  0.8494714E-01
          1   -1    0    0  501    0  0.00000000000E+00  0.00000000000E+00  0.10189266220E+04  0.10189266220E+04  0.00000000000E+00 0. -1.
         -1   -1    0    0    0  501 -0.00000000000E+00 -0.00000000000E+00 -0.12508382308E+04  0.12508382308E+04  0.00000000000E+00 0.  1.
         23    2    1    2    0    0 -0.99493176031E+03  0.33146851563E+03  0.29797234760E+03  0.10948020484E+04  0.10021686817E+03 0.  0.
         11    1    3    3    0    0 -0.56535465631E+03  0.21759074253E+03  0.21436098700E+03  0.64259026711E+03  0.00000000000E+00 0. -1.
        -11    1    3    3    0    0 -0.42957710400E+03  0.11387777310E+03  0.83611360601E+02  0.45221178126E+03  0.00000000000E+00 0.  1.
         22    1    1    2    0    0  0.99493176031E+03 -0.33146851563E+03 -0.52988395638E+03  0.11749628044E+04  0.00000000000E+00 0.  1.
<mgrwt>
<rscale>  0 0.22578861E+04</rscale>
<asrwt>0</asrwt>
<pdfrwt beam="1">  1        1 0.15675794E+00 0.22578861E+04</pdfrwt>
<pdfrwt beam="2">  1       -1 0.19243665E+00 0.22578861E+04</pdfrwt>
<totfact> 0.22539343E+00</totfact>
</mgrwt>
</event>
<event>
 6    1  0.1001928E-005  0.1156969E+04  0.7818608E-02  0.9151378E-01
         -2   -1    0    0    0  501 -0.00000000000E+00  0.00000000000E+00  0.43281500730E+03  0.43281500730E+03  0.00000000000E+00 0.  1.
          2   -1    0    0  501    0  0.00000000000E+00 -0.00000000000E+00 -0.77318120906E+03  0.77318120906E+03  0.00000000000E+00 0. -1.
         23    2    1    2    0    0 -0.86632430515E+02 -0.54913514248E+03 -0.32377643560E+03  0.64982196033E+03  0.91557725807E+02 0.  0.
         13    1    3    3    0    0 -0.68208752639E+02 -0.34865574033E+03 -0.25409114018E+03  0.43677862438E+03  0.00000000000E+00 0. -1.
        -13    1    3    3    0    0 -0.18423677876E+02 -0.20047940216E+03 -0.69685295420E+02  0.21304333595E+03  0.00000000000E+00 0.  1.
         22    1    1    2    0    0  0.86632430515E+02  0.54913514248E+03 -0.16589766170E+02  0.55617425603E+03  0.00000000000E+00 0.  1.
<mgrwt>
<rscale>  0 0.11569692E+04</rscale>
<asrwt>0</asrwt>
<pdfrwt beam="1">  1        2 0.11895095E+00 0.11569692E+04</pdfrwt>
<pdfrwt beam="2">  1       -2 0.66586925E-01 0.11569692E+04</pdfrwt>
<totfact> 0.73929141E+01</totfact>
</mgrwt>
</event>
<event>
 6    1  0.1001928E-005  0.1677296E+04  0.7818608E-02  0.8774420E-01
         -2   -1    0    0    0  501 -0.00000000000E+00  0.00000000000E+00  0.41584218294E+03  0.41584218294E+03  0.00000000000E+00 0.  1.
          2   -1    0    0  501    0  0.00000000000E+00 -0.00000000000E+00 -0.16913391878E+04  0.16913391878E+04  0.00000000000E+00 0. -1.
         23    2    1    2    0    0 -0.61192880240E+03 -0.51079540567E+03 -0.95725188416E+03  0.12488989216E+04  0.89713661453E+02 0.  0.
         11    1    3    3    0    0 -0.21312655512E+03 -0.17086307400E+03 -0.26406360529E+03  0.37992987010E+03  0.00000000000E+00 0.  1.
        -11    1    3    3    0    0 -0.39880224728E+03 -0.33993233167E+03 -0.69318827888E+03  0.86896905153E+03  0.00000000000E+00 0. -1.
         22    1    1    2    0    0  0.61192880240E+03  0.51079540567E+03 -0.31824512075E+03  0.85828244916E+03  0.00000000000E+00 0.  1.
<mgrwt>
<rscale>  0 0.16772957E+04</rscale>
<asrwt>0</asrwt>
<pdfrwt beam="1">  1        2 0.26020603E+00 0.16772957E+04</pdfrwt>
<pdfrwt beam="2">  1       -2 0.63975721E-01 0.16772957E+04</pdfrwt>
<totfact> 0.21350770E+01</totfact>
</mgrwt>
</event>
<event>
 6    1  0.1001928E-005  0.1362686E+04  0.7818608E-02  0.8981280E-01
         -2   -1    0    0    0  501 -0.00000000000E+00  0.00000000000E+00  0.30520555308E+03  0.30520555308E+03  0.00000000000E+00 0.  1.
          2   -1    0    0  501    0  0.00000000000E+00 -0.00000000000E+00 -0.15210356235E+04  0.15210356235E+04  0.00000000000E+00 0. -1.
         23    2    1    2    0    0  0.63617442722E+03  0.22659734110E+03 -0.52856847236E+03  0.86270977542E+03  0.93910967316E+02 0.  0.
         11    1    3    3    0    0  0.28231928519E+03  0.14944977252E+03 -0.23678562017E+03  0.39762651221E+03  0.00000000000E+00 0.  1.
        -11    1    3    3    0    0  0.35385514203E+03  0.77147568589E+02 -0.29178285219E+03  0.46508326321E+03  0.00000000000E+00 0. -1.
         22    1    1    2    0    0 -0.63617442722E+03 -0.22659734110E+03 -0.68726159801E+03  0.96353140112E+03  0.00000000000E+00 0. -1.
<mgrwt>
<rscale>  0 0.13626863E+04</rscale>
<asrwt>0</asrwt>
<pdfrwt beam="1">  1        2 0.23400548E+00 0.13626863E+04</pdfrwt>
<pdfrwt beam="2">  1       -2 0.46954700E-01 0.13626863E+04</pdfrwt>
<totfact> 0.51809665E+01</totfact>
</mgrwt>
</event>
<event>
 6    1  0.1001928E-005  0.2221221E+04  0.7818608E-02  0.8509647E-01
          2   -1    0    0  501    0  0.00000000000E+00  0.00000000000E+00  0.24008382764E+04  0.24008382764E+04  0.00000000000E+00 0. -1.
         -2   -1    0    0    0  501 -0.00000000000E+00 -0.00000000000E+00 -0.51376064955E+03  0.51376064955E+03  0.00000000000E+00 0.  1.
         23    2    1    2    0    0 -0.17116334268E+03 -0.10753264548E+04  0.67104996951E+03  0.12823161264E+04  0.91666307828E+02 0.  0.
         11    1    3    3    0    0 -0.17677631471E+03 -0.97290838965E+03  0.62566081507E+03  0.11701504414E+04  0.00000000000E+00 0.  1.
        -11    1    3    3    0    0  0.56129720303E+01 -0.10241806520E+03  0.45389154438E+02  0.11216568493E+03  0.00000000000E+00 0. -1.
         22    1    1    2    0    0  0.17116334268E+03  0.10753264548E+04  0.12160276573E+04  0.16322827995E+04  0.00000000000E+00 0. -1.
<mgrwt>
<rscale>  0 0.22212215E+04</rscale>
<asrwt>0</asrwt>
<pdfrwt beam="1">  1        2 0.36935973E+00 0.22212215E+04</pdfrwt>
<pdfrwt beam="2">  1       -2 0.79040101E-01 0.22212215E+04</pdfrwt>
<totfact> 0.51462535E+00</totfact>
</mgrwt>
</event>
<event>
 6    1  0.1001928E-005  0.1807332E+04  0.7818608E-02  0.8702410E-01
          2   -1    0    0  501    0  0.00000000000E+00  0.00000000000E+00  0.85972351190E+03  0.85972351190E+03  0.00000000000E+00 0. -1.
         -2   -1    0    0    0  501 -0.00000000000E+00 -0.00000000000E+00 -0.94985460749E+03  0.94985460749E+03  0.00000000000E+00 0.  1.
         23    2    1    2    0    0  0.63053173680E+03 -0.35248954995E+03 -0.58479339032E+03  0.93407258557E+03  0.93215512796E+02 0.  0.
         13    1    3    3    0    0  0.57563479341E+03 -0.34923027878E+03 -0.54419517745E+03  0.86571680945E+03  0.00000000000E+00 0.  1.
        -13    1    3    3    0    0  0.54896943386E+02 -0.32592711765E+01 -0.40598212866E+02  0.68355776124E+02  0.00000000000E+00 0. -1.
         22    1    1    2    0    0 -0.63053173680E+03  0.35248954995E+03  0.49466229473E+03  0.87550553383E+03  0.00000000000E+00 0. -1.
<mgrwt>
<rscale>  0 0.18073321E+04</rscale>
<asrwt>0</asrwt>
<pdfrwt beam="1">  1        2 0.13226516E+00 0.18073321E+04</pdfrwt>
<pdfrwt beam="2">  1       -2 0.14613148E+00 0.18073321E+04</pdfrwt>
<totfact> 0.94627009E+00</totfact>
</mgrwt>
</event>
<event>
 6    1  0.1001928E-005  0.1912992E+04  0.7818608E-02  0.8648416E-01
         -2   -1    0    0    0  501 -0.00000000000E+00  0.00000000000E+00  0.10996226503E+04  0.10996226503E+04  0.00000000000E+00 0. -1.
          2   -1    0    0  501    0  0.00000000000E+00 -0.00000000000E+00 -0.83199858100E+03  0.83199858100E+03  0.00000000000E+00 0.  1.
         23    2    1    2    0    0 -0.96868204503E+02  0.93496189208E+03  0.30092807079E+03  0.99106482938E+03  0.90081094312E+02 0.  0.
         13    1    3    3    0    0 -0.74163526275E+02  0.68851655723E+03  0.17946316010E+03  0.71537563842E+03  0.00000000000E+00 0. -1.
        -13    1    3    3    0    0 -0.22704678228E+02  0.24644533485E+03  0.12146491069E+03  0.27568919096E+03  0.00000000000E+00 0.  1.
         22    1    1    2    0    0  0.96868204503E+02 -0.93496189208E+03 -0.33304001486E+02  0.94055640193E+03  0.00000000000E+00 0.  1.
<mgrwt>
<rscale>  0 0.19129919E+04</rscale>
<asrwt>0</asrwt>
<pdfrwt beam="1">  1        2 0.12799978E+00 0.19129919E+04</pdfrwt>
<pdfrwt beam="2">  1       -2 0.16917272E+00 0.19129919E+04</pdfrwt>
<totfact> 0.66022699E+00</totfact>
</mgrwt>
</event>
<event>
 6    1  0.1001928E-005  0.3324829E+04  0.7818608E-02  0.8156606E-01
          2   -1    0    0  501    0  0.00000000000E+00  0.00000000000E+00  0.17166551880E+04  0.17166551880E+04  0.00000000000E+00 0. -1.
         -2   -1    0    0    0  501 -0.00000000000E+00 -0.00000000000E+00 -0.16098872333E+04  0.16098872333E+04  0.00000000000E+00 0.  1.
         23    2    1    2    0    0  0.15183365257E+04  0.66340842633E+03 -0.64786192738E+02  0.16607431024E+04  0.91727072004E+02 0.  0.
         11    1    3    3    0    0  0.85691243049E+03  0.38765836020E+03  0.70684468002E+01  0.94054658615E+03  0.00000000000E+00 0. -1.
        -11    1    3    3    0    0  0.66142409525E+03  0.27575006613E+03 -0.71854639538E+02  0.72019651622E+03  0.00000000000E+00 0.  1.
         22    1    1    2    0    0 -0.15183365257E+04 -0.66340842633E+03  0.17155414748E+03  0.16657993190E+04  0.00000000000E+00 0.  1.
<mgrwt>
<rscale>  0 0.33248286E+04</rscale>
<asrwt>0</asrwt>
<pdfrwt beam="1">  1        2 0.26410080E+00 0.33248286E+04</pdfrwt>
<pdfrwt beam="2">  1       -2 0.24767496E+00 0.33248286E+04</pdfrwt>
<totfact> 0.53146753E-01</totfact>
</mgrwt>
</event>
<event>
 6    1  0.1001928E-005  0.2798110E+04  0.7818608E-02  0.8303855E-01
          1   -1    0    0  501    0  0.00000000000E+00  0.00000000000E+00  0.44871269312E+04  0.44871269312E+04  0.00000000000E+00 0. -1.
         -1   -1    0    0    0  501 -0.00000000000E+00 -0.00000000000E+00 -0.43621568881E+03  0.43621568881E+03  0.00000000000E+00 0.  1.
         23    2    1    2    0    0  0.99774423035E+03 -0.42163539380E+03  0.35814516471E+04  0.37428078827E+04  0.92439123905E+02 0.  0.
         13    1    3    3    0    0  0.28013176793E+03 -0.15545591839E+03  0.11436481054E+04  0.11876747615E+04  0.00000000000E+00 0.  1.
        -13    1    3    3    0    0  0.71761246241E+03 -0.26617947541E+03  0.24378035416E+04  0.25551331212E+04  0.00000000000E+00 0. -1.
         22    1    1    2    0    0 -0.99774423035E+03  0.42163539380E+03  0.46945959533E+03  0.11805347374E+04  0.00000000000E+00 0.  1.
<mgrwt>
<rscale>  0 0.27981102E+04</rscale>
<asrwt>0</asrwt>
<pdfrwt beam="1">  1        1 0.69032719E+00 0.27981102E+04</pdfrwt>
<pdfrwt beam="2">  1       -1 0.67110109E-01 0.27981102E+04</pdfrwt>
<totfact> 0.64764329E-02</totfact>
</mgrwt>
</event>
<event>
 6    1  0.1001928E-005  0.9321887E+03  0.7818608E-02  0.9386215E-01
          2   -1    0    0  501    0  0.00000000000E+00  0.00000000000E+00  0.10468714776E+04  0.10468714776E+04  0.00000000000E+00 0. -1.
         -2   -1    0    0    0  501 -0.00000000000E+00 -0.00000000000E+00 -0.20751731008E+03  0.20751731008E+03  0.00000000000E+00 0.  1.
         23    2    1    2    0    0  0.16435117863E+03 -0.43020827354E+03  0.38810782058E+03  0.60963012418E+03  0.94502589258E+02 0.  0.
         13    1    3    3    0    0  0.86171221225E+02 -0.31407710568E+03  0.23153507070E+03  0.39959779359E+03  0.00000000000E+00 0. -1.
        -13    1    3    3    0    0  0.78179957405E+02 -0.11613116786E+03  0.15657274988E+03  0.21003233059E+03  0.00000000000E+00 0.  1.
         22    1    1    2    0    0 -0.16435117863E+03  0.43020827354E+03  0.45124634696E+03  0.64475866352E+03  0.00000000000E+00 0. -1.
<mgrwt>
<rscale>  0 0.93218872E+03</rscale>
<asrwt>0</asrwt>
<pdfrwt beam="1">  1        2 0.16105715E+00 0.93218872E+03</pdfrwt>
<pdfrwt beam="2">  1       -2 0.31925741E-01 0.93218872E+03</pdfrwt>
<totfact> 0.21454449E+02</totfact>
</mgrwt>
</event>
<event>
 6    1  0.1001928E-005  0.2097042E+04  0.7818608E-02  0.8562547E-01
         -1   -1    0    0    0  501 -0.00000000000E+00  0.00000000000E+00  0.69263718758E+03  0.69263718758E+03  0.00000000000E+00 0.  1.
          1   -1    0    0  501    0  0.00000000000E+00 -0.00000000000E+00 -0.15872620006E+04  0.15872620006E+04  0.00000000000E+00 0. -1.
         23    2    1    2    0    0  0.15602555824E+02 -0.94041829926E+03 -0.94709597077E+03  0.13378889760E+04  0.91247558606E+02 0.  0.
         13    1    3    3    0    0  0.13676566075E+02 -0.63143172770E+03 -0.69499911263E+03  0.93910427629E+03  0.00000000000E+00 0.  1.
        -13    1    3    3    0    0  0.19259897484E+01 -0.30898657156E+03 -0.25209685815E+03  0.39878469972E+03  0.00000000000E+00 0. -1.
         22    1    1    2    0    0 -0.15602555824E+02  0.94041829926E+03  0.52471157796E+02  0.94201021212E+03  0.00000000000E+00 0.  1.
<mgrwt>
<rscale>  0 0.20970424E+04</rscale>
<asrwt>0</asrwt>
<pdfrwt beam="1">  1        1 0.24419415E+00 0.20970424E+04</pdfrwt>
<pdfrwt beam="2">  1       -1 0.10655957E+00 0.20970424E+04</pdfrwt>
<totfact> 0.43078907E+00</totfact>
</mgrwt>
</event>
<event>
 6    1  0.1001928E-005  0.8808047E+03  0.7818608E-02  0.9449900E-01
          1   -1    0    0  501    0  0.00000000000E+00  0.00000000000E+00  0.92659801538E+03  0.92659801538E+03  0.00000000000E+00 0. -1.
         -1   -1    0    0    0  501 -0.00000000000E+00 -0.00000000000E+00 -0.20931861482E+03  0.20931861482E+03  0.00000000000E+00 0.  1.
         23    2    1    2    0    0 -0.17512270992E+03 -0.10819228996E+03 -0.13220804031E+03  0.26184429490E+03  0.93327025617E+02 0.  0.
         11    1    3    3    0    0 -0.85768932525E+02 -0.28668156857E+01 -0.68179328711E+02  0.10960360068E+03  0.00000000000E+00 0.  1.
        -11    1    3    3    0    0 -0.89353777398E+02 -0.10532547428E+03 -0.64028711596E+02  0.15224069422E+03  0.00000000000E+00 0. -1.
         22    1    1    2    0    0  0.17512270992E+03  0.10819228996E+03  0.84948744087E+03  0.87407233530E+03  0.00000000000E+00 0. -1.
<mgrwt>
<rscale>  0 0.88080466E+03</rscale>
<asrwt>0</asrwt>
<pdfrwt beam="1">  1        1 0.14255354E+00 0.88080466E+03</pdfrwt>
<pdfrwt beam="2">  1       -1 0.32202864E-01 0.88080466E+03</pdfrwt>
<totfact> 0.15694705E+02</totfact>
</mgrwt>
</event>
<event>
 6    1  0.1001928E-005  0.2669871E+04  0.7818608E-02  0.8344847E-01
          2   -1    0    0  501    0  0.00000000000E+00  0.00000000000E+00  0.61523469960E+03  0.61523469960E+03  0.00000000000E+00 0. -1.
         -2   -1    0    0    0  501 -0.00000000000E+00 -0.00000000000E+00 -0.28965420172E+04  0.28965420172E+04  0.00000000000E+00 0.  1.
         23    2    1    2    0    0  0.27139562602E+03  0.15594367632E+03 -0.28467715750E+04  0.28654611263E+04  0.93728597100E+02 0.  0.
         13    1    3    3    0    0  0.97472306045E+02  0.10930645357E+03 -0.13291621456E+04  0.13372063268E+04  0.00000000000E+00 0. -1.
        -13    1    3    3    0    0  0.17392331997E+03  0.46637222745E+02 -0.15176094295E+04  0.15282547995E+04  0.00000000000E+00 0.  1.
         22    1    1    2    0    0 -0.27139562602E+03 -0.15594367632E+03  0.56546425747E+03  0.64631559047E+03  0.00000000000E+00 0. -1.
<mgrwt>
<rscale>  0 0.26698713E+04</rscale>
<asrwt>0</asrwt>
<pdfrwt beam="1">  1        2 0.94651495E-01 0.26698713E+04</pdfrwt>
<pdfrwt beam="2">  1       -2 0.44562184E+00 0.26698713E+04</pdfrwt>
<totfact> 0.15679665E-01</totfact>
</mgrwt>
</event>
<event>
 6    1  0.1001928E-005  0.1504686E+04  0.7818608E-02  0.8881343E-01
          1   -1    0    0  501    0  0.00000000000E+00  0.00000000000E+00  0.32107765415E+03  0.32107765415E+03  0.00000000000E+00 0. -1.
         -1   -1    0    0    0  501 -0.00000000000E+00 -0.00000000000E+00 -0.17628759431E+04  0.17628759431E+04  0.00000000000E+00 0.  1.
         23    2    1    2    0    0  0.73924669218E+03 -0.12272095046E+03 -0.74127781096E+03  0.10581490137E+04  0.92953959294E+02 0.  0.
         13    1    3    3    0    0  0.35594294016E+03 -0.62242787754E+02 -0.42257429356E+03  0.55600231551E+03  0.00000000000E+00 0.  1.
        -13    1    3    3    0    0  0.38330375202E+03 -0.60478162702E+02 -0.31870351740E+03  0.50214669817E+03  0.00000000000E+00 0. -1.
         22    1    1    2    0    0 -0.73924669218E+03  0.12272095046E+03 -0.70052047800E+03  0.10258045836E+04  0.00000000000E+00 0.  1.
<mgrwt>
<rscale>  0 0.15046861E+04</rscale>
<asrwt>0</asrwt>
<pdfrwt beam="1">  1        1 0.49396561E-01 0.15046861E+04</pdfrwt>
<pdfrwt beam="2">  1       -1 0.27121169E+00 0.15046861E+04</pdfrwt>
<totfact> 0.39412634E+00</totfact>
</mgrwt>
</event>
<event>
 6    1  0.1001928E-005  0.6979290E+04  0.7818608E-02  0.7579575E-01
         -2   -1    0    0    0  501 -0.00000000000E+00  0.00000000000E+00  0.45464575210E+04  0.45464575210E+04  0.00000000000E+00 0.  1.
          2   -1    0    0  501    0  0.00000000000E+00 -0.00000000000E+00 -0.26784861245E+04  0.26784861245E+04  0.00000000000E+00 0. -1.
         23    2    1    2    0    0  0.16915267748E+03 -0.29700132739E+04 -0.95316951177E+03  0.31251354184E+04  0.91366239051E+02 0.  0.
         11    1    3    3    0    0  0.81920581660E+02 -0.11733575182E+04 -0.33277783021E+03  0.12223828907E+04  0.00000000000E+00 0. -1.
        -11    1    3    3    0    0  0.87232095816E+02 -0.17966557557E+04 -0.62039168157E+03  0.19027525276E+04  0.00000000000E+00 0.  1.
         22    1    1    2    0    0 -0.16915267748E+03  0.29700132739E+04  0.28211409082E+04  0.40998082272E+04  0.00000000000E+00 0.  1.
<mgrwt>
<rscale>  0 0.69792903E+04</rscale>
<asrwt>0</asrwt>
<pdfrwt beam="1">  1        2 0.41207479E+00 0.69792903E+04</pdfrwt>
<pdfrwt beam="2">  1       -2 0.69945500E+00 0.69792903E+04</pdfrwt>
<totfact> 0.40049056E-04</totfact>
</mgrwt>
</event>
<event>
 6    1  0.1001928E-005  0.3577481E+04  0.7818608E-02  0.8095669E-01
         -2   -1    0    0    0  501 -0.00000000000E+00  0.00000000000E+00  0.10344875256E+04  0.10344875256E+04  0.00000000000E+00 0.  1.
          2   -1    0    0  501    0  0.00000000000E+00 -0.00000000000E+00 -0.30929260758E+04  0.30929260758E+04  0.00000000000E+00 0. -1.
         23    2    1    2    0    0 -0.10988579874E+04 -0.73721195239E+03 -0.24165313656E+04  0.27565741492E+04  0.90038103241E+02 0.  0.
         13    1    3    3    0    0 -0.16283511991E+03 -0.13848054757E+03 -0.43842762938E+03  0.48776113471E+03  0.00000000000E+00 0. -1.
        -13    1    3    3    0    0 -0.93602286751E+03 -0.59873140483E+03 -0.19781037362E+04  0.22688130145E+04  0.00000000000E+00 0.  1.
         22    1    1    2    0    0  0.10988579874E+04  0.73721195239E+03  0.35809281540E+03  0.13708394522E+04  0.00000000000E+00 0.  1.
<mgrwt>
<rscale>  0 0.35774815E+04</rscale>
<asrwt>0</asrwt>
<pdfrwt beam="1">  1        2 0.47583477E+00 0.35774815E+04</pdfrwt>
<pdfrwt beam="2">  1       -2 0.15915193E+00 0.35774815E+04</pdfrwt>
<totfact> 0.31704277E-01</totfact>
</mgrwt>
</event>
<event>
 6    1  0.1001928E-005  0.8665966E+03  0.7818608E-02  0.9468328E-01
          1   -1    0    0  501    0  0.00000000000E+00  0.00000000000E+00  0.58433576659E+03  0.58433576659E+03  0.00000000000E+00 0. -1.
         -1   -1    0    0    0  501 -0.00000000000E+00 -0.00000000000E+00 -0.32130060428E+03  0.32130060428E+03  0.00000000000E+00 0.  1.
         23    2    1    2    0    0 -0.11847767469E+03  0.36808166177E+03 -0.65459540676E+02  0.39826092899E+03  0.69323495055E+02 0.  0.
         13    1    3    3    0    0 -0.68959609822E+02  0.19509881509E+03 -0.69493288563E+02  0.21828488860E+03  0.00000000000E+00 0. -1.
        -13    1    3    3    0    0 -0.49518064866E+02  0.17298284667E+03  0.40337478865E+01  0.17997604038E+03  0.00000000000E+00 0.  1.
         22    1    1    2    0    0  0.11847767469E+03 -0.36808166177E+03  0.32849470299E+03  0.50737544188E+03  0.00000000000E+00 0. -1.
<mgrwt>
<rscale>  0 0.86659664E+03</rscale>
<asrwt>0</asrwt>
<pdfrwt beam="1">  1        1 0.89897810E-01 0.86659664E+03</pdfrwt>
<pdfrwt beam="2">  1       -1 0.49430862E-01 0.86659664E+03</pdfrwt>
<totfact> 0.14727922E+02</totfact>
</mgrwt>
</event>
<event>
 6    1  0.1001928E-005  0.1532423E+04  0.7818608E-02  0.8863174E-01
         -2   -1    0    0    0  501 -0.00000000000E+00  0.00000000000E+00  0.38622615174E+03  0.38622615174E+03  0.00000000000E+00 0.  1.
          2   -1    0    0  501    0  0.00000000000E+00 -0.00000000000E+00 -0.15200425083E+04  0.15200425083E+04  0.00000000000E+00 0. -1.
         23    2    1    2    0    0 -0.41200407889E+03  0.50007594976E+03 -0.10711832032E+04  0.12553107287E+04  0.92456768782E+02 0.  0.
         11    1    3    3    0    0 -0.23481629033E+03  0.23783665286E+03 -0.61744001325E+03  0.70209481810E+03  0.00000000000E+00 0. -1.
        -11    1    3    3    0    0 -0.17718778856E+03  0.26223929691E+03 -0.45374318999E+03  0.55321591058E+03  0.00000000000E+00 0.  1.
         22    1    1    2    0    0  0.41200407889E+03 -0.50007594976E+03 -0.62633153363E+02  0.65095793140E+03  0.00000000000E+00 0.  1.
<mgrwt>
<rscale>  0 0.15324231E+04</rscale>
<asrwt>0</asrwt>
<pdfrwt beam="1">  1        2 0.23385270E+00 0.15324231E+04</pdfrwt>
<pdfrwt beam="2">  1       -2 0.59419407E-01 0.15324231E+04</pdfrwt>
<totfact> 0.31509724E+01</totfact>
</mgrwt>
</event>
<event>
 6    1  0.1001928E-005  0.1616901E+04  0.7818608E-02  0.8810232E-01
          2   -1    0    0  501    0  0.00000000000E+00  0.00000000000E+00  0.10481997646E+04  0.10481997646E+04  0.00000000000E+00 0. -1.
         -2   -1    0    0    0  501 -0.00000000000E+00 -0.00000000000E+00 -0.62353755685E+03  0.62353755685E+03  0.00000000000E+00 0.  1.
         23    2    1    2    0    0  0.77130102817E+03  0.58369761284E+02  0.44596987309E+03  0.89793739791E+03  0.95342213979E+02 0.  0.
         13    1    3    3    0    0  0.15029299860E+03 -0.25171923799E+02  0.76366459827E+02  0.17045071828E+03  0.00000000000E+00 0. -1.
        -13    1    3    3    0    0  0.62100802957E+03  0.83541685082E+02  0.36960341327E+03  0.72748667963E+03  0.00000000000E+00 0.  1.
         22    1    1    2    0    0 -0.77130102817E+03 -0.58369761284E+02 -0.21307665328E+02  0.77379992356E+03  0.00000000000E+00 0. -1.
<mgrwt>
<rscale>  0 0.16169006E+04</rscale>
<asrwt>0</asrwt>
<pdfrwt beam="1">  1        2 0.16126150E+00 0.16169006E+04</pdfrwt>
<pdfrwt beam="2">  1       -2 0.95928855E-01 0.16169006E+04</pdfrwt>
<totfact> 0.20480586E+01</totfact>
</mgrwt>
</event>
<event>
 6    1  0.1001928E-005  0.4379329E+04  0.7818608E-02  0.7932110E-01
         -1   -1    0    0    0  501 -0.00000000000E+00  0.00000000000E+00  0.15717475826E+04  0.15717475826E+04  0.00000000000E+00 0.  1.
          1   -1    0    0  501    0  0.00000000000E+00 -0.00000000000E+00 -0.30505093004E+04  0.30505093004E+04  0.00000000000E+00 0. -1.
         23    2    1    2    0    0 -0.10913582051E+04 -0.72000488640E+03 -0.25923647451E+04  0.29048223221E+04  0.90376896198E+02 0.  0.
         13    1    3    3    0    0 -0.30213843256E+03 -0.18025540403E+03 -0.78126585027E+03  0.85682902140E+03  0.00000000000E+00 0. -1.
        -13    1    3    3    0    0 -0.78921977253E+03 -0.53974948236E+03 -0.18110988948E+04  0.20479933007E+04  0.00000000000E+00 0.  1.
         22    1    1    2    0    0  0.10913582051E+04  0.72000488640E+03  0.11136030273E+04  0.17174345608E+04  0.00000000000E+00 0.  1.
<mgrwt>
<rscale>  0 0.43793290E+04</rscale>
<asrwt>0</asrwt>
<pdfrwt beam="1">  1        1 0.46930912E+00 0.43793290E+04</pdfrwt>
<pdfrwt beam="2">  1       -1 0.24180732E+00 0.43793290E+04</pdfrwt>
<totfact> 0.32846280E-02</totfact>
</mgrwt>
</event>
<event>
 6    1  0.1001928E-005  0.5440176E+04  0.7818608E-02  0.7763975E-01
         -2   -1    0    0    0  501 -0.00000000000E+00  0.00000000000E+00  0.23289101192E+04  0.23289101192E+04  0.00000000000E+00 0.  1.
          2   -1    0    0  501    0  0.00000000000E+00 -0.00000000000E+00 -0.31769700914E+04  0.31769700914E+04  0.00000000000E+00 0. -1.
         23    2    1    2    0    0 -0.10143317689E+04 -0.20215681488E+04  0.11037327495E+04  0.25183893661E+04  0.91936388099E+02 0.  0.
         13    1    3    3    0    0 -0.42955020317E+03 -0.78573934706E+03  0.40128207178E+03  0.98128843858E+03  0.00000000000E+00 0. -1.
        -13    1    3    3    0    0 -0.58478156570E+03 -0.12358288017E+04  0.70245067773E+03  0.15371009275E+04  0.00000000000E+00 0.  1.
         22    1    1    2    0    0  0.10143317689E+04  0.20215681488E+04 -0.19517927217E+04  0.29874908445E+04  0.00000000000E+00 0. -1.
<mgrwt>
<rscale>  0 0.54401757E+04</rscale>
<asrwt>0</asrwt>
<pdfrwt beam="1">  1        2 0.48876463E+00 0.54401757E+04</pdfrwt>
<pdfrwt beam="2">  1       -2 0.35829386E+00 0.54401757E+04</pdfrwt>
<totfact> 0.13003969E-02</totfact>
</mgrwt>
</event>
<event>
 6    1  0.1001928E-005  0.1941386E+04  0.7818608E-02  0.8634526E-01
         -2   -1    0    0    0  501 -0.00000000000E+00  0.00000000000E+00  0.61670253009E+03  0.61670253009E+03  0.00000000000E+00 0.  1.
          2   -1    0    0  501    0  0.00000000000E+00 -0.00000000000E+00 -0.15278764482E+04  0.15278764482E+04  0.00000000000E+00 0. -1.
         23    2    1    2    0    0  0.61628609175E+03 -0.68514480368E+03 -0.12722681468E+03  0.93470088119E+03  0.90813688519E+02 0.  0.
         13    1    3    3    0    0  0.25666965469E+03 -0.32742943964E+03 -0.21683888783E+02  0.41660477748E+03  0.00000000000E+00 0.  1.
        -13    1    3    3    0    0  0.35961643706E+03 -0.35771536403E+03 -0.10554292590E+03  0.51809610371E+03  0.00000000000E+00 0. -1.
         22    1    1    2    0    0 -0.61628609175E+03  0.68514480368E+03 -0.78394710343E+03  0.12098780971E+04  0.00000000000E+00 0. -1.
<mgrwt>
<rscale>  0 0.19413864E+04</rscale>
<asrwt>0</asrwt>
<pdfrwt beam="1">  1        2 0.23505791E+00 0.19413864E+04</pdfrwt>
<pdfrwt beam="2">  1       -2 0.94877313E-01 0.19413864E+04</pdfrwt>
<totfact> 0.10683629E+01</totfact>
</mgrwt>
</event>
<event>
 6    1  0.1001928E-005  0.3925531E+04  0.7818608E-02  0.8019740E-01
          2   -1    0    0  501    0  0.00000000000E+00  0.00000000000E+00  0.35845265886E+04  0.35845265886E+04  0.00000000000E+00 0. -1.
         -2   -1    0    0    0  501 -0.00000000000E+00 -0.00000000000E+00 -0.10747440827E+04  0.10747440827E+04  0.00000000000E+00 0.  1.
         23    2    1    2    0    0  0.65641799633E+03 -0.43661004662E+03  0.33876508988E+04  0.34793698983E+04  0.91232439688E+02 0.  0.
         11    1    3    3    0    0  0.42002734427E+03 -0.24976258049E+03  0.19304115689E+04  0.19913043820E+04  0.00000000000E+00 0.  1.
        -11    1    3    3    0    0  0.23639065206E+03 -0.18684746613E+03  0.14572393300E+04  0.14880655163E+04  0.00000000000E+00 0. -1.
         22    1    1    2    0    0 -0.65641799633E+03  0.43661004662E+03 -0.87786839291E+03  0.11799007729E+04  0.00000000000E+00 0.  1.
<mgrwt>
<rscale>  0 0.39255312E+04</rscale>
<asrwt>0</asrwt>
<pdfrwt beam="1">  1        2 0.55146562E+00 0.39255312E+04</pdfrwt>
<pdfrwt beam="2">  1       -2 0.16534525E+00 0.39255312E+04</pdfrwt>
<totfact> 0.12912308E-01</totfact>
</mgrwt>
</event>
<event>
 6    1  0.1001928E-005  0.1330446E+04  0.7818608E-02  0.9005764E-01
          2   -1    0    0  501    0  0.00000000000E+00  0.00000000000E+00  0.51883312826E+03  0.51883312826E+03  0.00000000000E+00 0. -1.
         -2   -1    0    0    0  501 -0.00000000000E+00 -0.00000000000E+00 -0.85291706736E+03  0.85291706736E+03  0.00000000000E+00 0.  1.
         23    2    1    2    0    0 -0.52872995460E+03 -0.36723027011E+03 -0.81213087268E+01  0.65017894302E+03  0.90847488256E+02 0.  0.
         11    1    3    3    0    0 -0.93303382242E+02 -0.10969142775E+03 -0.90515887722E+01  0.14429019966E+03  0.00000000000E+00 0.  1.
        -11    1    3    3    0    0 -0.43542657235E+03 -0.25753884236E+03  0.93028004536E+00  0.50588874336E+03  0.00000000000E+00 0. -1.
         22    1    1    2    0    0  0.52872995460E+03  0.36723027011E+03 -0.32596263037E+03  0.72157125259E+03  0.00000000000E+00 0. -1.
<mgrwt>
<rscale>  0 0.13304460E+04</rscale>
<asrwt>0</asrwt>
<pdfrwt beam="1">  1        2 0.79820482E-01 0.13304460E+04</pdfrwt>
<pdfrwt beam="2">  1       -2 0.13121801E+00 0.13304460E+04</pdfrwt>
<totfact> 0.24453405E+01</totfact>
</mgrwt>
</event>
<event>
 6    1  0.1001928E-005  0.4220550E+03  0.7818608E-02  0.1036400E+00
         -1   -1    0    0    0  501 -0.00000000000E+00  0.00000000000E+00  0.39130433108E+03  0.39130433108E+03  0.00000000000E+00 0.  1.
          1   -1    0    0  501    0  0.00000000000E+00 -0.00000000000E+00 -0.11380554703E+03  0.11380554703E+03  0.00000000000E+00 0. -1.
         23    2    1    2    0    0 -0.10463460278E+03  0.42049333957E+02  0.34448655026E+03  0.37394621161E+03  0.91914304018E+02 0.  0.
         13    1    3    3    0    0 -0.64048995805E+02  0.21109027705E+01  0.28291161191E+03  0.29007879951E+03  0.00000000000E+00 0. -1.
        -13    1    3    3    0    0 -0.40585606975E+02  0.39938431187E+02  0.61574938355E+02  0.83867412101E+02  0.00000000000E+00 0.  1.
         22    1    1    2    0    0  0.10463460278E+03 -0.42049333957E+02 -0.66987766210E+02  0.13116366649E+03  0.00000000000E+00 0. -1.
<mgrwt>
<rscale>  0 0.42205499E+03</rscale>
<asrwt>0</asrwt>
<pdfrwt beam="1">  1        1 0.17508546E-01 0.42205499E+03</pdfrwt>
<pdfrwt beam="2">  1       -1 0.60200666E-01 0.42205499E+03</pdfrwt>
<totfact> 0.88054706E+02</totfact>
</mgrwt>
</event>
<event>
 6    1  0.1001928E-005  0.5773809E+03  0.7818608E-02  0.9953478E-01
          1   -1    0    0  501    0  0.00000000000E+00  0.00000000000E+00  0.26855948455E+03  0.26855948455E+03  0.00000000000E+00 0.  1.
         -1   -1    0    0    0  501 -0.00000000000E+00 -0.00000000000E+00 -0.31033038235E+03  0.31033038235E+03  0.00000000000E+00 0. -1.
         23    2    1    2    0    0 -0.77383235795E+02  0.69482291706E+02 -0.28375903358E+03  0.31550001915E+03  0.90582111374E+02 0.  0.
         13    1    3    3    0    0 -0.53064156218E+02  0.80263099141E+02 -0.14370777823E+03  0.17294477524E+03  0.00000000000E+00 0.  1.
        -13    1    3    3    0    0 -0.24319079577E+02 -0.10780807436E+02 -0.14005125535E+03  0.14255524391E+03  0.00000000000E+00 0. -1.
         22    1    1    2    0    0  0.77383235795E+02 -0.69482291706E+02  0.24198813578E+03  0.26338984775E+03  0.00000000000E+00 0.  1.
<mgrwt>
<rscale>  0 0.57738087E+03</rscale>
<asrwt>0</asrwt>
<pdfrwt beam="1">  1        1 0.41316844E-01 0.57738087E+03</pdfrwt>
<pdfrwt beam="2">  1       -1 0.47743136E-01 0.57738087E+03</pdfrwt>
<totfact> 0.44926317E+02</totfact>
</mgrwt>
</event>
<event>
 6    1  0.1001928E-005  0.2567609E+04  0.7818608E-02  0.8379288E-01
          2   -1    0    0  501    0  0.00000000000E+00  0.00000000000E+00  0.14328279032E+04  0.14328279032E+04  0.00000000000E+00 0. -1.
         -2   -1    0    0    0  501 -0.00000000000E+00 -0.00000000000E+00 -0.11502806377E+04  0.11502806377E+04  0.00000000000E+00 0.  1.
         23    2    1    2    0    0 -0.19981416838E+03 -0.46926581130E+03  0.13249429165E+04  0.14226238161E+04  0.90822280401E+02 0.  0.
         13    1    3    3    0    0 -0.79210648834E+02 -0.24862724409E+03  0.56954797918E+03  0.62647803951E+03  0.00000000000E+00 0. -1.
        -13    1    3    3    0    0 -0.12060351954E+03 -0.22063856720E+03  0.75539493728E+03  0.79614577656E+03  0.00000000000E+00 0.  1.
         22    1    1    2    0    0  0.19981416838E+03  0.46926581130E+03 -0.10423956509E+04  0.11604847249E+04  0.00000000000E+00 0.  1.
<mgrwt>
<rscale>  0 0.25676092E+04</rscale>
<asrwt>0</asrwt>
<pdfrwt beam="1">  1        2 0.22043506E+00 0.25676092E+04</pdfrwt>
<pdfrwt beam="2">  1       -2 0.17696625E+00 0.25676092E+04</pdfrwt>
<totfact> 0.23399693E+00</totfact>
</mgrwt>
</event>
<event>
 6    1  0.1001928E-005  0.3332335E+04  0.7818608E-02  0.8154716E-01
          1   -1    0    0  501    0  0.00000000000E+00  0.00000000000E+00  0.15015621838E+04  0.15015621838E+04  0.00000000000E+00 0. -1.
         -1   -1    0    0    0  501 -0.00000000000E+00 -0.00000000000E+00 -0.18488170261E+04  0.18488170261E+04  0.00000000000E+00 0.  1.
         23    2    1    2    0    0  0.60715008871E+03  0.27312199648E+03  0.13607734297E+04  0.15171887035E+04  0.83248902922E+02 0.  0.
         13    1    3    3    0    0  0.14244001380E+03  0.50432527889E+02  0.38737785232E+03  0.41580548081E+03  0.00000000000E+00 0. -1.
        -13    1    3    3    0    0  0.46471007492E+03  0.22268946859E+03  0.97339557737E+03  0.11013832227E+04  0.00000000000E+00 0.  1.
         22    1    1    2    0    0 -0.60715008871E+03 -0.27312199648E+03 -0.17080282719E+04  0.18331905064E+04  0.00000000000E+00 0.  1.
<mgrwt>
<rscale>  0 0.33323348E+04</rscale>
<asrwt>0</asrwt>
<pdfrwt beam="1">  1        1 0.23100957E+00 0.33323348E+04</pdfrwt>
<pdfrwt beam="2">  1       -1 0.28443339E+00 0.33323348E+04</pdfrwt>
<totfact> 0.22490293E-01</totfact>
</mgrwt>
</event>
<event>
 6    1  0.1001928E-005  0.1419411E+04  0.7818608E-02  0.8939886E-01
         -2   -1    0    0    0  501 -0.00000000000E+00  0.00000000000E+00  0.40628709977E+03  0.40628709977E+03  0.00000000000E+00 0.  1.
          2   -1    0    0  501    0  0.00000000000E+00 -0.00000000000E+00 -0.12397198102E+04  0.12397198102E+04  0.00000000000E+00 0. -1.
         23    2    1    2    0    0 -0.38386822250E+03 -0.29361779136E+03 -0.10164626833E+04  0.11292224379E+04  0.91546206495E+02 0.  0.
         13    1    3    3    0    0 -0.19662487325E+03 -0.17719695044E+03 -0.46073782478E+03  0.53135623005E+03  0.00000000000E+00 0. -1.
        -13    1    3    3    0    0 -0.18724334925E+03 -0.11642084092E+03 -0.55572485855E+03  0.59786620782E+03  0.00000000000E+00 0.  1.
         22    1    1    2    0    0  0.38386822250E+03  0.29361779136E+03  0.18302997289E+03  0.51678447212E+03  0.00000000000E+00 0.  1.
<mgrwt>
<rscale>  0 0.14194114E+04</rscale>
<asrwt>0</asrwt>
<pdfrwt beam="1">  1        2 0.19072613E+00 0.14194114E+04</pdfrwt>
<pdfrwt beam="2">  1       -2 0.62505707E-01 0.14194114E+04</pdfrwt>
<totfact> 0.41390909E+01</totfact>
</mgrwt>
</event>
<event>
 6    1  0.1001928E-005  0.2593549E+04  0.7818608E-02  0.8370396E-01
         -1   -1    0    0    0  501 -0.00000000000E+00  0.00000000000E+00  0.59639906343E+03  0.59639906343E+03  0.00000000000E+00 0. -1.
          1   -1    0    0  501    0  0.00000000000E+00 -0.00000000000E+00 -0.28196294208E+04  0.28196294208E+04  0.00000000000E+00 0.  1.
         23    2    1    2    0    0 -0.50040597246E+03 -0.44421897989E+03 -0.25736634504E+04  0.26606875069E+04  0.88191914331E+02 0.  0.
         11    1    3    3    0    0 -0.31922557471E+03 -0.25779451541E+03 -0.17232783742E+04  0.17714545816E+04  0.00000000000E+00 0. -1.
        -11    1    3    3    0    0 -0.18118039775E+03 -0.18642446448E+03 -0.85038507621E+03  0.88923292524E+03  0.00000000000E+00 0.  1.
         22    1    1    2    0    0  0.50040597246E+03  0.44421897989E+03  0.35043309305E+03  0.75534097736E+03  0.00000000000E+00 0. -1.
<mgrwt>
<rscale>  0 0.25935492E+04</rscale>
<asrwt>0</asrwt>
<pdfrwt beam="1">  1        1 0.43378914E+00 0.25935492E+04</pdfrwt>
<pdfrwt beam="2">  1       -1 0.91753702E-01 0.25935492E+04</pdfrwt>
<totfact> 0.82267965E-01</totfact>
</mgrwt>
</event>
<event>
 6    1  0.1001928E-005  0.4114015E+04  0.7818608E-02  0.7981933E-01
         -1   -1    0    0    0  501 -0.00000000000E+00  0.00000000000E+00  0.18948926331E+04  0.18948926331E+04  0.00000000000E+00 0.  1.
          1   -1    0    0  501    0  0.00000000000E+00 -0.00000000000E+00 -0.22329920592E+04  0.22329920592E+04  0.00000000000E+00 0. -1.
         23    2    1    2    0    0 -0.16140307922E+04 -0.93535819852E+03  0.69819393591E+03  0.19938991511E+04  0.90380832490E+02 0.  0.
         13    1    3    3    0    0 -0.73380535547E+03 -0.43144346858E+03  0.36638049975E+03  0.92674076035E+03  0.00000000000E+00 0.  1.
        -13    1    3    3    0    0 -0.88022543677E+03 -0.50391472995E+03  0.33181343616E+03  0.10671583908E+04  0.00000000000E+00 0. -1.
         22    1    1    2    0    0  0.16140307922E+04  0.93535819852E+03 -0.10362933619E+04  0.21339855412E+04  0.00000000000E+00 0. -1.
<mgrwt>
<rscale>  0 0.41140152E+04</rscale>
<asrwt>0</asrwt>
<pdfrwt beam="1">  1        1 0.34353724E+00 0.41140152E+04</pdfrwt>
<pdfrwt beam="2">  1       -1 0.29152194E+00 0.41140152E+04</pdfrwt>
<totfact> 0.60114269E-02</totfact>
</mgrwt>
</event>
<event>
 6    1  0.1001928E-005  0.1190882E+04  0.7818608E-02  0.9120875E-01
          2   -1    0    0  501    0  0.00000000000E+00  0.00000000000E+00  0.62201053804E+03  0.62201053804E+03  0.00000000000E+00 0. -1.
         -2   -1    0    0    0  501 -0.00000000000E+00 -0.00000000000E+00 -0.57000630109E+03  0.57000630109E+03  0.00000000000E+00 0.  1.
         23    2    1    2    0    0  0.23927932747E+03  0.53041982873E+03 -0.82259958676E+02  0.59483456755E+03  0.91987339754E+02 0.  0.
         11    1    3    3    0    0  0.75013504597E+02  0.14782741249E+03  0.17478569340E+02  0.16668974216E+03  0.00000000000E+00 0. -1.
        -11    1    3    3    0    0  0.16426582288E+03  0.38259241624E+03 -0.99738528017E+02  0.42814482538E+03  0.00000000000E+00 0.  1.
         22    1    1    2    0    0 -0.23927932747E+03 -0.53041982873E+03  0.13426419563E+03  0.59718227159E+03  0.00000000000E+00 0. -1.
<mgrwt>
<rscale>  0 0.11908819E+04</rscale>
<asrwt>0</asrwt>
<pdfrwt beam="1">  1        2 0.95693928E-01 0.11908819E+04</pdfrwt>
<pdfrwt beam="2">  1       -2 0.87693278E-01 0.11908819E+04</pdfrwt>
<totfact> 0.52603805E+01</totfact>
</mgrwt>
</event>
<event>
 6    1  0.1667891E-005  0.3337073E+04  0.7818608E-02  0.8153526E-01
         -2   -1    0    0    0  501 -0.00000000000E+00  0.00000000000E+00  0.13990569082E+04  0.13990569082E+04  0.00000000000E+00 0.  1.
          2   -1    0    0  501    0  0.00000000000E+00 -0.00000000000E+00 -0.19899217716E+04  0.19899217716E+04  0.00000000000E+00 0. -1.
         23    2    1    2    0    0 -0.11910780156E+04  0.24926984066E+03 -0.14531655754E+04  0.18975482219E+04  0.90536027072E+02 0.  0.
         11    1    3    3    0    0 -0.62593566558E+03  0.96812236513E+02 -0.70781469529E+03  0.94982614696E+03  0.00000000000E+00 0.  1.
        -11    1    3    3    0    0 -0.56514235006E+03  0.15245760414E+03 -0.74535088006E+03  0.94772207493E+03  0.00000000000E+00 0. -1.
         22    1    1    2    0    0  0.11910780156E+04 -0.24926984066E+03  0.86230071195E+03  0.14914304579E+04  0.00000000000E+00 0.  1.
<mgrwt>
<rscale>  0 0.33370728E+04</rscale>
<asrwt>0</asrwt>
<pdfrwt beam="1">  1        2 0.30614181E+00 0.33370728E+04</pdfrwt>
<pdfrwt beam="2">  1       -2 0.21523953E+00 0.33370728E+04</pdfrwt>
<totfact> 0.59729696E-01</totfact>
</mgrwt>
</event>
<event>
 6    1  0.1001928E-005  0.7402954E+03  0.7818608E-02  0.9650700E-01
         -2   -1    0    0    0  501 -0.00000000000E+00  0.00000000000E+00  0.60438417412E+03  0.60438417412E+03  0.00000000000E+00 0.  1.
          2   -1    0    0  501    0  0.00000000000E+00 -0.00000000000E+00 -0.22669244729E+03  0.22669244729E+03  0.00000000000E+00 0. -1.
         23    2    1    2    0    0 -0.16028654607E+03 -0.30247099688E+03  0.51217539382E+02  0.35803764217E+03  0.91581854441E+02 0.  0.
         11    1    3    3    0    0 -0.13216358477E+03 -0.16019194432E+03  0.13135623150E+02  0.20808944413E+03  0.00000000000E+00 0.  1.
        -11    1    3    3    0    0 -0.28122961301E+02 -0.14227905256E+03  0.38081916232E+02  0.14994819803E+03  0.00000000000E+00 0. -1.
         22    1    1    2    0    0  0.16028654607E+03  0.30247099688E+03  0.32647418745E+03  0.47303897924E+03  0.00000000000E+00 0.  1.
<mgrwt>
<rscale>  0 0.74029542E+03</rscale>
<asrwt>0</asrwt>
<pdfrwt beam="1">  1        2 0.34875761E-01 0.74029542E+03</pdfrwt>
<pdfrwt beam="2">  1       -2 0.92982180E-01 0.74029542E+03</pdfrwt>
<totfact> 0.14850132E+02</totfact>
</mgrwt>
</event>
<event>
 6    1  0.1001928E-005  0.1978314E+04  0.7818608E-02  0.8616827E-01
         -2   -1    0    0    0  501 -0.00000000000E+00  0.00000000000E+00  0.57421759025E+03  0.57421759025E+03  0.00000000000E+00 0.  1.
          2   -1    0    0  501    0  0.00000000000E+00 -0.00000000000E+00 -0.17039385853E+04  0.17039385853E+04  0.00000000000E+00 0. -1.
         23    2    1    2    0    0  0.50417993916E+03  0.19655743670E+03 -0.15162277177E+04  0.16131601728E+04  0.10250372787E+03 0.  0.
         11    1    3    3    0    0  0.39942466042E+03  0.12871712020E+03 -0.12621188902E+04  0.13300572353E+04  0.00000000000E+00 0. -1.
        -11    1    3    3    0    0  0.10475527875E+03  0.67840316492E+02 -0.25410882752E+03  0.28310293745E+03  0.00000000000E+00 0.  1.
         22    1    1    2    0    0 -0.50417993916E+03 -0.19655743670E+03  0.38650672267E+03  0.66499600273E+03  0.00000000000E+00 0.  1.
<mgrwt>
<rscale>  0 0.19783139E+04</rscale>
<asrwt>0</asrwt>
<pdfrwt beam="1">  1        2 0.26214439E+00 0.19783139E+04</pdfrwt>
<pdfrwt beam="2">  1       -2 0.88341169E-01 0.19783139E+04</pdfrwt>
<totfact> 0.10017366E+01</totfact>
</mgrwt>
</event>
<event>
 6    1  0.1001928E-005  0.1001334E+04  0.7818608E-02  0.9307083E-01
         -2   -1    0    0    0  501 -0.00000000000E+00  0.00000000000E+00  0.34756596319E+03  0.34756596319E+03  0.00000000000E+00 0.  1.
          2   -1    0    0  501    0  0.00000000000E+00 -0.00000000000E+00 -0.72120774062E+03  0.72120774062E+03  0.00000000000E+00 0. -1.
         23    2    1    2    0    0 -0.52905126841E+02  0.21949822048E+03 -0.66029878046E+03  0.70387555552E+03  0.92021176619E+02 0.  0.
         13    1    3    3    0    0 -0.67518119406E+02  0.15302150271E+03 -0.37564690747E+03  0.41119931400E+03  0.00000000000E+00 0.  1.
        -13    1    3    3    0    0  0.14612992565E+02  0.66476717765E+02 -0.28465187299E+03  0.29267624152E+03  0.00000000000E+00 0. -1.
         22    1    1    2    0    0  0.52905126841E+02 -0.21949822048E+03  0.28665700302E+03  0.36489814828E+03  0.00000000000E+00 0.  1.
<mgrwt>
<rscale>  0 0.10013336E+04</rscale>
<asrwt>0</asrwt>
<pdfrwt beam="1">  1        2 0.11095504E+00 0.10013336E+04</pdfrwt>
<pdfrwt beam="2">  1       -2 0.53471686E-01 0.10013336E+04</pdfrwt>
<totfact> 0.12983010E+02</totfact>
</mgrwt>
</event>
<event>
 6    1  0.1001928E-005  0.1002140E+04  0.7818608E-02  0.9306201E-01
         -2   -1    0    0    0  501 -0.00000000000E+00  0.00000000000E+00  0.72892744423E+02  0.72892744423E+02  0.00000000000E+00 0.  1.
          2   -1    0    0  501    0  0.00000000000E+00 -0.00000000000E+00 -0.34443901790E+04  0.34443901790E+04  0.00000000000E+00 0. -1.
         23    2    1    2    0    0  0.28006653671E+03 -0.39393982363E+03 -0.12930719701E+04  0.13833948614E+04  0.90113113428E+02 0.  0.
         13    1    3    3    0    0  0.87972977397E+02 -0.64542433972E+02 -0.24845409883E+03  0.27135660994E+03  0.00000000000E+00 0. -1.
        -13    1    3    3    0    0  0.19209355931E+03 -0.32939738966E+03 -0.10446178712E+04  0.11120382515E+04  0.00000000000E+00 0.  1.
         22    1    1    2    0    0 -0.28006653671E+03  0.39393982363E+03 -0.20784254645E+04  0.21338880620E+04  0.00000000000E+00 0. -1.
<mgrwt>
<rscale>  0 0.10021398E+04</rscale>
<asrwt>0</asrwt>
<pdfrwt beam="1">  1        2 0.52990615E+00 0.10021398E+04</pdfrwt>
<pdfrwt beam="2">  1       -2 0.11214269E-01 0.10021398E+04</pdfrwt>
<totfact> 0.52528121E+01</totfact>
</mgrwt>
</event>
<event>
 6    1  0.1001928E-005  0.9316131E+03  0.7818608E-02  0.9386904E-01
          1   -1    0    0  501    0  0.00000000000E+00  0.00000000000E+00  0.29962176911E+03  0.29962176911E+03  0.00000000000E+00 0. -1.
         -1   -1    0    0    0  501 -0.00000000000E+00 -0.00000000000E+00 -0.72416552032E+03  0.72416552032E+03  0.00000000000E+00 0.  1.
         23    2    1    2    0    0 -0.31608787921E+03 -0.28219882119E+03 -0.41482987249E+03  0.59994524161E+03  0.91119414807E+02 0.  0.
         13    1    3    3    0    0 -0.17208186992E+03 -0.21223034680E+03 -0.25582400272E+03  0.37429909220E+03  0.00000000000E+00 0. -1.
        -13    1    3    3    0    0 -0.14400600929E+03 -0.69968474394E+02 -0.15900586977E+03  0.22564614940E+03  0.00000000000E+00 0.  1.
         22    1    1    2    0    0  0.31608787921E+03  0.28219882119E+03 -0.97138787177E+01  0.42384204782E+03  0.00000000000E+00 0. -1.
<mgrwt>
<rscale>  0 0.93161313E+03</rscale>
<asrwt>0</asrwt>
<pdfrwt beam="1">  1        1 0.46095658E-01 0.93161313E+03</pdfrwt>
<pdfrwt beam="2">  1       -1 0.11141008E+00 0.93161313E+03</pdfrwt>
<totfact> 0.65473282E+01</totfact>
</mgrwt>
</event>
<event>
 6    1  0.1001928E-005  0.2546116E+04  0.7818608E-02  0.8386738E-01
         -1   -1    0    0    0  501 -0.00000000000E+00  0.00000000000E+00  0.20590731681E+04  0.20590731681E+04  0.00000000000E+00 0.  1.
          1   -1    0    0  501    0  0.00000000000E+00 -0.00000000000E+00 -0.78709022327E+03  0.78709022327E+03  0.00000000000E+00 0. -1.
         23    2    1    2    0    0 -0.72935228178E+03 -0.17424279072E+03  0.17847089387E+04  0.19377564089E+04  0.86015135574E+02 0.  0.
         11    1    3    3    0    0 -0.12488212864E+03 -0.31558397111E+02  0.23055913691E+03  0.26410034853E+03  0.00000000000E+00 0. -1.
        -11    1    3    3    0    0 -0.60447015314E+03 -0.14268439361E+03  0.15541498017E+04  0.16736560604E+04  0.00000000000E+00 0.  1.
         22    1    1    2    0    0  0.72935228178E+03  0.17424279072E+03 -0.51272599382E+03  0.90840698246E+03  0.00000000000E+00 0. -1.
<mgrwt>
<rscale>  0 0.25461158E+04</rscale>
<asrwt>0</asrwt>
<pdfrwt beam="1">  1        1 0.12109080E+00 0.25461158E+04</pdfrwt>
<pdfrwt beam="2">  1       -1 0.31678049E+00 0.25461158E+04</pdfrwt>
<totfact> 0.51589767E-01</totfact>
</mgrwt>
</event>
<event>
 6    1  0.1001928E-005  0.3504122E+04  0.7818608E-02  0.8112814E-01
         -2   -1    0    0    0  501 -0.00000000000E+00  0.00000000000E+00  0.13266923850E+04  0.13266923850E+04  0.00000000000E+00 0.  1.
          2   -1    0    0  501    0  0.00000000000E+00 -0.00000000000E+00 -0.23138132958E+04  0.23138132958E+04  0.00000000000E+00 0. -1.
         23    2    1    2    0    0 -0.36640047041E+03 -0.73429477939E+03  0.11129752558E+04  0.13857679938E+04  0.90558736276E+02 0.  0.
         13    1    3    3    0    0 -0.16426666389E+03 -0.30604255762E+03  0.39882579601E+03  0.52887389755E+03  0.00000000000E+00 0. -1.
        -13    1    3    3    0    0 -0.20213380652E+03 -0.42825222178E+03  0.71414945983E+03  0.85689409624E+03  0.00000000000E+00 0.  1.
         22    1    1    2    0    0  0.36640047041E+03  0.73429477939E+03 -0.21000961667E+04  0.22547376870E+04  0.00000000000E+00 0. -1.
<mgrwt>
<rscale>  0 0.35041224E+04</rscale>
<asrwt>0</asrwt>
<pdfrwt beam="1">  1        2 0.35597127E+00 0.35041224E+04</pdfrwt>
<pdfrwt beam="2">  1       -2 0.20410652E+00 0.35041224E+04</pdfrwt>
<totfact> 0.45724926E-01</totfact>
</mgrwt>
</event>
<event>
 6    1  0.1001928E-005  0.6704285E+03  0.7818608E-02  0.9769184E-01
         -1   -1    0    0    0  501 -0.00000000000E+00  0.00000000000E+00  0.86626018341E+03  0.86626018341E+03  0.00000000000E+00 0.  1.
          1   -1    0    0  501    0  0.00000000000E+00 -0.00000000000E+00 -0.12971690805E+03  0.12971690805E+03  0.00000000000E+00 0. -1.
         23    2    1    2    0    0  0.14500433435E+03 -0.29330821249E+03  0.32796990453E+03  0.47253830436E+03  0.93124788932E+02 0.  0.
         13    1    3    3    0    0  0.73675241492E+02 -0.17454277002E+03  0.24963494184E+03  0.31338606217E+03  0.00000000000E+00 0.  1.
        -13    1    3    3    0    0  0.71329092858E+02 -0.11876544248E+03  0.78334962688E+02  0.15915224219E+03  0.00000000000E+00 0. -1.
         22    1    1    2    0    0 -0.14500433435E+03  0.29330821249E+03  0.40857337083E+03  0.52343878711E+03  0.00000000000E+00 0. -1.
<mgrwt>
<rscale>  0 0.67042850E+03</rscale>
<asrwt>0</asrwt>
<pdfrwt beam="1">  1        1 0.19956448E-01 0.67042850E+03</pdfrwt>
<pdfrwt beam="2">  1       -1 0.13327079E+00 0.67042850E+03</pdfrwt>
<totfact> 0.12765881E+02</totfact>
</mgrwt>
</event>
<event>
 6    1  0.1001928E-005  0.1890762E+04  0.7818608E-02  0.8659468E-01
         -2   -1    0    0    0  501 -0.00000000000E+00  0.00000000000E+00  0.46013965625E+03  0.46013965625E+03  0.00000000000E+00 0.  1.
          2   -1    0    0  501    0  0.00000000000E+00 -0.00000000000E+00 -0.19423347510E+04  0.19423347510E+04  0.00000000000E+00 0. -1.
         23    2    1    2    0    0 -0.77336740969E+03 -0.10736869667E+03 -0.71695265199E+02  0.79029111850E+03  0.98967941898E+02 0.  0.
         11    1    3    3    0    0 -0.50546809156E+03 -0.11324470655E+03 -0.66752597021E+02  0.52228178635E+03  0.00000000000E+00 0. -1.
        -11    1    3    3    0    0 -0.26789931813E+03  0.58760098741E+01 -0.49426681778E+01  0.26800933215E+03  0.00000000000E+00 0.  1.
         22    1    1    2    0    0  0.77336740969E+03  0.10736869667E+03 -0.14104998296E+04  0.16121832888E+04  0.00000000000E+00 0. -1.
<mgrwt>
<rscale>  0 0.18907620E+04</rscale>
<asrwt>0</asrwt>
<pdfrwt beam="1">  1        2 0.29882073E+00 0.18907620E+04</pdfrwt>
<pdfrwt beam="2">  1       -2 0.70790716E-01 0.18907620E+04</pdfrwt>
<totfact> 0.12227196E+01</totfact>
</mgrwt>
</event>
<event>
 6    1  0.1001928E-005  0.4308271E+04  0.7818608E-02  0.7945090E-01
         -2   -1    0    0    0  501 -0.00000000000E+00  0.00000000000E+00  0.96923175529E+03  0.96923175529E+03  0.00000000000E+00 0.  1.
          2   -1    0    0  501    0  0.00000000000E+00 -0.00000000000E+00 -0.47876064562E+04  0.47876064562E+04  0.00000000000E+00 0. -1.
         23    2    1    2    0    0  0.64140483500E+03 -0.15445020254E+04 -0.97153443568E+02  0.16770864648E+04  0.79331897041E+02 0.  0.
         11    1    3    3    0    0  0.19921828923E+02 -0.21322700532E+02 -0.15439400167E+01  0.29221919451E+02  0.00000000000E+00 0.  1.
        -11    1    3    3    0    0  0.62148300607E+03 -0.15231793249E+04 -0.95609503552E+02  0.16478645453E+04  0.00000000000E+00 0. -1.
         22    1    1    2    0    0 -0.64140483500E+03  0.15445020254E+04 -0.37212212574E+04  0.40797517468E+04  0.00000000000E+00 0. -1.
<mgrwt>
<rscale>  0 0.43082712E+04</rscale>
<asrwt>0</asrwt>
<pdfrwt beam="1">  1        2 0.73655484E+00 0.43082712E+04</pdfrwt>
<pdfrwt beam="2">  1       -2 0.14911258E+00 0.43082712E+04</pdfrwt>
<totfact> 0.14237907E-02</totfact>
</mgrwt>
</event>
<event>
 6    1  0.1001928E-005  0.2519505E+04  0.7818608E-02  0.8396070E-01
         -2   -1    0    0    0  501 -0.00000000000E+00  0.00000000000E+00  0.17599806636E+04  0.17599806636E+04  0.00000000000E+00 0.  1.
          2   -1    0    0  501    0  0.00000000000E+00 -0.00000000000E+00 -0.90170085933E+03  0.90170085933E+03  0.00000000000E+00 0. -1.
         23    2    1    2    0    0 -0.33898579495E+03  0.78083689109E+03  0.14083294339E+04  0.16481864738E+04  0.92245533136E+02 0.  0.
         13    1    3    3    0    0 -0.16342713772E+03  0.26890773163E+03  0.49494285968E+03  0.58650509957E+03  0.00000000000E+00 0.  1.
        -13    1    3    3    0    0 -0.17555865723E+03  0.51192915946E+03  0.91338657420E+03  0.10616813742E+04  0.00000000000E+00 0. -1.
         22    1    1    2    0    0  0.33898579495E+03 -0.78083689109E+03 -0.55004962959E+03  0.10134950492E+04  0.00000000000E+00 0. -1.
<mgrwt>
<rscale>  0 0.25195048E+04</rscale>
<asrwt>0</asrwt>
<pdfrwt beam="1">  1        2 0.13872321E+00 0.25195048E+04</pdfrwt>
<pdfrwt beam="2">  1       -2 0.27076626E+00 0.25195048E+04</pdfrwt>
<totfact> 0.12485150E+00</totfact>
</mgrwt>
</event>
<event>
 6    1  0.1355548E-005  0.5178534E+04  0.7818608E-02  0.7801542E-01
         -2   -1    0    0    0  501 -0.00000000000E+00  0.00000000000E+00  0.30835187933E+04  0.30835187933E+04  0.00000000000E+00 0.  1.
          2   -1    0    0  501    0  0.00000000000E+00 -0.00000000000E+00 -0.21742381763E+04  0.21742381763E+04  0.00000000000E+00 0. -1.
         23    2    1    2    0    0 -0.92220896419E+03 -0.32356061555E+02 -0.20006123213E+04  0.22050543637E+04  0.91097739769E+02 0.  0.
         11    1    3    3    0    0 -0.38313829328E+03  0.19066736945E+02 -0.90398316581E+03  0.98201021191E+03  0.00000000000E+00 0.  1.
        -11    1    3    3    0    0 -0.53907067091E+03 -0.51422798501E+02 -0.10966291555E+04  0.12230441517E+04  0.00000000000E+00 0. -1.
         22    1    1    2    0    0  0.92220896419E+03  0.32356061555E+02  0.29098929383E+04  0.30527026060E+04  0.00000000000E+00 0.  1.
<mgrwt>
<rscale>  0 0.51785343E+04</rscale>
<asrwt>0</asrwt>
<pdfrwt beam="1">  1        2 0.33449818E+00 0.51785343E+04</pdfrwt>
<pdfrwt beam="2">  1       -2 0.47438751E+00 0.51785343E+04</pdfrwt>
<totfact> 0.92486430E-03</totfact>
</mgrwt>
</event>
<event>
 6    1  0.1001928E-005  0.6812949E+04  0.7818608E-02  0.7597040E-01
          1   -1    0    0  501    0  0.00000000000E+00  0.00000000000E+00  0.33479278559E+04  0.33479278559E+04  0.00000000000E+00 0. -1.
         -1   -1    0    0    0  501 -0.00000000000E+00 -0.00000000000E+00 -0.34660451185E+04  0.34660451185E+04  0.00000000000E+00 0.  1.
         23    2    1    2    0    0  0.17154408493E+04  0.20161558407E+04  0.20841948985E+04  0.33704572510E+04  0.92152180194E+02 0.  0.
         11    1    3    3    0    0  0.11065834020E+04  0.12365236483E+04  0.13264334515E+04  0.21243689085E+04  0.00000000000E+00 0.  1.
        -11    1    3    3    0    0  0.60885744730E+03  0.77963219243E+03  0.75776144707E+03  0.12460883425E+04  0.00000000000E+00 0. -1.
         22    1    1    2    0    0 -0.17154408493E+04 -0.20161558407E+04 -0.22023121612E+04  0.34435157233E+04  0.00000000000E+00 0.  1.
<mgrwt>
<rscale>  0 0.68129491E+04</rscale>
<asrwt>0</asrwt>
<pdfrwt beam="1">  1        1 0.51506583E+00 0.68129491E+04</pdfrwt>
<pdfrwt beam="2">  1       -1 0.53323771E+00 0.68129491E+04</pdfrwt>
<totfact> 0.19553371E-04</totfact>
</mgrwt>
</event>
<event>
 6    1  0.1001928E-005  0.1407634E+04  0.7818608E-02  0.8948311E-01
         -1   -1    0    0    0  501 -0.00000000000E+00  0.00000000000E+00  0.20590371979E+03  0.20590371979E+03  0.00000000000E+00 0.  1.
          1   -1    0    0  501    0  0.00000000000E+00 -0.00000000000E+00 -0.24057762248E+04  0.24057762248E+04  0.00000000000E+00 0. -1.
         23    2    1    2    0    0  0.91094849064E+02 -0.67092153911E+03 -0.75887038966E+03  0.10195363959E+04  0.71667364273E+02 0.  0.
         13    1    3    3    0    0  0.69223675642E+02 -0.28405376676E+03 -0.29905683931E+03  0.41822655681E+03  0.00000000000E+00 0.  1.
        -13    1    3    3    0    0  0.21871173422E+02 -0.38686777235E+03 -0.45981355035E+03  0.60130983910E+03  0.00000000000E+00 0. -1.
         22    1    1    2    0    0 -0.91094849064E+02  0.67092153911E+03 -0.14410021153E+04  0.15921435487E+04  0.00000000000E+00 0. -1.
<mgrwt>
<rscale>  0 0.14076339E+04</rscale>
<asrwt>0</asrwt>
<pdfrwt beam="1">  1        1 0.37011942E+00 0.14076339E+04</pdfrwt>
<pdfrwt beam="2">  1       -1 0.31677495E-01 0.14076339E+04</pdfrwt>
<totfact> 0.14260619E+01</totfact>
</mgrwt>
</event>
<event>
 6    1  0.1001928E-005  0.1603267E+04  0.7818608E-02  0.8818543E-01
          2   -1    0    0  501    0  0.00000000000E+00  0.00000000000E+00  0.82115275783E+03  0.82115275783E+03  0.00000000000E+00 0.  1.
         -2   -1    0    0    0  501 -0.00000000000E+00 -0.00000000000E+00 -0.78257821342E+03  0.78257821342E+03  0.00000000000E+00 0. -1.
         23    2    1    2    0    0 -0.29505266586E+03 -0.73439949991E+03  0.12961540459E+03  0.80705842916E+03  0.90246627984E+02 0.  0.
         11    1    3    3    0    0 -0.16254748989E+03 -0.35195421265E+03  0.22269590729E+02  0.38831609411E+03  0.00000000000E+00 0.  1.
        -11    1    3    3    0    0 -0.13250517597E+03 -0.38244528726E+03  0.10734581387E+03  0.41874233505E+03  0.00000000000E+00 0. -1.
         22    1    1    2    0    0  0.29505266586E+03  0.73439949991E+03 -0.91040860183E+02  0.79667254209E+03  0.00000000000E+00 0.  1.
<mgrwt>
<rscale>  0 0.16032670E+04</rscale>
<asrwt>0</asrwt>
<pdfrwt beam="1">  1        2 0.12633119E+00 0.16032670E+04</pdfrwt>
<pdfrwt beam="2">  1       -2 0.12039665E+00 0.16032670E+04</pdfrwt>
<totfact> 0.16793256E+01</totfact>
</mgrwt>
</event>
<event>
 6    1  0.1001928E-005  0.1065189E+04  0.7818608E-02  0.9239801E-01
         -1   -1    0    0    0  501 -0.00000000000E+00  0.00000000000E+00  0.14355481434E+04  0.14355481434E+04  0.00000000000E+00 0.  1.
          1   -1    0    0  501    0  0.00000000000E+00 -0.00000000000E+00 -0.19759495007E+03  0.19759495007E+03  0.00000000000E+00 0. -1.
         23    2    1    2    0    0 -0.44970563538E+03  0.96172534477E+02  0.10236420996E+04  0.11257836944E+04  0.89785654691E+02 0.  0.
         13    1    3    3    0    0 -0.25881676873E+03  0.10000256444E+03  0.62100378487E+03  0.68017081199E+03  0.00000000000E+00 0. -1.
        -13    1    3    3    0    0 -0.19088886665E+03 -0.38300299584E+01  0.40263831468E+03  0.44561288243E+03  0.00000000000E+00 0.  1.
         22    1    1    2    0    0  0.44970563538E+03 -0.96172534477E+02  0.21431109377E+03  0.50735939904E+03  0.00000000000E+00 0. -1.
<mgrwt>
<rscale>  0 0.10651893E+04</rscale>
<asrwt>0</asrwt>
<pdfrwt beam="1">  1        1 0.30399224E-01 0.10651893E+04</pdfrwt>
<pdfrwt beam="2">  1       -1 0.22085355E+00 0.10651893E+04</pdfrwt>
<totfact> 0.16432515E+01</totfact>
</mgrwt>
</event>
<event>
 6    1  0.1001928E-005  0.2252203E+04  0.7818608E-02  0.8497009E-01
         -2   -1    0    0    0  501 -0.00000000000E+00  0.00000000000E+00  0.70723315351E+03  0.70723315351E+03  0.00000000000E+00 0.  1.
          2   -1    0    0  501    0  0.00000000000E+00 -0.00000000000E+00 -0.17930498288E+04  0.17930498288E+04  0.00000000000E+00 0. -1.
         23    2    1    2    0    0 -0.25660771828E+03 -0.82352093670E+03 -0.13441450242E+04  0.15998565334E+04  0.93706067233E+02 0.  0.
         13    1    3    3    0    0 -0.15411582916E+03 -0.37291239047E+03 -0.57224439650E+03  0.70019924956E+03  0.00000000000E+00 0.  1.
        -13    1    3    3    0    0 -0.10249188911E+03 -0.45060854623E+03 -0.77190062767E+03  0.89965728379E+03  0.00000000000E+00 0. -1.
         22    1    1    2    0    0  0.25660771828E+03  0.82352093670E+03  0.25832834884E+03  0.90042644901E+03  0.00000000000E+00 0.  1.
<mgrwt>
<rscale>  0 0.22522027E+04</rscale>
<asrwt>0</asrwt>
<pdfrwt beam="1">  1        2 0.27585382E+00 0.22522027E+04</pdfrwt>
<pdfrwt beam="2">  1       -2 0.10880510E+00 0.22522027E+04</pdfrwt>
<totfact> 0.53456900E+00</totfact>
</mgrwt>
</event>
<event>
 6    1  0.1001928E-005  0.1271527E+04  0.7818608E-02  0.9052454E-01
          1   -1    0    0  501    0  0.00000000000E+00  0.00000000000E+00  0.26555776717E+04  0.26555776717E+04  0.00000000000E+00 0. -1.
         -1   -1    0    0    0  501 -0.00000000000E+00 -0.00000000000E+00 -0.15220609505E+03  0.15220609505E+03  0.00000000000E+00 0.  1.
         23    2    1    2    0    0  0.30052577818E+03 -0.54442566335E+03  0.10019234681E+04  0.11826494741E+04  0.89967197011E+02 0.  0.
         11    1    3    3    0    0  0.99714127038E+02 -0.10837775239E+03  0.26436910534E+03  0.30262132807E+03  0.00000000000E+00 0.  1.
        -11    1    3    3    0    0  0.20081165114E+03 -0.43604791095E+03  0.73755436271E+03  0.88002814605E+03  0.00000000000E+00 0. -1.
         22    1    1    2    0    0 -0.30052577818E+03  0.54442566335E+03  0.15014481087E+04  0.16251342927E+04  0.00000000000E+00 0. -1.
<mgrwt>
<rscale>  0 0.12715268E+04</rscale>
<asrwt>0</asrwt>
<pdfrwt beam="1">  1        1 0.40855038E+00 0.12715268E+04</pdfrwt>
<pdfrwt beam="2">  1       -1 0.23416324E-01 0.12715268E+04</pdfrwt>
<totfact> 0.16378688E+01</totfact>
</mgrwt>
</event>
<event>
 6    1  0.1001928E-005  0.1267424E+04  0.7818608E-02  0.9055805E-01
         -2   -1    0    0    0  501 -0.00000000000E+00  0.00000000000E+00  0.60436499679E+03  0.60436499679E+03  0.00000000000E+00 0.  1.
          2   -1    0    0  501    0  0.00000000000E+00 -0.00000000000E+00 -0.66448428211E+03  0.66448428211E+03  0.00000000000E+00 0. -1.
         23    2    1    2    0    0  0.38459557493E+03 -0.48807468831E+02 -0.52785335972E+03  0.66133706535E+03  0.91878285627E+02 0.  0.
         11    1    3    3    0    0  0.60070180317E+02  0.20734627071E+02 -0.57666109445E+02  0.85812187372E+02  0.00000000000E+00 0. -1.
        -11    1    3    3    0    0  0.32452539461E+03 -0.69542095902E+02 -0.47018725027E+03  0.57552487798E+03  0.00000000000E+00 0.  1.
         22    1    1    2    0    0 -0.38459557493E+03  0.48807468831E+02  0.46773407440E+03  0.60751221356E+03  0.00000000000E+00 0.  1.
<mgrwt>
<rscale>  0 0.12674242E+04</rscale>
<asrwt>0</asrwt>
<pdfrwt beam="1">  1        2 0.10222835E+00 0.12674242E+04</pdfrwt>
<pdfrwt beam="2">  1       -2 0.92979231E-01 0.12674242E+04</pdfrwt>
<totfact> 0.42128676E+01</totfact>
</mgrwt>
</event>
<event>
 6    1  0.1001928E-005  0.1996522E+04  0.7818608E-02  0.8608248E-01
          2   -1    0    0  501    0  0.00000000000E+00  0.00000000000E+00  0.18773027387E+04  0.18773027387E+04  0.00000000000E+00 0. -1.
         -2   -1    0    0    0  501 -0.00000000000E+00 -0.00000000000E+00 -0.53082828362E+03  0.53082828362E+03  0.00000000000E+00 0.  1.
         23    2    1    2    0    0 -0.78790511611E+03  0.56721724078E+03  0.40505993033E+03  0.10558029639E+04  0.90091515619E+02 0.  0.
         11    1    3    3    0    0 -0.35313524477E+03  0.21669101836E+03  0.20785496496E+03  0.46353336988E+03  0.00000000000E+00 0. -1.
        -11    1    3    3    0    0 -0.43476987135E+03  0.35052622242E+03  0.19720496538E+03  0.59226959402E+03  0.00000000000E+00 0.  1.
         22    1    1    2    0    0  0.78790511611E+03 -0.56721724078E+03  0.94141452477E+03  0.13523280585E+04  0.00000000000E+00 0. -1.
<mgrwt>
<rscale>  0 0.19965224E+04</rscale>
<asrwt>0</asrwt>
<pdfrwt beam="1">  1        2 0.28881580E+00 0.19965224E+04</pdfrwt>
<pdfrwt beam="2">  1       -2 0.81665891E-01 0.19965224E+04</pdfrwt>
<totfact> 0.95846895E+00</totfact>
</mgrwt>
</event>
<event>
 6    1  0.1001928E-005  0.3180560E+04  0.7818608E-02  0.8193970E-01
         -2   -1    0    0    0  501 -0.00000000000E+00  0.00000000000E+00  0.82352189558E+03  0.82352189558E+03  0.00000000000E+00 0. -1.
          2   -1    0    0  501    0  0.00000000000E+00 -0.00000000000E+00 -0.30709442327E+04  0.30709442327E+04  0.00000000000E+00 0.  1.
         23    2    1    2    0    0  0.56136699323E+01  0.15855821976E+04 -0.99817819754E+03  0.18758742085E+04  0.91879885582E+02 0.  0.
         11    1    3    3    0    0 -0.28898462651E+02  0.12686497054E+04 -0.77935458115E+03  0.14891946681E+04  0.00000000000E+00 0.  1.
        -11    1    3    3    0    0  0.34512132583E+02  0.31693249215E+03 -0.21882361640E+03  0.38667954041E+03  0.00000000000E+00 0. -1.
         22    1    1    2    0    0 -0.56136699323E+01 -0.15855821976E+04 -0.12492441396E+04  0.20185919198E+04  0.00000000000E+00 0.  1.
<mgrwt>
<rscale>  0 0.31805596E+04</rscale>
<asrwt>0</asrwt>
<pdfrwt beam="1">  1        2 0.47245296E+00 0.31805596E+04</pdfrwt>
<pdfrwt beam="2">  1       -2 0.12669568E+00 0.31805596E+04</pdfrwt>
<totfact> 0.61344110E-01</totfact>
</mgrwt>
</event>
<event>
 6    1  0.1001928E-005  0.2307998E+04  0.7818608E-02  0.8474774E-01
          2   -1    0    0  501    0  0.00000000000E+00  0.00000000000E+00  0.30824200989E+04  0.30824200989E+04  0.00000000000E+00 0. -1.
         -2   -1    0    0    0  501 -0.00000000000E+00 -0.00000000000E+00 -0.43203505210E+03  0.43203505210E+03  0.00000000000E+00 0.  1.
         23    2    1    2    0    0 -0.70420678857E+02 -0.11313445241E+04  0.10120352224E+04  0.15221977250E+04  0.89281120093E+02 0.  0.
         11    1    3    3    0    0  0.18785530262E+02 -0.17579960845E+03  0.17484902555E+03  0.24865755612E+03  0.00000000000E+00 0.  1.
        -11    1    3    3    0    0 -0.89206209119E+02 -0.95554491566E+03  0.83718619687E+03  0.12735401689E+04  0.00000000000E+00 0. -1.
         22    1    1    2    0    0  0.70420678857E+02  0.11313445241E+04  0.16383498244E+04  0.19922574260E+04  0.00000000000E+00 0. -1.
<mgrwt>
<rscale>  0 0.23079979E+04</rscale>
<asrwt>0</asrwt>
<pdfrwt beam="1">  1        2 0.47421846E+00 0.23079979E+04</pdfrwt>
<pdfrwt beam="2">  1       -2 0.66466933E-01 0.23079979E+04</pdfrwt>
<totfact> 0.29138608E+00</totfact>
</mgrwt>
</event>
<event>
 6    1  0.1001928E-005  0.4548527E+04  0.7818608E-02  0.7902196E-01
         -2   -1    0    0    0  501 -0.00000000000E+00  0.00000000000E+00  0.25051061305E+04  0.25051061305E+04  0.00000000000E+00 0.  1.
          2   -1    0    0  501    0  0.00000000000E+00 -0.00000000000E+00 -0.20646929241E+04  0.20646929241E+04  0.00000000000E+00 0. -1.
         23    2    1    2    0    0 -0.12188391746E+03  0.69022188799E+03 -0.19524427214E+04  0.20764034913E+04  0.90315747481E+02 0.  0.
         11    1    3    3    0    0 -0.81489760809E+02  0.24519224647E+03 -0.78062245299E+03  0.82227199451E+03  0.00000000000E+00 0.  1.
        -11    1    3    3    0    0 -0.40394156655E+02  0.44502964152E+03 -0.11718202685E+04  0.12541314968E+04  0.00000000000E+00 0. -1.
         22    1    1    2    0    0  0.12188391746E+03 -0.69022188799E+03  0.23928559278E+04  0.24933955633E+04  0.00000000000E+00 0.  1.
<mgrwt>
<rscale>  0 0.45485272E+04</rscale>
<asrwt>0</asrwt>
<pdfrwt beam="1">  1        2 0.31764506E+00 0.45485272E+04</pdfrwt>
<pdfrwt beam="2">  1       -2 0.38540094E+00 0.45485272E+04</pdfrwt>
<totfact> 0.42877547E-02</totfact>
</mgrwt>
</event>
<event>
 6    1  0.1001928E-005  0.1867886E+04  0.7818608E-02  0.8671009E-01
         -1   -1    0    0    0  501 -0.00000000000E+00  0.00000000000E+00  0.16254564301E+04  0.16254564301E+04  0.00000000000E+00 0.  1.
          1   -1    0    0  501    0  0.00000000000E+00 -0.00000000000E+00 -0.53661843097E+03  0.53661843097E+03  0.00000000000E+00 0. -1.
         23    2    1    2    0    0  0.45410039222E+03 -0.36251799650E+03 -0.29741440835E+03  0.65897067265E+03  0.90335779794E+02 0.  0.
         13    1    3    3    0    0  0.15907712831E+03 -0.16468974967E+03 -0.15377317204E+03  0.27581594377E+03  0.00000000000E+00 0.  1.
        -13    1    3    3    0    0  0.29502326391E+03 -0.19782824683E+03 -0.14364123632E+03  0.38315472888E+03  0.00000000000E+00 0. -1.
         22    1    1    2    0    0 -0.45410039222E+03  0.36251799650E+03  0.13862524074E+04  0.15031041884E+04  0.00000000000E+00 0.  1.
<mgrwt>
<rscale>  0 0.18678864E+04</rscale>
<asrwt>0</asrwt>
<pdfrwt beam="1">  1        1 0.82556682E-01 0.18678864E+04</pdfrwt>
<pdfrwt beam="2">  1       -1 0.25007022E+00 0.18678864E+04</pdfrwt>
<totfact> 0.26243505E+00</totfact>
</mgrwt>
</event>
<event>
 6    1  0.1001928E-005  0.1652292E+04  0.7818608E-02  0.8789052E-01
         -2   -1    0    0    0  501 -0.00000000000E+00  0.00000000000E+00  0.14374471575E+03  0.14374471575E+03  0.00000000000E+00 0.  1.
          2   -1    0    0  501    0  0.00000000000E+00 -0.00000000000E+00 -0.47481187319E+04  0.47481187319E+04  0.00000000000E+00 0. -1.
         23    2    1    2    0    0  0.78058342719E+03  0.45735366474E+02 -0.30759615353E+04  0.31750504344E+04  0.89463312440E+02 0.  0.
         13    1    3    3    0    0  0.23154594314E+03  0.80279477714E+01 -0.10827413978E+04  0.11072519615E+04  0.00000000000E+00 0.  1.
        -13    1    3    3    0    0  0.54903748406E+03  0.37707418702E+02 -0.19932201375E+04  0.20677984730E+04  0.00000000000E+00 0. -1.
         22    1    1    2    0    0 -0.78058342719E+03 -0.45735366474E+02 -0.15284124809E+04  0.17168130132E+04  0.00000000000E+00 0.  1.
<mgrwt>
<rscale>  0 0.16522917E+04</rscale>
<asrwt>0</asrwt>
<pdfrwt beam="1">  1        2 0.73047977E+00 0.16522917E+04</pdfrwt>
<pdfrwt beam="2">  1       -2 0.22114573E-01 0.16522917E+04</pdfrwt>
<totfact> 0.12029407E+00</totfact>
</mgrwt>
</event>
<event>
 6    1  0.1001928E-005  0.4396332E+04  0.7818608E-02  0.7929042E-01
         -1   -1    0    0    0  501 -0.00000000000E+00  0.00000000000E+00  0.14057726041E+04  0.14057726041E+04  0.00000000000E+00 0.  1.
          1   -1    0    0  501    0  0.00000000000E+00 -0.00000000000E+00 -0.34372082482E+04  0.34372082482E+04  0.00000000000E+00 0. -1.
         23    2    1    2    0    0 -0.16119144081E+04 -0.14797849566E+04 -0.12355992968E+04  0.25145936276E+04  0.91890766527E+02 0.  0.
         13    1    3    3    0    0 -0.24319964360E+03 -0.24005613797E+03 -0.22917435486E+03  0.41145340070E+03  0.00000000000E+00 0. -1.
        -13    1    3    3    0    0 -0.13687147645E+04 -0.12397288186E+04 -0.10064249419E+04  0.21031402269E+04  0.00000000000E+00 0.  1.
         22    1    1    2    0    0  0.16119144081E+04  0.14797849566E+04 -0.79583634730E+03  0.23283872247E+04  0.00000000000E+00 0.  1.
<mgrwt>
<rscale>  0 0.43963317E+04</rscale>
<asrwt>0</asrwt>
<pdfrwt beam="1">  1        1 0.52880126E+00 0.43963317E+04</pdfrwt>
<pdfrwt beam="2">  1       -1 0.21627271E+00 0.43963317E+04</pdfrwt>
<totfact> 0.24699119E-02</totfact>
</mgrwt>
</event>
<event>
 6    1  0.1001928E-005  0.2163454E+04  0.7818608E-02  0.8533795E-01
          1   -1    0    0  501    0  0.00000000000E+00  0.00000000000E+00  0.72019906079E+03  0.72019906079E+03  0.00000000000E+00 0. -1.
         -1   -1    0    0    0  501 -0.00000000000E+00 -0.00000000000E+00 -0.16247360324E+04  0.16247360324E+04  0.00000000000E+00 0.  1.
         23    2    1    2    0    0  0.10785104568E+04  0.13203626387E+02 -0.39806884687E+03  0.11533524890E+04  0.91673420248E+02 0.  0.
         11    1    3    3    0    0  0.32897713432E+03  0.17563112030E+02 -0.79405860835E+02  0.33888007989E+03  0.00000000000E+00 0. -1.
        -11    1    3    3    0    0  0.74953332245E+03 -0.43594856430E+01 -0.31866298603E+03  0.81447240914E+03  0.00000000000E+00 0.  1.
         22    1    1    2    0    0 -0.10785104568E+04 -0.13203626387E+02 -0.50646812472E+03  0.11915826041E+04  0.00000000000E+00 0.  1.
<mgrwt>
<rscale>  0 0.21634541E+04</rscale>
<asrwt>0</asrwt>
<pdfrwt beam="1">  1        1 0.11079986E+00 0.21634541E+04</pdfrwt>
<pdfrwt beam="2">  1       -1 0.24995939E+00 0.21634541E+04</pdfrwt>
<totfact> 0.16641633E+00</totfact>
</mgrwt>
</event>
<event>
 6    1  0.1001928E-005  0.8468100E+03  0.7818608E-02  0.9494628E-01
          1   -1    0    0  501    0  0.00000000000E+00  0.00000000000E+00  0.20641011894E+03  0.20641011894E+03  0.00000000000E+00 0. -1.
         -1   -1    0    0    0  501 -0.00000000000E+00 -0.00000000000E+00 -0.86852232969E+03  0.86852232969E+03  0.00000000000E+00 0.  1.
         23    2    1    2    0    0  0.83930177970E+02  0.40737535046E+03 -0.39405142857E+03  0.58010365614E+03  0.90800729986E+02 0.  0.
         13    1    3    3    0    0  0.49865168282E+02  0.76346472256E+02 -0.63976069914E+02  0.11139235322E+03  0.00000000000E+00 0. -1.
        -13    1    3    3    0    0  0.34065009689E+02  0.33102887821E+03 -0.33007535866E+03  0.46871130292E+03  0.00000000000E+00 0.  1.
         22    1    1    2    0    0 -0.83930177970E+02 -0.40737535046E+03 -0.26806078217E+03  0.49482879249E+03  0.00000000000E+00 0.  1.
<mgrwt>
<rscale>  0 0.84681001E+03</rscale>
<asrwt>0</asrwt>
<pdfrwt beam="1">  1        1 0.31755402E-01 0.84681001E+03</pdfrwt>
<pdfrwt beam="2">  1       -1 0.13361882E+00 0.84681001E+03</pdfrwt>
<totfact> 0.68283523E+01</totfact>
</mgrwt>
</event>
<event>
 6    1  0.1001928E-005  0.1780526E+04  0.7818608E-02  0.8716724E-01
         -2   -1    0    0    0  501 -0.00000000000E+00  0.00000000000E+00  0.39615739467E+03  0.39615739467E+03  0.00000000000E+00 0.  1.
          2   -1    0    0  501    0  0.00000000000E+00 -0.00000000000E+00 -0.20006402803E+04  0.20006402803E+04  0.00000000000E+00 0. -1.
         23    2    1    2    0    0  0.15461710660E+03  0.64684754301E+03 -0.15959655320E+04  0.17316730709E+04  0.96267603375E+02 0.  0.
         11    1    3    3    0    0  0.18990863724E+02  0.22655793656E+03 -0.62236208978E+03  0.66258865242E+03  0.00000000000E+00 0.  1.
        -11    1    3    3    0    0  0.13562624288E+03  0.42028960645E+03 -0.97360344227E+03  0.10690844185E+04  0.00000000000E+00 0. -1.
         22    1    1    2    0    0 -0.15461710660E+03 -0.64684754301E+03 -0.85173535307E+01  0.66512460401E+03  0.00000000000E+00 0.  1.
<mgrwt>
<rscale>  0 0.17805263E+04</rscale>
<asrwt>0</asrwt>
<pdfrwt beam="1">  1        2 0.30779081E+00 0.17805263E+04</pdfrwt>
<pdfrwt beam="2">  1       -2 0.60947293E-01 0.17805263E+04</pdfrwt>
<totfact> 0.15814171E+01</totfact>
</mgrwt>
</event>
<event>
 6    1  0.1001928E-005  0.1492296E+04  0.7818608E-02  0.8889592E-01
         -2   -1    0    0    0  501 -0.00000000000E+00  0.00000000000E+00  0.37060603935E+03  0.37060603935E+03  0.00000000000E+00 0.  1.
          2   -1    0    0  501    0  0.00000000000E+00 -0.00000000000E+00 -0.15022339903E+04  0.15022339903E+04  0.00000000000E+00 0. -1.
         23    2    1    2    0    0  0.64009454174E+03  0.19173271856E+03 -0.15910589364E+03  0.69289019610E+03  0.91102583559E+02 0.  0.
         11    1    3    3    0    0  0.85344670712E+02 -0.13344539296E+01 -0.43800496158E+01  0.85467411455E+02  0.00000000000E+00 0. -1.
        -11    1    3    3    0    0  0.55474987102E+03  0.19306717249E+03 -0.15472584403E+03  0.60742278464E+03  0.00000000000E+00 0.  1.
         22    1    1    2    0    0 -0.64009454174E+03 -0.19173271856E+03 -0.97252205731E+03  0.11799498335E+04  0.00000000000E+00 0. -1.
<mgrwt>
<rscale>  0 0.14922962E+04</rscale>
<asrwt>0</asrwt>
<pdfrwt beam="1">  1        2 0.23111293E+00 0.14922962E+04</pdfrwt>
<pdfrwt beam="2">  1       -2 0.57016313E-01 0.14922962E+04</pdfrwt>
<totfact> 0.35279871E+01</totfact>
</mgrwt>
</event>
<event>
 6    1  0.1001928E-005  0.1144663E+04  0.7818608E-02  0.9162721E-01
         -1   -1    0    0    0  501 -0.00000000000E+00  0.00000000000E+00  0.14073828738E+03  0.14073828738E+03  0.00000000000E+00 0.  1.
          1   -1    0    0  501    0  0.00000000000E+00 -0.00000000000E+00 -0.23274639499E+04  0.23274639499E+04  0.00000000000E+00 0. -1.
         23    2    1    2    0    0  0.11808698856E+03  0.55203694726E+03 -0.12432338677E+04  0.13687177695E+04  0.95228959752E+02 0.  0.
         11    1    3    3    0    0  0.25214408820E+02  0.30430578539E+03 -0.60089907540E+03  0.67403076803E+03  0.00000000000E+00 0.  1.
        -11    1    3    3    0    0  0.92872579744E+02  0.24773116186E+03 -0.64233479231E+03  0.69468700149E+03  0.00000000000E+00 0. -1.
         22    1    1    2    0    0 -0.11808698856E+03 -0.55203694726E+03 -0.94349179484E+03  0.10994844678E+04  0.00000000000E+00 0. -1.
<mgrwt>
<rscale>  0 0.11446629E+04</rscale>
<asrwt>0</asrwt>
<pdfrwt beam="1">  1        1 0.35807138E+00 0.11446629E+04</pdfrwt>
<pdfrwt beam="2">  1       -1 0.21652044E-01 0.11446629E+04</pdfrwt>
<totfact> 0.31863741E+01</totfact>
</mgrwt>
</event>
<event>
 6    1  0.1001928E-005  0.1034101E+04  0.7818608E-02  0.9271915E-01
          1   -1    0    0  501    0  0.00000000000E+00  0.00000000000E+00  0.22856531171E+04  0.22856531171E+04  0.00000000000E+00 0. -1.
         -1   -1    0    0    0  501 -0.00000000000E+00 -0.00000000000E+00 -0.11696482075E+03  0.11696482075E+03  0.00000000000E+00 0.  1.
         23    2    1    2    0    0  0.49602811282E+03 -0.11310632262E+03  0.12473126426E+04  0.13501113943E+04  0.90415815400E+02 0.  0.
         11    1    3    3    0    0  0.15582246752E+03 -0.38503117885E+02  0.51028053696E+03  0.53492930176E+03  0.00000000000E+00 0. -1.
        -11    1    3    3    0    0  0.34020564530E+03 -0.74603204738E+02  0.73703210561E+03  0.81518209251E+03  0.00000000000E+00 0.  1.
         22    1    1    2    0    0 -0.49602811282E+03  0.11310632262E+03  0.92137565381E+03  0.10525065436E+04  0.00000000000E+00 0. -1.
<mgrwt>
<rscale>  0 0.10341006E+04</rscale>
<asrwt>0</asrwt>
<pdfrwt beam="1">  1        1 0.35163891E+00 0.10341006E+04</pdfrwt>
<pdfrwt beam="2">  1       -1 0.17994589E-01 0.10341006E+04</pdfrwt>
<totfact> 0.46833110E+01</totfact>
</mgrwt>
</event>
<event>
 6    1  0.1001928E-005  0.3327258E+04  0.7818608E-02  0.8155994E-01
          2   -1    0    0  501    0  0.00000000000E+00  0.00000000000E+00  0.17339268263E+04  0.17339268263E+04  0.00000000000E+00 0.  1.
         -2   -1    0    0    0  501 -0.00000000000E+00 -0.00000000000E+00 -0.15961813399E+04  0.15961813399E+04  0.00000000000E+00 0. -1.
         23    2    1    2    0    0 -0.15133267728E+04 -0.34673036093E+03  0.66364457458E+03  0.16909163790E+04  0.91619948876E+02 0.  0.
         11    1    3    3    0    0 -0.39961566299E+03 -0.13221136190E+03  0.16960088822E+03  0.45380280255E+03  0.00000000000E+00 0.  1.
        -11    1    3    3    0    0 -0.11137111098E+04 -0.21451899903E+03  0.49404368636E+03  0.12371135764E+04  0.00000000000E+00 0. -1.
         22    1    1    2    0    0  0.15133267728E+04  0.34673036093E+03 -0.52589908820E+03  0.16391917872E+04  0.00000000000E+00 0. -1.
<mgrwt>
<rscale>  0 0.33272581E+04</rscale>
<asrwt>0</asrwt>
<pdfrwt beam="1">  1        2 0.26675797E+00 0.33272581E+04</pdfrwt>
<pdfrwt beam="2">  1       -2 0.24556636E+00 0.33272581E+04</pdfrwt>
<totfact> 0.53553020E-01</totfact>
</mgrwt>
</event>
<event>
 6    1  0.1001928E-005  0.2660316E+04  0.7818608E-02  0.8347997E-01
          2   -1    0    0  501    0  0.00000000000E+00  0.00000000000E+00  0.18542821251E+04  0.18542821251E+04  0.00000000000E+00 0. -1.
         -2   -1    0    0    0  501 -0.00000000000E+00 -0.00000000000E+00 -0.95418076248E+03  0.95418076248E+03  0.00000000000E+00 0.  1.
         23    2    1    2    0    0  0.22846762870E+03  0.13064920184E+04  0.53280745005E+03  0.14322275626E+04  0.90956916053E+02 0.  0.
         13    1    3    3    0    0  0.15367000732E+03  0.62489277154E+03  0.24459120207E+03  0.68842596058E+03  0.00000000000E+00 0. -1.
        -13    1    3    3    0    0  0.74797621386E+02  0.68159924689E+03  0.28821624798E+03  0.74380160199E+03  0.00000000000E+00 0.  1.
         22    1    1    2    0    0 -0.22846762870E+03 -0.13064920184E+04  0.36729391256E+03  0.13762353250E+04  0.00000000000E+00 0. -1.
<mgrwt>
<rscale>  0 0.26603160E+04</rscale>
<asrwt>0</asrwt>
<pdfrwt beam="1">  1        2 0.28527417E+00 0.26603160E+04</pdfrwt>
<pdfrwt beam="2">  1       -2 0.14679704E+00 0.26603160E+04</pdfrwt>
<totfact> 0.22480183E+00</totfact>
</mgrwt>
</event>
<event>
 6    1  0.1001928E-005  0.6146365E+04  0.7818608E-02  0.7672515E-01
         -2   -1    0    0    0  501 -0.00000000000E+00  0.00000000000E+00  0.23727926852E+04  0.23727926852E+04  0.00000000000E+00 0.  1.
          2   -1    0    0  501    0  0.00000000000E+00 -0.00000000000E+00 -0.39803100049E+04  0.39803100049E+04  0.00000000000E+00 0. -1.
         23    2    1    2    0    0 -0.21917923300E+04  0.35628446237E+03  0.13910239815E+04  0.26218639989E+04  0.91273631921E+02 0.  0.
         11    1    3    3    0    0 -0.93578631413E+03  0.11814850489E+03  0.62627314978E+03  0.11321983718E+04  0.00000000000E+00 0.  1.
        -11    1    3    3    0    0 -0.12560060158E+04  0.23813595748E+03  0.76475083168E+03  0.14896656271E+04  0.00000000000E+00 0. -1.
         22    1    1    2    0    0  0.21917923300E+04 -0.35628446237E+03 -0.29985413012E+04  0.37312386912E+04  0.00000000000E+00 0. -1.
<mgrwt>
<rscale>  0 0.61463649E+04</rscale>
<asrwt>0</asrwt>
<pdfrwt beam="1">  1        2 0.61235538E+00 0.61463649E+04</pdfrwt>
<pdfrwt beam="2">  1       -2 0.36504503E+00 0.61463649E+04</pdfrwt>
<totfact> 0.29350270E-03</totfact>
</mgrwt>
</event>
<event>
 6    1  0.1001928E-005  0.2127522E+04  0.7818608E-02  0.8549215E-01
         -2   -1    0    0    0  501 -0.00000000000E+00  0.00000000000E+00  0.57960841510E+03  0.57960841510E+03  0.00000000000E+00 0.  1.
          2   -1    0    0  501    0  0.00000000000E+00 -0.00000000000E+00 -0.19523318164E+04  0.19523318164E+04  0.00000000000E+00 0. -1.
         23    2    1    2    0    0  0.15305900359E+03 -0.10364184530E+04 -0.89342718646E+03  0.13798485989E+04  0.90441970821E+02 0.  0.
         11    1    3    3    0    0  0.84818159700E+02 -0.31462503793E+03 -0.25419805553E+03  0.41327918668E+03  0.00000000000E+00 0.  1.
        -11    1    3    3    0    0  0.68240843886E+02 -0.72179341507E+03 -0.63922913093E+03  0.96656941222E+03  0.00000000000E+00 0. -1.
         22    1    1    2    0    0 -0.15305900359E+03  0.10364184530E+04 -0.47929621481E+03  0.11520916326E+04  0.00000000000E+00 0.  1.
<mgrwt>
<rscale>  0 0.21275225E+04</rscale>
<asrwt>0</asrwt>
<pdfrwt beam="1">  1        2 0.30035874E+00 0.21275225E+04</pdfrwt>
<pdfrwt beam="2">  1       -2 0.89170526E-01 0.21275225E+04</pdfrwt>
<totfact> 0.70493987E+00</totfact>
</mgrwt>
</event>
<event>
 6    1  0.1001928E-005  0.6717516E+03  0.7818608E-02  0.9766799E-01
         -4   -1    0    0    0  501 -0.00000000000E+00  0.00000000000E+00  0.51262712546E+02  0.51262712546E+02  0.00000000000E+00 0.  1.
          4   -1    0    0  501    0  0.00000000000E+00 -0.00000000000E+00 -0.22006749695E+04  0.22006749695E+04  0.00000000000E+00 0. -1.
         23    2    1    2    0    0  0.25463412608E+03 -0.20877856371E+03 -0.11342867192E+04  0.11847418780E+04  0.92627907451E+02 0.  0.
         11    1    3    3    0    0  0.74486714933E+02 -0.12388833494E+02 -0.25920325785E+03  0.26997793017E+03  0.00000000000E+00 0. -1.
        -11    1    3    3    0    0  0.18014741115E+03 -0.19638973022E+03 -0.87508346133E+03  0.91476394779E+03  0.00000000000E+00 0.  1.
         22    1    1    2    0    0 -0.25463412608E+03  0.20877856371E+03 -0.10151255378E+04  0.10671958041E+04  0.00000000000E+00 0. -1.
<mgrwt>
<rscale>  0 0.67175165E+03</rscale>
<asrwt>0</asrwt>
<pdfrwt beam="1">  1        4 0.33856542E+00 0.67175165E+03</pdfrwt>
<pdfrwt beam="2">  1       -4 0.78865702E-02 0.67175165E+03</pdfrwt>
<totfact> 0.43804756E+00</totfact>
</mgrwt>
</event>
<event>
 6    1  0.1001928E-005  0.9415220E+03  0.7818608E-02  0.9375115E-01
         -2   -1    0    0    0  501 -0.00000000000E+00  0.00000000000E+00  0.20855517376E+03  0.20855517376E+03  0.00000000000E+00 0. -1.
          2   -1    0    0  501    0  0.00000000000E+00 -0.00000000000E+00 -0.10626247846E+04  0.10626247846E+04  0.00000000000E+00 0.  1.
         23    2    1    2    0    0  0.35923185082E+03 -0.21420200100E+03 -0.15271874195E+03  0.45458761137E+03  0.91634395214E+02 0.  0.
         11    1    3    3    0    0  0.27214438726E+03 -0.20474811261E+03 -0.12078378139E+03  0.36134897120E+03  0.00000000000E+00 0.  1.
        -11    1    3    3    0    0  0.87087463558E+02 -0.94538883895E+01 -0.31934960568E+02  0.93238640172E+02  0.00000000000E+00 0. -1.
         22    1    1    2    0    0 -0.35923185082E+03  0.21420200100E+03 -0.70135086885E+03  0.81659234696E+03  0.00000000000E+00 0. -1.
<mgrwt>
<rscale>  0 0.94152195E+03</rscale>
<asrwt>0</asrwt>
<pdfrwt beam="1">  1        2 0.16348074E+00 0.94152195E+03</pdfrwt>
<pdfrwt beam="2">  1       -2 0.32085411E-01 0.94152195E+03</pdfrwt>
<totfact> 0.20766214E+02</totfact>
</mgrwt>
</event>
<event>
 6    1  0.1001928E-005  0.3209247E+04  0.7818608E-02  0.8186379E-01
          1   -1    0    0  501    0  0.00000000000E+00  0.00000000000E+00  0.13769309619E+04  0.13769309619E+04  0.00000000000E+00 0. -1.
         -1   -1    0    0    0  501 -0.00000000000E+00 -0.00000000000E+00 -0.18699672788E+04  0.18699672788E+04  0.00000000000E+00 0.  1.
         23    2    1    2    0    0  0.14061578906E+03  0.60442963471E+03 -0.17424735562E+04  0.18518350169E+04  0.89279630339E+02 0.  0.
         11    1    3    3    0    0  0.12733540607E+03  0.36808841376E+03 -0.10392333642E+04  0.11098240272E+04  0.00000000000E+00 0.  1.
        -11    1    3    3    0    0  0.13280382995E+02  0.23634122096E+03 -0.70324019195E+03  0.74201098972E+03  0.00000000000E+00 0. -1.
         22    1    1    2    0    0 -0.14061578906E+03 -0.60442963471E+03  0.12494372393E+04  0.13950632238E+04  0.00000000000E+00 0. -1.
<mgrwt>
<rscale>  0 0.32092465E+04</rscale>
<asrwt>0</asrwt>
<pdfrwt beam="1">  1        1 0.21183553E+00 0.32092465E+04</pdfrwt>
<pdfrwt beam="2">  1       -1 0.28768727E+00 0.32092465E+04</pdfrwt>
<totfact> 0.26459017E-01</totfact>
</mgrwt>
</event>
<event>
 6    1  0.1001928E-005  0.2391766E+04  0.7818608E-02  0.8442593E-01
         -1   -1    0    0    0  501 -0.00000000000E+00  0.00000000000E+00  0.53724587949E+03  0.53724587949E+03  0.00000000000E+00 0.  1.
          1   -1    0    0  501    0  0.00000000000E+00 -0.00000000000E+00 -0.26619779655E+04  0.26619779655E+04  0.00000000000E+00 0. -1.
         23    2    1    2    0    0  0.86022165102E+03  0.74654720365E+03 -0.58448962321E+03  0.12835879557E+04  0.93037111951E+02 0.  0.
         13    1    3    3    0    0  0.22366498186E+03  0.21921852541E+03 -0.20281899038E+03  0.37311972456E+03  0.00000000000E+00 0.  1.
        -13    1    3    3    0    0  0.63655666916E+03  0.52732867823E+03 -0.38167063283E+03  0.91046823114E+03  0.00000000000E+00 0. -1.
         22    1    1    2    0    0 -0.86022165102E+03 -0.74654720365E+03 -0.15402424628E+04  0.19156358893E+04  0.00000000000E+00 0. -1.
<mgrwt>
<rscale>  0 0.23917665E+04</rscale>
<asrwt>0</asrwt>
<pdfrwt beam="1">  1        1 0.40953507E+00 0.23917665E+04</pdfrwt>
<pdfrwt beam="2">  1       -1 0.82653213E-01 0.23917665E+04</pdfrwt>
<totfact> 0.13614364E+00</totfact>
</mgrwt>
</event>
<event>
 6    1  0.1001928E-005  0.1536692E+04  0.7818608E-02  0.8860413E-01
          3   -1    0    0  501    0  0.00000000000E+00  0.00000000000E+00  0.10118421517E+04  0.10118421517E+04  0.00000000000E+00 0. -1.
         -3   -1    0    0    0  501 -0.00000000000E+00 -0.00000000000E+00 -0.58344604610E+03  0.58344604610E+03  0.00000000000E+00 0.  1.
         23    2    1    2    0    0 -0.22374675990E+02 -0.32907107431E+03 -0.50238153726E+03  0.60779874544E+03  0.90794867178E+02 0.  0.
         11    1    3    3    0    0  0.13639358365E+02 -0.24766299511E+03 -0.32020230019E+03  0.40503395449E+03  0.00000000000E+00 0.  1.
        -11    1    3    3    0    0 -0.36014034355E+02 -0.81408079201E+02 -0.18217923707E+03  0.20276479095E+03  0.00000000000E+00 0. -1.
         22    1    1    2    0    0  0.22374675990E+02  0.32907107431E+03  0.93077764284E+03  0.98748945234E+03  0.00000000000E+00 0. -1.
<mgrwt>
<rscale>  0 0.15366916E+04</rscale>
<asrwt>0</asrwt>
<pdfrwt beam="1">  1        3 0.15566802E+00 0.15366916E+04</pdfrwt>
<pdfrwt beam="2">  1       -3 0.89760930E-01 0.15366916E+04</pdfrwt>
<totfact> 0.83137614E-01</totfact>
</mgrwt>
</event>
<event>
 6    1  0.1001928E-005  0.2186969E+04  0.7818608E-02  0.8523871E-01
         -2   -1    0    0    0  501 -0.00000000000E+00  0.00000000000E+00  0.13823380945E+04  0.13823380945E+04  0.00000000000E+00 0.  1.
          2   -1    0    0  501    0  0.00000000000E+00 -0.00000000000E+00 -0.86499017865E+03  0.86499017865E+03  0.00000000000E+00 0. -1.
         23    2    1    2    0    0 -0.24317881234E+03 -0.10370408919E+04  0.50629708618E+03  0.11820997216E+04  0.80207643789E+02 0.  0.
         11    1    3    3    0    0 -0.21343727452E+02 -0.22010140522E+03  0.12010530740E+03  0.25164552082E+03  0.00000000000E+00 0. -1.
        -11    1    3    3    0    0 -0.22183508489E+03 -0.81693948666E+03  0.38619177878E+03  0.93045420078E+03  0.00000000000E+00 0.  1.
         22    1    1    2    0    0  0.24317881234E+03  0.10370408919E+04  0.11050829662E+02  0.10652285515E+04  0.00000000000E+00 0. -1.
<mgrwt>
<rscale>  0 0.21869695E+04</rscale>
<asrwt>0</asrwt>
<pdfrwt beam="1">  1        2 0.13307541E+00 0.21869695E+04</pdfrwt>
<pdfrwt beam="2">  1       -2 0.21266740E+00 0.21869695E+04</pdfrwt>
<totfact> 0.31197146E+00</totfact>
</mgrwt>
</event>
<event>
 6    1  0.1001928E-005  0.7540921E+03  0.7818608E-02  0.9628952E-01
          2   -1    0    0  501    0  0.00000000000E+00  0.00000000000E+00  0.88850066441E+03  0.88850066441E+03  0.00000000000E+00 0. -1.
         -2   -1    0    0    0  501 -0.00000000000E+00 -0.00000000000E+00 -0.16000406279E+03  0.16000406279E+03  0.00000000000E+00 0.  1.
         23    2    1    2    0    0 -0.55841627580E+02  0.17399423172E+03 -0.81589908171E+02  0.21806361949E+03  0.86617255713E+02 0.  0.
         11    1    3    3    0    0 -0.29450846382E+02  0.16854488202E+03 -0.53809159793E+02  0.17936040613E+03  0.00000000000E+00 0. -1.
        -11    1    3    3    0    0 -0.26390781198E+02  0.54493497005E+01 -0.27780748378E+02  0.38703213366E+02  0.00000000000E+00 0.  1.
         22    1    1    2    0    0  0.55841627580E+02 -0.17399423172E+03  0.81008650978E+03  0.83044110771E+03  0.00000000000E+00 0. -1.
<mgrwt>
<rscale>  0 0.75409208E+03</rscale>
<asrwt>0</asrwt>
<pdfrwt beam="1">  1        2 0.13669241E+00 0.75409208E+03</pdfrwt>
<pdfrwt beam="2">  1       -2 0.24616010E-01 0.75409208E+03</pdfrwt>
<totfact> 0.44247674E+02</totfact>
</mgrwt>
</event>
<event>
 6    1  0.1001928E-005  0.9385013E+03  0.7818608E-02  0.9378693E-01
          2   -1    0    0  501    0  0.00000000000E+00  0.00000000000E+00  0.19846819973E+04  0.19846819973E+04  0.00000000000E+00 0. -1.
         -2   -1    0    0    0  501 -0.00000000000E+00 -0.00000000000E+00 -0.11094782716E+03  0.11094782716E+03  0.00000000000E+00 0.  1.
         23    2    1    2    0    0 -0.28631641097E+03 -0.28057613416E+03  0.42117887769E+03  0.58877318500E+03  0.92531951808E+02 0.  0.
         13    1    3    3    0    0 -0.12561242311E+03 -0.94143942825E+02  0.22331915913E+03  0.27297071206E+03  0.00000000000E+00 0.  1.
        -13    1    3    3    0    0 -0.16070398787E+03 -0.18643219134E+03  0.19785971856E+03  0.31580247293E+03  0.00000000000E+00 0. -1.
         22    1    1    2    0    0  0.28631641097E+03  0.28057613416E+03  0.14525552924E+04  0.15068566394E+04  0.00000000000E+00 0. -1.
<mgrwt>
<rscale>  0 0.93850126E+03</rscale>
<asrwt>0</asrwt>
<pdfrwt beam="1">  1        2 0.30533566E+00 0.93850126E+03</pdfrwt>
<pdfrwt beam="2">  1       -2 0.17068898E-01 0.93850126E+03</pdfrwt>
<totfact> 0.19310093E+02</totfact>
</mgrwt>
</event>
<event>
 6    1  0.1001928E-005  0.3442296E+04  0.7818608E-02  0.8127603E-01
          2   -1    0    0  501    0  0.00000000000E+00  0.00000000000E+00  0.38832297211E+04  0.38832297211E+04  0.00000000000E+00 0. -1.
         -2   -1    0    0    0  501 -0.00000000000E+00 -0.00000000000E+00 -0.76285743496E+03  0.76285743496E+03  0.00000000000E+00 0.  1.
         23    2    1    2    0    0 -0.95747855116E+03  0.80280816464E+03  0.31564664866E+04  0.33960595898E+04  0.93133943430E+02 0.  0.
         11    1    3    3    0    0 -0.95920407544E+02  0.46763964666E+02  0.27291282664E+03  0.29303413439E+03  0.00000000000E+00 0.  1.
        -11    1    3    3    0    0 -0.86155814361E+03  0.75604419998E+03  0.28835536599E+04  0.31030254554E+04  0.00000000000E+00 0. -1.
         22    1    1    2    0    0  0.95747855116E+03 -0.80280816464E+03 -0.36094200420E+02  0.12500275663E+04  0.00000000000E+00 0.  1.
<mgrwt>
<rscale>  0 0.34422961E+04</rscale>
<asrwt>0</asrwt>
<pdfrwt beam="1">  1        2 0.59741994E+00 0.34422961E+04</pdfrwt>
<pdfrwt beam="2">  1       -2 0.11736268E+00 0.34422961E+04</pdfrwt>
<totfact> 0.19578730E-01</totfact>
</mgrwt>
</event>
<event>
 6    1  0.1001928E-005  0.1735587E+04  0.7818608E-02  0.8741324E-01
          1   -1    0    0  501    0  0.00000000000E+00  0.00000000000E+00  0.13871325413E+04  0.13871325413E+04  0.00000000000E+00 0. -1.
         -1   -1    0    0    0  501 -0.00000000000E+00 -0.00000000000E+00 -0.54289347453E+03  0.54289347453E+03  0.00000000000E+00 0.  1.
         23    2    1    2    0    0 -0.67965719238E+01  0.16396108785E+03  0.13682143971E+04  0.13809544553E+04  0.89972993539E+02 0.  0.
         11    1    3    3    0    0  0.67712493453E+01  0.13791000683E+03  0.78862514781E+03  0.80062141088E+03  0.00000000000E+00 0.  1.
        -11    1    3    3    0    0 -0.13567821269E+02  0.26051081019E+02  0.57958924930E+03  0.58033304447E+03  0.00000000000E+00 0. -1.
         22    1    1    2    0    0  0.67965719238E+01 -0.16396108785E+03 -0.52397533034E+03  0.54907156047E+03  0.00000000000E+00 0.  1.
<mgrwt>
<rscale>  0 0.17355866E+04</rscale>
<asrwt>0</asrwt>
<pdfrwt beam="1">  1        1 0.21340501E+00 0.17355866E+04</pdfrwt>
<pdfrwt beam="2">  1       -1 0.83522074E-01 0.17355866E+04</pdfrwt>
<totfact> 0.10584637E+01</totfact>
</mgrwt>
</event>
<event>
 6    1  0.1001928E-005  0.4804189E+04  0.7818608E-02  0.7859444E-01
          2   -1    0    0  501    0  0.00000000000E+00  0.00000000000E+00  0.43785147418E+04  0.43785147418E+04  0.00000000000E+00 0. -1.
         -2   -1    0    0    0  501 -0.00000000000E+00 -0.00000000000E+00 -0.13178116844E+04  0.13178116844E+04  0.00000000000E+00 0.  1.
         23    2    1    2    0    0 -0.18762124119E+04 -0.88430868201E+03  0.29654047851E+04  0.36199698527E+04  0.91549632673E+02 0.  0.
         13    1    3    3    0    0 -0.12448547321E+04 -0.58499162262E+03  0.20409272520E+04  0.24611506558E+04  0.00000000000E+00 0. -1.
        -13    1    3    3    0    0 -0.63135767981E+03 -0.29931705939E+03  0.92447753314E+03  0.11588191969E+04  0.00000000000E+00 0.  1.
         22    1    1    2    0    0  0.18762124119E+04  0.88430868201E+03  0.95298272211E+02  0.20763565735E+04  0.00000000000E+00 0.  1.
<mgrwt>
<rscale>  0 0.48041890E+04</rscale>
<asrwt>0</asrwt>
<pdfrwt beam="1">  1        2 0.67361765E+00 0.48041890E+04</pdfrwt>
<pdfrwt beam="2">  1       -2 0.20274026E+00 0.48041890E+04</pdfrwt>
<totfact> 0.15047384E-02</totfact>
</mgrwt>
</event>
<event>
 6    1  0.1159013E-005  0.2212666E+04  0.7818608E-02  0.8513175E-01
         -1   -1    0    0    0  501 -0.00000000000E+00  0.00000000000E+00  0.79503280760E+03  0.79503280760E+03  0.00000000000E+00 0. -1.
          1   -1    0    0  501    0  0.00000000000E+00 -0.00000000000E+00 -0.15395250080E+04  0.15395250080E+04  0.00000000000E+00 0.  1.
         23    2    1    2    0    0 -0.28371338049E+03 -0.10004865285E+04  0.19414109132E+02  0.10442014983E+04  0.92267466435E+02 0.  0.
         13    1    3    3    0    0 -0.19499594390E+03 -0.52490897480E+03  0.22502874182E+02  0.56040987617E+03  0.00000000000E+00 0. -1.
        -13    1    3    3    0    0 -0.88717436595E+02 -0.47557755369E+03 -0.30887650506E+01  0.48379162208E+03  0.00000000000E+00 0.  1.
         22    1    1    2    0    0  0.28371338049E+03  0.10004865285E+04 -0.76390630951E+03  0.12903563173E+04  0.00000000000E+00 0.  1.
<mgrwt>
<rscale>  0 0.22126662E+04</rscale>
<asrwt>0</asrwt>
<pdfrwt beam="1">  1        1 0.23685000E+00 0.22126662E+04</pdfrwt>
<pdfrwt beam="2">  1       -1 0.12231274E+00 0.22126662E+04</pdfrwt>
<totfact> 0.33038742E+00</totfact>
</mgrwt>
</event>
<event>
 6    1  0.1001928E-005  0.1599601E+04  0.7818608E-02  0.8820793E-01
         -2   -1    0    0    0  501 -0.00000000000E+00  0.00000000000E+00  0.53488117467E+03  0.53488117467E+03  0.00000000000E+00 0.  1.
          2   -1    0    0  501    0  0.00000000000E+00 -0.00000000000E+00 -0.11959314074E+04  0.11959314074E+04  0.00000000000E+00 0. -1.
         23    2    1    2    0    0  0.63375365377E+03 -0.88095157277E+02  0.18302940267E+03  0.67162662989E+03  0.90432943869E+02 0.  0.
         13    1    3    3    0    0  0.96191009217E+02 -0.21818993440E+02  0.62424521474E+02  0.11672874372E+03  0.00000000000E+00 0.  1.
        -13    1    3    3    0    0  0.53756264455E+03 -0.66276163837E+02  0.12060488119E+03  0.55489788617E+03  0.00000000000E+00 0. -1.
         22    1    1    2    0    0 -0.63375365377E+03  0.88095157277E+02 -0.84407963540E+03  0.10591859522E+04  0.00000000000E+00 0. -1.
<mgrwt>
<rscale>  0 0.15996014E+04</rscale>
<asrwt>0</asrwt>
<pdfrwt beam="1">  1        2 0.18398945E+00 0.15996014E+04</pdfrwt>
<pdfrwt beam="2">  1       -2 0.82289412E-01 0.15996014E+04</pdfrwt>
<totfact> 0.23693455E+01</totfact>
</mgrwt>
</event>
<event>
 6    1  0.1001928E-005  0.1592651E+04  0.7818608E-02  0.8825075E-01
         -2   -1    0    0    0  501 -0.00000000000E+00  0.00000000000E+00  0.67882119636E+03  0.67882119636E+03  0.00000000000E+00 0.  1.
          2   -1    0    0  501    0  0.00000000000E+00 -0.00000000000E+00 -0.93417036659E+03  0.93417036659E+03  0.00000000000E+00 0. -1.
         23    2    1    2    0    0 -0.16778360558E+03  0.20779461446E+03  0.62888776181E+03  0.68930065574E+03  0.91135267339E+02 0.  0.
         13    1    3    3    0    0 -0.98073199061E+02  0.18272164230E+03  0.44063288454E+03  0.48699372673E+03  0.00000000000E+00 0. -1.
        -13    1    3    3    0    0 -0.69710406514E+02  0.25072972161E+02  0.18825487727E+03  0.20230692901E+03  0.00000000000E+00 0.  1.
         22    1    1    2    0    0  0.16778360558E+03 -0.20779461446E+03 -0.88423693204E+03  0.92369090722E+03  0.00000000000E+00 0. -1.
<mgrwt>
<rscale>  0 0.15926514E+04</rscale>
<asrwt>0</asrwt>
<pdfrwt beam="1">  1        2 0.14371852E+00 0.15926514E+04</pdfrwt>
<pdfrwt beam="2">  1       -2 0.10443403E+00 0.15926514E+04</pdfrwt>
<totfact> 0.19875939E+01</totfact>
</mgrwt>
</event>
<event>
 6    1  0.1001928E-005  0.3598213E+04  0.7818608E-02  0.8090901E-01
          1   -1    0    0  501    0  0.00000000000E+00  0.00000000000E+00  0.30026651950E+04  0.30026651950E+04  0.00000000000E+00 0.  1.
         -1   -1    0    0    0  501 -0.00000000000E+00 -0.00000000000E+00 -0.10779702190E+04  0.10779702190E+04  0.00000000000E+00 0. -1.
         23    2    1    2    0    0 -0.37839010338E+03 -0.13121066267E+04  0.22892911758E+04  0.26672234928E+04  0.91783455699E+02 0.  0.
         13    1    3    3    0    0 -0.25891002171E+03 -0.73689659438E+03  0.13235077961E+04  0.15367901212E+04  0.00000000000E+00 0. -1.
        -13    1    3    3    0    0 -0.11948008167E+03 -0.57521003236E+03  0.96578337964E+03  0.11304333716E+04  0.00000000000E+00 0.  1.
         22    1    1    2    0    0  0.37839010338E+03  0.13121066267E+04 -0.36459619975E+03  0.14134119213E+04  0.00000000000E+00 0. -1.
<mgrwt>
<rscale>  0 0.35982127E+04</rscale>
<asrwt>0</asrwt>
<pdfrwt beam="1">  1        1 0.46194849E+00 0.35982127E+04</pdfrwt>
<pdfrwt beam="2">  1       -1 0.16584157E+00 0.35982127E+04</pdfrwt>
<totfact> 0.12709545E-01</totfact>
</mgrwt>
</event>
<event>
 6    1  0.1001928E-005  0.5887350E+04  0.7818608E-02  0.7704528E-01
          2   -1    0    0  501    0  0.00000000000E+00  0.00000000000E+00  0.42311492009E+04  0.42311492009E+04  0.00000000000E+00 0. -1.
         -2   -1    0    0    0  501 -0.00000000000E+00 -0.00000000000E+00 -0.20479595275E+04  0.20479595275E+04  0.00000000000E+00 0.  1.
         23    2    1    2    0    0  0.16463167816E+04  0.23185235518E+04  0.19007221664E+04  0.34215401293E+04  0.91003829914E+02 0.  0.
         13    1    3    3    0    0  0.11593670034E+04  0.15790033165E+04  0.13430365584E+04  0.23751064227E+04  0.00000000000E+00 0. -1.
        -13    1    3    3    0    0  0.48694977820E+03  0.73952023536E+03  0.55768560795E+03  0.10464337066E+04  0.00000000000E+00 0.  1.
         22    1    1    2    0    0 -0.16463167816E+04 -0.23185235518E+04  0.28246750699E+03  0.28575685990E+04  0.00000000000E+00 0. -1.
<mgrwt>
<rscale>  0 0.58873499E+04</rscale>
<asrwt>0</asrwt>
<pdfrwt beam="1">  1        2 0.65094603E+00 0.58873499E+04</pdfrwt>
<pdfrwt beam="2">  1       -2 0.31507070E+00 0.58873499E+04</pdfrwt>
<totfact> 0.37788307E-03</totfact>
</mgrwt>
</event>
<event>
 6    1  0.1001928E-005  0.1493107E+04  0.7818608E-02  0.8889049E-01
         -2   -1    0    0    0  501 -0.00000000000E+00  0.00000000000E+00  0.50452437948E+03  0.50452437948E+03  0.00000000000E+00 0. -1.
          2   -1    0    0  501    0  0.00000000000E+00 -0.00000000000E+00 -0.11046888479E+04  0.11046888479E+04  0.00000000000E+00 0.  1.
         23    2    1    2    0    0  0.22102356411E+03 -0.19898403762E+03 -0.10360021953E+04  0.10815764326E+04  0.89782892142E+02 0.  0.
         13    1    3    3    0    0  0.17636384413E+03 -0.11906021138E+03 -0.81589837462E+03  0.84319019038E+03  0.00000000000E+00 0.  1.
        -13    1    3    3    0    0  0.44659719981E+02 -0.79923826241E+02 -0.22010382067E+03  0.23838624218E+03  0.00000000000E+00 0. -1.
         22    1    1    2    0    0 -0.22102356411E+03  0.19898403762E+03  0.43583772685E+03  0.52763679484E+03  0.00000000000E+00 0. -1.
<mgrwt>
<rscale>  0 0.14931074E+04</rscale>
<asrwt>0</asrwt>
<pdfrwt beam="1">  1        2 0.16995213E+00 0.14931074E+04</pdfrwt>
<pdfrwt beam="2">  1       -2 0.77619137E-01 0.14931074E+04</pdfrwt>
<totfact> 0.30952351E+01</totfact>
</mgrwt>
</event>
<event>
 6    1  0.1001928E-005  0.3018116E+04  0.7818608E-02  0.8238577E-01
         -2   -1    0    0    0  501 -0.00000000000E+00  0.00000000000E+00  0.21066330376E+04  0.21066330376E+04  0.00000000000E+00 0.  1.
          2   -1    0    0  501    0  0.00000000000E+00 -0.00000000000E+00 -0.10809931495E+04  0.10809931495E+04  0.00000000000E+00 0. -1.
         23    2    1    2    0    0  0.14630704419E+04 -0.18304409522E+03  0.84590530859E+03  0.17022357409E+04  0.89277474595E+02 0.  0.
         13    1    3    3    0    0  0.10541032626E+04 -0.15003808840E+03  0.56888744930E+03  0.12071777193E+04  0.00000000000E+00 0.  1.
        -13    1    3    3    0    0  0.40896717938E+03 -0.33006006818E+02  0.27701785929E+03  0.49505802151E+03  0.00000000000E+00 0. -1.
         22    1    1    2    0    0 -0.14630704419E+04  0.18304409522E+03  0.17973457952E+03  0.14853904463E+04  0.00000000000E+00 0. -1.
<mgrwt>
<rscale>  0 0.30181159E+04</rscale>
<asrwt>0</asrwt>
<pdfrwt beam="1">  1        2 0.16630664E+00 0.30181159E+04</pdfrwt>
<pdfrwt beam="2">  1       -2 0.32409739E+00 0.30181159E+04</pdfrwt>
<totfact> 0.43209550E-01</totfact>
</mgrwt>
</event>
<event>
 6    1  0.1001928E-005  0.3215749E+04  0.7818608E-02  0.8184670E-01
          2   -1    0    0  501    0  0.00000000000E+00  0.00000000000E+00  0.30683170333E+04  0.30683170333E+04  0.00000000000E+00 0. -1.
         -2   -1    0    0    0  501 -0.00000000000E+00 -0.00000000000E+00 -0.84256622557E+03  0.84256622557E+03  0.00000000000E+00 0.  1.
         23    2    1    2    0    0 -0.31815868379E+03  0.48039320332E+03 -0.71006808674E+03  0.91905519579E+03  0.91995582651E+02 0.  0.
         11    1    3    3    0    0 -0.10996822973E+03  0.16711412045E+03 -0.18015939077E+03  0.26921654274E+03  0.00000000000E+00 0. -1.
        -11    1    3    3    0    0 -0.20819045406E+03  0.31327908287E+03 -0.52990869597E+03  0.64983865304E+03  0.00000000000E+00 0.  1.
         22    1    1    2    0    0  0.31815868379E+03 -0.48039320332E+03  0.29358188945E+04  0.29918280631E+04  0.00000000000E+00 0. -1.
<mgrwt>
<rscale>  0 0.32157489E+04</rscale>
<asrwt>0</asrwt>
<pdfrwt beam="1">  1        2 0.47204877E+00 0.32157489E+04</pdfrwt>
<pdfrwt beam="2">  1       -2 0.12962557E+00 0.32157489E+04</pdfrwt>
<totfact> 0.57955366E-01</totfact>
</mgrwt>
</event>
<event>
 6    1  0.1001928E-005  0.1908486E+04  0.7818608E-02  0.8650644E-01
         -1   -1    0    0    0  501 -0.00000000000E+00  0.00000000000E+00  0.84052349317E+03  0.84052349317E+03  0.00000000000E+00 0.  1.
          1   -1    0    0  501    0  0.00000000000E+00 -0.00000000000E+00 -0.10833482202E+04  0.10833482202E+04  0.00000000000E+00 0. -1.
         23    2    1    2    0    0  0.33202918756E+03 -0.42120273674E+03  0.67109350926E+03  0.86420116577E+03  0.93925661702E+02 0.  0.
         13    1    3    3    0    0  0.18632728590E+03 -0.30735599698E+03  0.43290879798E+03  0.56266828036E+03  0.00000000000E+00 0. -1.
        -13    1    3    3    0    0  0.14570190165E+03 -0.11384673976E+03  0.23818471128E+03  0.30153288541E+03  0.00000000000E+00 0.  1.
         22    1    1    2    0    0 -0.33202918756E+03  0.42120273674E+03 -0.91391823629E+03  0.10596705476E+04  0.00000000000E+00 0. -1.
<mgrwt>
<rscale>  0 0.19084859E+04</rscale>
<asrwt>0</asrwt>
<pdfrwt beam="1">  1        1 0.16666896E+00 0.19084859E+04</pdfrwt>
<pdfrwt beam="2">  1       -1 0.12931131E+00 0.19084859E+04</pdfrwt>
<totfact> 0.62728972E+00</totfact>
</mgrwt>
</event>
<event>
 6    1  0.1001928E-005  0.2244035E+04  0.7818608E-02  0.8500320E-01
          2   -1    0    0  501    0  0.00000000000E+00  0.00000000000E+00  0.18682335884E+04  0.18682335884E+04  0.00000000000E+00 0. -1.
         -2   -1    0    0    0  501 -0.00000000000E+00 -0.00000000000E+00 -0.67385758409E+03  0.67385758409E+03  0.00000000000E+00 0.  1.
         23    2    1    2    0    0 -0.37250474959E+03 -0.43165398243E+03  0.16903655302E+04  0.17863858339E+04  0.93561597767E+02 0.  0.
         11    1    3    3    0    0 -0.11258997610E+03 -0.14781345592E+03  0.68875676629E+03  0.71338012559E+03  0.00000000000E+00 0.  1.
        -11    1    3    3    0    0 -0.25991477350E+03 -0.28384052651E+03  0.10016087640E+04  0.10730057083E+04  0.00000000000E+00 0. -1.
         22    1    1    2    0    0  0.37250474959E+03  0.43165398243E+03 -0.49598952592E+03  0.75570533863E+03  0.00000000000E+00 0.  1.
<mgrwt>
<rscale>  0 0.22440351E+04</rscale>
<asrwt>0</asrwt>
<pdfrwt beam="1">  1        2 0.28742055E+00 0.22440351E+04</pdfrwt>
<pdfrwt beam="2">  1       -2 0.10367040E+00 0.22440351E+04</pdfrwt>
<totfact> 0.54587137E+00</totfact>
</mgrwt>
</event>
<event>
 6    1  0.1001928E-005  0.2018798E+04  0.7818608E-02  0.8597882E-01
          2   -1    0    0  501    0  0.00000000000E+00  0.00000000000E+00  0.16081836033E+04  0.16081836033E+04  0.00000000000E+00 0.  1.
         -2   -1    0    0    0  501 -0.00000000000E+00 -0.00000000000E+00 -0.63356315238E+03  0.63356315238E+03  0.00000000000E+00 0. -1.
         23    2    1    2    0    0  0.99988873101E+03 -0.11308263026E+03  0.44007083246E+03  0.11023133657E+04  0.94166145446E+02 0.  0.
         11    1    3    3    0    0  0.76179840235E+03 -0.58021471857E+02  0.30117272444E+03  0.82122366440E+03  0.00000000000E+00 0. -1.
        -11    1    3    3    0    0  0.23809032866E+03 -0.55061158403E+02  0.13889810802E+03  0.28108970130E+03  0.00000000000E+00 0.  1.
         22    1    1    2    0    0 -0.99988873101E+03  0.11308263026E+03  0.53454961849E+03  0.11394333900E+04  0.00000000000E+00 0.  1.
<mgrwt>
<rscale>  0 0.20187975E+04</rscale>
<asrwt>0</asrwt>
<pdfrwt beam="1">  1        2 0.24741286E+00 0.20187975E+04</pdfrwt>
<pdfrwt beam="2">  1       -2 0.97471255E-01 0.20187975E+04</pdfrwt>
<totfact> 0.89831641E+00</totfact>
</mgrwt>
</event>
<event>
 6    1  0.1001928E-005  0.5220646E+04  0.7818608E-02  0.7795343E-01
         -2   -1    0    0    0  501 -0.00000000000E+00  0.00000000000E+00  0.23128041274E+04  0.23128041274E+04  0.00000000000E+00 0.  1.
          2   -1    0    0  501    0  0.00000000000E+00 -0.00000000000E+00 -0.29461151574E+04  0.29461151574E+04  0.00000000000E+00 0. -1.
         23    2    1    2    0    0 -0.74733911865E+03 -0.75538166846E+03 -0.27175919331E+04  0.29194013631E+04  0.92093327305E+02 0.  0.
         13    1    3    3    0    0 -0.43250377357E+03 -0.49775626932E+03 -0.17176369324E+04  0.18398634322E+04  0.00000000000E+00 0. -1.
        -13    1    3    3    0    0 -0.31483534508E+03 -0.25762539914E+03 -0.99995500071E+03  0.10795379309E+04  0.00000000000E+00 0.  1.
         22    1    1    2    0    0  0.74733911865E+03  0.75538166846E+03  0.20842809030E+04  0.23395179217E+04  0.00000000000E+00 0.  1.
<mgrwt>
<rscale>  0 0.52206464E+04</rscale>
<asrwt>0</asrwt>
<pdfrwt beam="1">  1        2 0.45324849E+00 0.52206464E+04</pdfrwt>
<pdfrwt beam="2">  1       -2 0.35581602E+00 0.52206464E+04</pdfrwt>
<totfact> 0.19236588E-02</totfact>
</mgrwt>
</event>
<event>
 6    1  0.1001928E-005  0.2059386E+04  0.7818608E-02  0.8579348E-01
         -1   -1    0    0    0  501 -0.00000000000E+00  0.00000000000E+00  0.16537716111E+04  0.16537716111E+04  0.00000000000E+00 0.  1.
          1   -1    0    0  501    0  0.00000000000E+00 -0.00000000000E+00 -0.64112094962E+03  0.64112094962E+03  0.00000000000E+00 0. -1.
         23    2    1    2    0    0 -0.45249651942E+03  0.71451843424E+03 -0.14331436688E+03  0.86257107454E+03  0.90554723384E+02 0.  0.
         11    1    3    3    0    0 -0.16613744767E+03  0.21632500554E+03 -0.11417046934E+02  0.27299909982E+03  0.00000000000E+00 0.  1.
        -11    1    3    3    0    0 -0.28635907175E+03  0.49819342869E+03 -0.13189731995E+03  0.58957197472E+03  0.00000000000E+00 0. -1.
         22    1    1    2    0    0  0.45249651942E+03 -0.71451843424E+03  0.11559650283E+04  0.14323214862E+04  0.00000000000E+00 0. -1.
<mgrwt>
<rscale>  0 0.20593860E+04</rscale>
<asrwt>0</asrwt>
<pdfrwt beam="1">  1        1 0.98633993E-01 0.20593860E+04</pdfrwt>
<pdfrwt beam="2">  1       -1 0.25442640E+00 0.20593860E+04</pdfrwt>
<totfact> 0.18713188E+00</totfact>
</mgrwt>
</event>
<event>
 6    1  0.1477565E-005  0.4184816E+04  0.7818608E-02  0.7968267E-01
         -2   -1    0    0    0  501 -0.00000000000E+00  0.00000000000E+00  0.13879272751E+04  0.13879272751E+04  0.00000000000E+00 0.  1.
          2   -1    0    0  501    0  0.00000000000E+00 -0.00000000000E+00 -0.31544671306E+04  0.31544671306E+04  0.00000000000E+00 0. -1.
         23    2    1    2    0    0  0.13153547995E+04 -0.13615491516E+04 -0.18484289424E+04  0.26474853939E+04  0.92276839835E+02 0.  0.
         13    1    3    3    0    0  0.42662030241E+03 -0.42170034211E+03 -0.52956464118E+03  0.80017171292E+03  0.00000000000E+00 0.  1.
        -13    1    3    3    0    0  0.88873449705E+03 -0.93984880946E+03 -0.13188643012E+04  0.18473136810E+04  0.00000000000E+00 0. -1.
         22    1    1    2    0    0 -0.13153547995E+04  0.13615491516E+04  0.81889086859E+02  0.18949090118E+04  0.00000000000E+00 0.  1.
<mgrwt>
<rscale>  0 0.41848159E+04</rscale>
<asrwt>0</asrwt>
<pdfrwt beam="1">  1        2 0.48530263E+00 0.41848159E+04</pdfrwt>
<pdfrwt beam="2">  1       -2 0.21352728E+00 0.41848159E+04</pdfrwt>
<totfact> 0.11716031E-01</totfact>
</mgrwt>
</event>
<event>
 6    1  0.1001928E-005  0.1820466E+04  0.7818608E-02  0.8695491E-01
         -1   -1    0    0    0  501 -0.00000000000E+00  0.00000000000E+00  0.69858482782E+03  0.69858482782E+03  0.00000000000E+00 0.  1.
          1   -1    0    0  501    0  0.00000000000E+00 -0.00000000000E+00 -0.11860031094E+04  0.11860031094E+04  0.00000000000E+00 0. -1.
         23    2    1    2    0    0  0.89923609805E+03  0.12609516319E+03 -0.27501551744E+03  0.95204277238E+03  0.78907258218E+02 0.  0.
         11    1    3    3    0    0  0.42053281078E+03  0.26073317970E+02 -0.15034949198E+03  0.44736185867E+03  0.00000000000E+00 0. -1.
        -11    1    3    3    0    0  0.47870328727E+03  0.10002184522E+03 -0.12466602546E+03  0.50468091371E+03  0.00000000000E+00 0.  1.
         22    1    1    2    0    0 -0.89923609805E+03 -0.12609516319E+03 -0.21240276412E+03  0.93254516481E+03  0.00000000000E+00 0.  1.
<mgrwt>
<rscale>  0 0.18204656E+04</rscale>
<asrwt>0</asrwt>
<pdfrwt beam="1">  1        1 0.18246202E+00 0.18204656E+04</pdfrwt>
<pdfrwt beam="2">  1       -1 0.10747459E+00 0.18204656E+04</pdfrwt>
<totfact> 0.83095613E+00</totfact>
</mgrwt>
</event>
<event>
 6    1  0.1001928E-005  0.5170004E+04  0.7818608E-02  0.7802805E-01
         -2   -1    0    0    0  501 -0.00000000000E+00  0.00000000000E+00  0.56605459609E+04  0.56605459609E+04  0.00000000000E+00 0.  1.
          2   -1    0    0  501    0  0.00000000000E+00 -0.00000000000E+00 -0.11804928642E+04  0.11804928642E+04  0.00000000000E+00 0. -1.
         23    2    1    2    0    0 -0.23521729154E+04 -0.41751181839E+03  0.93675778304E+03  0.25676355886E+04  0.90574992797E+02 0.  0.
         13    1    3    3    0    0 -0.93756340748E+03 -0.12144430051E+03  0.37104598595E+03  0.10156027692E+04  0.00000000000E+00 0.  1.
        -13    1    3    3    0    0 -0.14146095079E+04 -0.29606751789E+03  0.56571179709E+03  0.15520328193E+04  0.00000000000E+00 0. -1.
         22    1    1    2    0    0  0.23521729154E+04  0.41751181839E+03  0.35432953137E+04  0.42734032366E+04  0.00000000000E+00 0.  1.
<mgrwt>
<rscale>  0 0.51700035E+04</rscale>
<asrwt>0</asrwt>
<pdfrwt beam="1">  1        2 0.18161429E+00 0.51700035E+04</pdfrwt>
<pdfrwt beam="2">  1       -2 0.87085321E+00 0.51700035E+04</pdfrwt>
<totfact> 0.28210231E-04</totfact>
</mgrwt>
</event>
<event>
 6    1  0.1001928E-005  0.4258188E+04  0.7818608E-02  0.7954395E-01
         -1   -1    0    0    0  501 -0.00000000000E+00  0.00000000000E+00  0.26811110439E+04  0.26811110439E+04  0.00000000000E+00 0.  1.
          1   -1    0    0  501    0  0.00000000000E+00 -0.00000000000E+00 -0.16907319971E+04  0.16907319971E+04  0.00000000000E+00 0. -1.
         23    2    1    2    0    0 -0.50080966877E+03  0.15550153939E+04  0.18955971059E+04  0.25041431362E+04  0.92527072458E+02 0.  0.
         13    1    3    3    0    0 -0.17807287075E+03  0.43655320090E+03  0.58043416040E+03  0.74779172172E+03  0.00000000000E+00 0. -1.
        -13    1    3    3    0    0 -0.32273679802E+03  0.11184621931E+04  0.13151629455E+04  0.17563514145E+04  0.00000000000E+00 0.  1.
         22    1    1    2    0    0  0.50080966877E+03 -0.15550153939E+04 -0.90521805912E+03  0.18676999048E+04  0.00000000000E+00 0. -1.
<mgrwt>
<rscale>  0 0.42581875E+04</rscale>
<asrwt>0</asrwt>
<pdfrwt beam="1">  1        1 0.26011261E+00 0.42581875E+04</pdfrwt>
<pdfrwt beam="2">  1       -1 0.41247862E+00 0.42581875E+04</pdfrwt>
<totfact> 0.21762776E-02</totfact>
</mgrwt>
</event>
<event>
 6    1  0.1001928E-005  0.3349324E+04  0.7818608E-02  0.8150457E-01
         -1   -1    0    0    0  501 -0.00000000000E+00  0.00000000000E+00  0.98766426873E+03  0.98766426873E+03  0.00000000000E+00 0.  1.
          1   -1    0    0  501    0  0.00000000000E+00 -0.00000000000E+00 -0.28395199391E+04  0.28395199391E+04  0.00000000000E+00 0. -1.
         23    2    1    2    0    0  0.10191675067E+04  0.12147725881E+04 -0.31580140183E+03  0.16195072470E+04  0.93264946989E+02 0.  0.
         13    1    3    3    0    0  0.77677514530E+03  0.93416315978E+03 -0.20176441046E+03  0.12315637672E+04  0.00000000000E+00 0.  1.
        -13    1    3    3    0    0  0.24239236139E+03  0.28060942830E+03 -0.11403699137E+03  0.38794347979E+03  0.00000000000E+00 0. -1.
         22    1    1    2    0    0 -0.10191675067E+04 -0.12147725881E+04 -0.15360542686E+04  0.22076769608E+04  0.00000000000E+00 0. -1.
<mgrwt>
<rscale>  0 0.33493237E+04</rscale>
<asrwt>0</asrwt>
<pdfrwt beam="1">  1        1 0.43684922E+00 0.33493237E+04</pdfrwt>
<pdfrwt beam="2">  1       -1 0.15194835E+00 0.33493237E+04</pdfrwt>
<totfact> 0.21723518E-01</totfact>
</mgrwt>
</event>
<event>
 6    1  0.1001928E-005  0.2838608E+04  0.7818608E-02  0.8291381E-01
          2   -1    0    0  501    0  0.00000000000E+00  0.00000000000E+00  0.29047067546E+04  0.29047067546E+04  0.00000000000E+00 0. -1.
         -2   -1    0    0    0  501 -0.00000000000E+00 -0.00000000000E+00 -0.69350321011E+03  0.69350321011E+03  0.00000000000E+00 0.  1.
         23    2    1    2    0    0  0.95677956288E+03  0.27653077343E+02 -0.21894980580E+03  0.98634528013E+03  0.93520957703E+02 0.  0.
         13    1    3    3    0    0  0.76261670372E+03 -0.12080238877E+02 -0.15701567435E+03  0.77870667838E+03  0.00000000000E+00 0. -1.
        -13    1    3    3    0    0  0.19416285916E+03  0.39733316219E+02 -0.61934131445E+02  0.20763860174E+03  0.00000000000E+00 0.  1.
         22    1    1    2    0    0 -0.95677956288E+03 -0.27653077343E+02  0.24301533503E+04  0.26118646846E+04  0.00000000000E+00 0. -1.
<mgrwt>
<rscale>  0 0.28386077E+04</rscale>
<asrwt>0</asrwt>
<pdfrwt beam="1">  1        2 0.44687795E+00 0.28386077E+04</pdfrwt>
<pdfrwt beam="2">  1       -2 0.10669280E+00 0.28386077E+04</pdfrwt>
<totfact> 0.12239127E+00</totfact>
</mgrwt>
</event>
<event>
 6    1  0.1001928E-005  0.2074729E+04  0.7818608E-02  0.8572458E-01
          1   -1    0    0  501    0  0.00000000000E+00  0.00000000000E+00  0.98725937752E+03  0.98725937752E+03  0.00000000000E+00 0. -1.
         -1   -1    0    0    0  501 -0.00000000000E+00 -0.00000000000E+00 -0.10900123951E+04  0.10900123951E+04  0.00000000000E+00 0.  1.
         23    2    1    2    0    0 -0.25712588662E+03 -0.80652117757E+02 -0.10523129295E+04  0.10902142708E+04  0.92661583116E+02 0.  0.
         13    1    3    3    0    0 -0.15853645034E+03 -0.48349558856E+02 -0.46148267975E+03  0.49034452137E+03  0.00000000000E+00 0. -1.
        -13    1    3    3    0    0 -0.98589436282E+02 -0.32302558901E+02 -0.59083024973E+03  0.59986974941E+03  0.00000000000E+00 0.  1.
         22    1    1    2    0    0  0.25712588662E+03  0.80652117757E+02  0.94955991189E+03  0.98705750184E+03  0.00000000000E+00 0. -1.
<mgrwt>
<rscale>  0 0.20747289E+04</rscale>
<asrwt>0</asrwt>
<pdfrwt beam="1">  1        1 0.15188606E+00 0.20747289E+04</pdfrwt>
<pdfrwt beam="2">  1       -1 0.16769422E+00 0.20747289E+04</pdfrwt>
<totfact> 0.36520973E+00</totfact>
</mgrwt>
</event>
<event>
 6    1  0.1001928E-005  0.3048463E+04  0.7818608E-02  0.8230026E-01
         -1   -1    0    0    0  501 -0.00000000000E+00  0.00000000000E+00  0.11258920080E+04  0.11258920080E+04  0.00000000000E+00 0.  1.
          1   -1    0    0  501    0  0.00000000000E+00 -0.00000000000E+00 -0.20635027419E+04  0.20635027419E+04  0.00000000000E+00 0. -1.
         23    2    1    2    0    0 -0.11711362374E+04 -0.66082813587E+03  0.27820464176E+03  0.13765348712E+04  0.95898473304E+02 0.  0.
         13    1    3    3    0    0 -0.94564398789E+03 -0.49769617506E+03  0.19708784525E+03  0.10866405354E+04  0.00000000000E+00 0.  1.
        -13    1    3    3    0    0 -0.22549224956E+03 -0.16313196082E+03  0.81116796505E+02  0.28989433580E+03  0.00000000000E+00 0. -1.
         22    1    1    2    0    0  0.11711362374E+04  0.66082813587E+03 -0.12158153757E+04  0.18128598786E+04  0.00000000000E+00 0. -1.
<mgrwt>
<rscale>  0 0.30484627E+04</rscale>
<asrwt>0</asrwt>
<pdfrwt beam="1">  1        1 0.31746196E+00 0.30484627E+04</pdfrwt>
<pdfrwt beam="2">  1       -1 0.17321416E+00 0.30484627E+04</pdfrwt>
<totfact> 0.53300349E-01</totfact>
</mgrwt>
</event>
<event>
 6    1  0.1001928E-005  0.2846263E+04  0.7818608E-02  0.8289048E-01
         -2   -1    0    0    0  501 -0.00000000000E+00  0.00000000000E+00  0.85937143500E+03  0.85937143500E+03  0.00000000000E+00 0.  1.
          2   -1    0    0  501    0  0.00000000000E+00 -0.00000000000E+00 -0.23567270595E+04  0.23567270595E+04  0.00000000000E+00 0. -1.
         23    2    1    2    0    0 -0.55400199006E+03  0.97592807852E+03  0.23682667570E+03  0.11504891244E+04  0.90468401390E+02 0.  0.
         11    1    3    3    0    0 -0.42952572230E+03  0.67360281800E+03  0.16617413641E+03  0.81599445227E+03  0.00000000000E+00 0.  1.
        -11    1    3    3    0    0 -0.12447626776E+03  0.30232526052E+03  0.70652539290E+02  0.33449467215E+03  0.00000000000E+00 0. -1.
         22    1    1    2    0    0  0.55400199006E+03 -0.97592807852E+03 -0.17341823002E+04  0.20656093701E+04  0.00000000000E+00 0. -1.
<mgrwt>
<rscale>  0 0.28462635E+04</rscale>
<asrwt>0</asrwt>
<pdfrwt beam="1">  1        2 0.36257339E+00 0.28462635E+04</pdfrwt>
<pdfrwt beam="2">  1       -2 0.13221099E+00 0.28462635E+04</pdfrwt>
<totfact> 0.15178699E+00</totfact>
</mgrwt>
</event>
<event>
 6    1  0.1001928E-005  0.2594158E+04  0.7818608E-02  0.8370188E-01
         -2   -1    0    0    0  501 -0.00000000000E+00  0.00000000000E+00  0.12131789494E+04  0.12131789494E+04  0.00000000000E+00 0.  1.
          2   -1    0    0  501    0  0.00000000000E+00 -0.00000000000E+00 -0.13867809867E+04  0.13867809867E+04  0.00000000000E+00 0. -1.
         23    2    1    2    0    0 -0.33066784526E+01 -0.29687719953E+03  0.11768422157E+04  0.12172644939E+04  0.92888328604E+02 0.  0.
         13    1    3    3    0    0  0.80829215338E+01 -0.79989463785E+02  0.50022174341E+03  0.50664133321E+03  0.00000000000E+00 0.  1.
        -13    1    3    3    0    0 -0.11389599986E+02 -0.21688773574E+03  0.67662047231E+03  0.71062316065E+03  0.00000000000E+00 0. -1.
         22    1    1    2    0    0  0.33066784526E+01  0.29687719953E+03 -0.13504442530E+04  0.13826954423E+04  0.00000000000E+00 0. -1.
<mgrwt>
<rscale>  0 0.25941577E+04</rscale>
<asrwt>0</asrwt>
<pdfrwt beam="1">  1        2 0.21335092E+00 0.25941577E+04</pdfrwt>
<pdfrwt beam="2">  1       -2 0.18664292E+00 0.25941577E+04</pdfrwt>
<totfact> 0.21283161E+00</totfact>
</mgrwt>
</event>
<event>
 6    1  0.1001928E-005  0.1817633E+04  0.7818608E-02  0.8696979E-01
         -1   -1    0    0    0  501 -0.00000000000E+00  0.00000000000E+00  0.57730674978E+03  0.57730674978E+03  0.00000000000E+00 0.  1.
          1   -1    0    0  501    0  0.00000000000E+00 -0.00000000000E+00 -0.14306900061E+04  0.14306900061E+04  0.00000000000E+00 0. -1.
         23    2    1    2    0    0 -0.66208436785E+02  0.65278649705E+03 -0.11187990065E+04  0.13002119806E+04  0.91248066694E+02 0.  0.
         13    1    3    3    0    0 -0.40837376102E+02  0.10391770840E+03 -0.22148302186E+03  0.24803489751E+03  0.00000000000E+00 0. -1.
        -13    1    3    3    0    0 -0.25371060683E+02  0.54886878864E+03 -0.89731598461E+03  0.10521770831E+04  0.00000000000E+00 0.  1.
         22    1    1    2    0    0  0.66208436785E+02 -0.65278649705E+03  0.26541575011E+03  0.70778477536E+03  0.00000000000E+00 0.  1.
<mgrwt>
<rscale>  0 0.18176325E+04</rscale>
<asrwt>0</asrwt>
<pdfrwt beam="1">  1        1 0.22010615E+00 0.18176325E+04</pdfrwt>
<pdfrwt beam="2">  1       -1 0.88816424E-01 0.18176325E+04</pdfrwt>
<totfact> 0.85674267E+00</totfact>
</mgrwt>
</event>
<event>
 6    1  0.1001928E-005  0.5501551E+03  0.7818608E-02  0.1001458E+00
          2   -1    0    0  501    0  0.00000000000E+00  0.00000000000E+00  0.11306829643E+03  0.11306829643E+03  0.00000000000E+00 0. -1.
         -2   -1    0    0    0  501 -0.00000000000E+00 -0.00000000000E+00 -0.66922093465E+03  0.66922093465E+03  0.00000000000E+00 0.  1.
         23    2    1    2    0    0 -0.31240669696E+02 -0.24550421782E+03 -0.14094143096E+03  0.29891706902E+03  0.90766881504E+02 0.  0.
         11    1    3    3    0    0 -0.49257989352E+02 -0.22654185069E+03 -0.14347083990E+03  0.27263793120E+03  0.00000000000E+00 0. -1.
        -11    1    3    3    0    0  0.18017319656E+02 -0.18962367137E+02  0.25294089381E+01  0.26279137821E+02  0.00000000000E+00 0.  1.
         22    1    1    2    0    0  0.31240669696E+02  0.24550421782E+03 -0.41521120727E+03  0.48337216206E+03  0.00000000000E+00 0.  1.
<mgrwt>
<rscale>  0 0.55015515E+03</rscale>
<asrwt>0</asrwt>
<pdfrwt beam="1">  1        2 0.17395123E-01 0.55015515E+03</pdfrwt>
<pdfrwt beam="2">  1       -2 0.10295707E+00 0.55015515E+03</pdfrwt>
<totfact> 0.26162442E+02</totfact>
</mgrwt>
</event>
<event>
 6    1  0.1001928E-005  0.1597534E+04  0.7818608E-02  0.8822064E-01
         -2   -1    0    0    0  501 -0.00000000000E+00  0.00000000000E+00  0.49238772802E+03  0.49238772802E+03  0.00000000000E+00 0. -1.
          2   -1    0    0  501    0  0.00000000000E+00 -0.00000000000E+00 -0.12957857630E+04  0.12957857630E+04  0.00000000000E+00 0.  1.
         23    2    1    2    0    0 -0.60967698981E+03 -0.15883754929E+03 -0.94780523122E+03  0.11418076215E+04  0.91948296519E+02 0.  0.
         13    1    3    3    0    0 -0.16016432008E+03 -0.81317048723E+02 -0.29616129399E+03  0.34637636163E+03  0.00000000000E+00 0.  1.
        -13    1    3    3    0    0 -0.44951266973E+03 -0.77520500569E+02 -0.65164393723E+03  0.79543125987E+03  0.00000000000E+00 0. -1.
         22    1    1    2    0    0  0.60967698981E+03  0.15883754929E+03  0.14440719622E+03  0.64636586952E+03  0.00000000000E+00 0. -1.
<mgrwt>
<rscale>  0 0.15975344E+04</rscale>
<asrwt>0</asrwt>
<pdfrwt beam="1">  1        2 0.19935166E+00 0.15975344E+04</pdfrwt>
<pdfrwt beam="2">  1       -2 0.75751957E-01 0.15975344E+04</pdfrwt>
<totfact> 0.24905399E+01</totfact>
</mgrwt>
</event>
<event>
 6    1  0.1001928E-005  0.1131704E+04  0.7818608E-02  0.9174830E-01
         -1   -1    0    0    0  501 -0.00000000000E+00  0.00000000000E+00  0.72518882877E+02  0.72518882877E+02  0.00000000000E+00 0. -1.
          1   -1    0    0  501    0  0.00000000000E+00 -0.00000000000E+00 -0.44152431957E+04  0.44152431957E+04  0.00000000000E+00 0.  1.
         23    2    1    2    0    0  0.54573574472E+03 -0.76243710757E+02 -0.17438845348E+04  0.18311460359E+04  0.91224599183E+02 0.  0.
         13    1    3    3    0    0  0.32552956926E+03 -0.85511047885E+02 -0.11197145571E+04  0.11692058541E+04  0.00000000000E+00 0.  1.
        -13    1    3    3    0    0  0.22020617546E+03  0.92673371275E+01 -0.62416997767E+03  0.66194018180E+03  0.00000000000E+00 0. -1.
         22    1    1    2    0    0 -0.54573574472E+03  0.76243710757E+02 -0.25988397781E+04  0.26566160428E+04  0.00000000000E+00 0.  1.
<mgrwt>
<rscale>  0 0.11317040E+04</rscale>
<asrwt>0</asrwt>
<pdfrwt beam="1">  1        1 0.67926823E+00 0.11317040E+04</pdfrwt>
<pdfrwt beam="2">  1       -1 0.11156751E-01 0.11317040E+04</pdfrwt>
<totfact> 0.21815794E+00</totfact>
</mgrwt>
</event>
<event>
 6    1  0.1001928E-005  0.1507403E+04  0.7818608E-02  0.8879545E-01
         -1   -1    0    0    0  501 -0.00000000000E+00  0.00000000000E+00  0.26403244547E+03  0.26403244547E+03  0.00000000000E+00 0.  1.
          1   -1    0    0  501    0  0.00000000000E+00 -0.00000000000E+00 -0.21515015108E+04  0.21515015108E+04  0.00000000000E+00 0. -1.
         23    2    1    2    0    0  0.32755622958E+03  0.53372944872E+03 -0.16112701476E+04  0.17311027690E+04  0.91460923189E+02 0.  0.
         11    1    3    3    0    0  0.18580311294E+03  0.32781406433E+03 -0.84834192636E+03  0.92826121409E+03  0.00000000000E+00 0.  1.
        -11    1    3    3    0    0  0.14175311663E+03  0.20591538439E+03 -0.76292822120E+03  0.80284155492E+03  0.00000000000E+00 0. -1.
         22    1    1    2    0    0 -0.32755622958E+03 -0.53372944872E+03 -0.27619891781E+03  0.68443118731E+03  0.00000000000E+00 0.  1.
<mgrwt>
<rscale>  0 0.15074033E+04</rscale>
<asrwt>0</asrwt>
<pdfrwt beam="1">  1        1 0.33100023E+00 0.15074033E+04</pdfrwt>
<pdfrwt beam="2">  1       -1 0.40620376E-01 0.15074033E+04</pdfrwt>
<totfact> 0.13471747E+01</totfact>
</mgrwt>
</event>
<event>
 6    1  0.1001928E-005  0.3769559E+04  0.7818608E-02  0.8052719E-01
          2   -1    0    0  501    0  0.00000000000E+00  0.00000000000E+00  0.27822016918E+04  0.27822016918E+04  0.00000000000E+00 0. -1.
         -2   -1    0    0    0  501 -0.00000000000E+00 -0.00000000000E+00 -0.12768285954E+04  0.12768285954E+04  0.00000000000E+00 0.  1.
         23    2    1    2    0    0  0.14430890415E+04 -0.21571825021E+03  0.20358091995E+04  0.25064830883E+04  0.94329367752E+02 0.  0.
         11    1    3    3    0    0  0.28651615978E+03 -0.60734393152E+02  0.35317972683E+03  0.45882033060E+03  0.00000000000E+00 0. -1.
        -11    1    3    3    0    0  0.11565728818E+04 -0.15498385706E+03  0.16826294727E+04  0.20476627577E+04  0.00000000000E+00 0.  1.
         22    1    1    2    0    0 -0.14430890415E+04  0.21571825021E+03 -0.53043610311E+03  0.15525471989E+04  0.00000000000E+00 0.  1.
<mgrwt>
<rscale>  0 0.37695595E+04</rscale>
<asrwt>0</asrwt>
<pdfrwt beam="1">  1        2 0.42803103E+00 0.37695595E+04</pdfrwt>
<pdfrwt beam="2">  1       -2 0.19643517E+00 0.37695595E+04</pdfrwt>
<totfact> 0.26743819E-01</totfact>
</mgrwt>
</event>
<event>
 6    1  0.1001928E-005  0.2773241E+04  0.7818608E-02  0.8311624E-01
          2   -1    0    0  501    0  0.00000000000E+00  0.00000000000E+00  0.17613847474E+04  0.17613847474E+04  0.00000000000E+00 0. -1.
         -2   -1    0    0    0  501 -0.00000000000E+00 -0.00000000000E+00 -0.10915937462E+04  0.10915937462E+04  0.00000000000E+00 0.  1.
         23    2    1    2    0    0  0.98390856859E+03  0.28034426015E+02  0.13377666258E+04  0.16634183078E+04  0.92081057107E+02 0.  0.
         13    1    3    3    0    0  0.78008205625E+03  0.29632091761E+02  0.11191840068E+04  0.13645434828E+04  0.00000000000E+00 0.  1.
        -13    1    3    3    0    0  0.20382651233E+03 -0.15976657456E+01  0.21858261900E+03  0.29887482496E+03  0.00000000000E+00 0. -1.
         22    1    1    2    0    0 -0.98390856859E+03 -0.28034426015E+02 -0.66797562463E+03  0.11895601857E+04  0.00000000000E+00 0.  1.
<mgrwt>
<rscale>  0 0.27732411E+04</rscale>
<asrwt>0</asrwt>
<pdfrwt beam="1">  1        2 0.27098227E+00 0.27732411E+04</pdfrwt>
<pdfrwt beam="2">  1       -2 0.16793750E+00 0.27732411E+04</pdfrwt>
<totfact> 0.17434216E+00</totfact>
</mgrwt>
</event>
<event>
 6    1  0.1001928E-005  0.6837646E+03  0.7818608E-02  0.9745407E-01
          1   -1    0    0  501    0  0.00000000000E+00  0.00000000000E+00  0.18913946802E+04  0.18913946802E+04  0.00000000000E+00 0. -1.
         -1   -1    0    0    0  501 -0.00000000000E+00 -0.00000000000E+00 -0.61797524018E+02  0.61797524018E+02  0.00000000000E+00 0.  1.
         23    2    1    2    0    0  0.16089658957E+03 -0.93748947896E+02  0.17292719835E+04  0.17416698223E+04  0.91408967671E+02 0.  0.
         13    1    3    3    0    0  0.60382675240E+02 -0.80074304101E+02  0.10629314691E+04  0.10676522231E+04  0.00000000000E+00 0. -1.
        -13    1    3    3    0    0  0.10051391433E+03 -0.13674643795E+02  0.66634051443E+03  0.67401759920E+03  0.00000000000E+00 0.  1.
         22    1    1    2    0    0 -0.16089658957E+03  0.93748947896E+02  0.10032517270E+03  0.21152238190E+03  0.00000000000E+00 0.  1.
<mgrwt>
<rscale>  0 0.68376460E+03</rscale>
<asrwt>0</asrwt>
<pdfrwt beam="1">  1        1 0.29098375E+00 0.68376460E+03</pdfrwt>
<pdfrwt beam="2">  1       -1 0.95073128E-02 0.68376460E+03</pdfrwt>
<totfact> 0.24910419E+02</totfact>
</mgrwt>
</event>
<event>
 6    1  0.1001928E-005  0.5255090E+04  0.7818608E-02  0.7790318E-01
          1   -1    0    0  501    0  0.00000000000E+00  0.00000000000E+00  0.37264954660E+04  0.37264954660E+04  0.00000000000E+00 0. -1.
         -1   -1    0    0    0  501 -0.00000000000E+00 -0.00000000000E+00 -0.18526767585E+04  0.18526767585E+04  0.00000000000E+00 0.  1.
         23    2    1    2    0    0  0.77002653163E+03 -0.71101700389E+03  0.34943963256E+04  0.36492090499E+04  0.86226272558E+02 0.  0.
         13    1    3    3    0    0  0.54782995801E+03 -0.45574092830E+03  0.23118393136E+04  0.24191772297E+04  0.00000000000E+00 0. -1.
        -13    1    3    3    0    0  0.22219657362E+03 -0.25527607560E+03  0.11825570120E+04  0.12300318202E+04  0.00000000000E+00 0.  1.
         22    1    1    2    0    0 -0.77002653163E+03  0.71101700389E+03 -0.16205776181E+04  0.19299631747E+04  0.00000000000E+00 0.  1.
<mgrwt>
<rscale>  0 0.52550895E+04</rscale>
<asrwt>0</asrwt>
<pdfrwt beam="1">  1        1 0.57330699E+00 0.52550895E+04</pdfrwt>
<pdfrwt beam="2">  1       -1 0.28502719E+00 0.52550895E+04</pdfrwt>
<totfact> 0.47847680E-03</totfact>
</mgrwt>
</event>
<event>
 6    1  0.1001928E-005  0.1318575E+04  0.7818608E-02  0.9014963E-01
          1   -1    0    0  501    0  0.00000000000E+00  0.00000000000E+00  0.13743201775E+04  0.13743201775E+04  0.00000000000E+00 0. -1.
         -1   -1    0    0    0  501 -0.00000000000E+00 -0.00000000000E+00 -0.31627270711E+03  0.31627270711E+03  0.00000000000E+00 0.  1.
         23    2    1    2    0    0 -0.17337584044E+03 -0.29783134470E+03 -0.18425449591E+03  0.40137728301E+03  0.91604105340E+02 0.  0.
         13    1    3    3    0    0 -0.71999119365E+02 -0.46839212065E+02 -0.44151336173E+02  0.96577044177E+02  0.00000000000E+00 0. -1.
        -13    1    3    3    0    0 -0.10137672107E+03 -0.25099213264E+03 -0.14010315974E+03  0.30480023883E+03  0.00000000000E+00 0.  1.
         22    1    1    2    0    0  0.17337584044E+03  0.29783134470E+03  0.12423019663E+04  0.12892156016E+04  0.00000000000E+00 0. -1.
<mgrwt>
<rscale>  0 0.13185749E+04</rscale>
<asrwt>0</asrwt>
<pdfrwt beam="1">  1        1 0.21143387E+00 0.13185749E+04</pdfrwt>
<pdfrwt beam="2">  1       -1 0.48657341E-01 0.13185749E+04</pdfrwt>
<totfact> 0.33214234E+01</totfact>
</mgrwt>
</event>
<event>
 6    1  0.1001928E-005  0.2678044E+04  0.7818608E-02  0.8342164E-01
          1   -1    0    0  501    0  0.00000000000E+00  0.00000000000E+00  0.11352585028E+04  0.11352585028E+04  0.00000000000E+00 0. -1.
         -1   -1    0    0    0  501 -0.00000000000E+00 -0.00000000000E+00 -0.15793580909E+04  0.15793580909E+04  0.00000000000E+00 0.  1.
         23    2    1    2    0    0  0.11455373977E+03 -0.13297541055E+04 -0.13603820829E+03  0.13448464108E+04  0.93471567973E+02 0.  0.
         13    1    3    3    0    0  0.56277431003E+02 -0.54214280135E+03 -0.10078566091E+03  0.55429569341E+03  0.00000000000E+00 0. -1.
        -13    1    3    3    0    0  0.58276308762E+02 -0.78761130415E+03 -0.35252547381E+02  0.79055071734E+03  0.00000000000E+00 0.  1.
         22    1    1    2    0    0 -0.11455373977E+03  0.13297541055E+04 -0.30806137981E+03  0.13697701830E+04  0.00000000000E+00 0.  1.
<mgrwt>
<rscale>  0 0.26780438E+04</rscale>
<asrwt>0</asrwt>
<pdfrwt beam="1">  1        1 0.17465515E+00 0.26780438E+04</pdfrwt>
<pdfrwt beam="2">  1       -1 0.24297817E+00 0.26780438E+04</pdfrwt>
<totfact> 0.80882096E-01</totfact>
</mgrwt>
</event>
<event>
 6    1  0.1001928E-005  0.1284935E+04  0.7818608E-02  0.9041598E-01
         -1   -1    0    0    0  501 -0.00000000000E+00  0.00000000000E+00  0.32361059686E+03  0.32361059686E+03  0.00000000000E+00 0.  1.
          1   -1    0    0  501    0  0.00000000000E+00 -0.00000000000E+00 -0.12754966881E+04  0.12754966881E+04  0.00000000000E+00 0. -1.
         23    2    1    2    0    0 -0.59119232324E+03 -0.13919762142E+03 -0.23042109169E+03  0.65602929963E+03  0.91630898771E+02 0.  0.
         13    1    3    3    0    0 -0.20752637308E+03 -0.10296944307E+02 -0.55206579570E+02  0.21499067192E+03  0.00000000000E+00 0.  1.
        -13    1    3    3    0    0 -0.38366595016E+03 -0.12890067711E+03 -0.17521451212E+03  0.44103862770E+03  0.00000000000E+00 0. -1.
         22    1    1    2    0    0  0.59119232324E+03  0.13919762142E+03 -0.72146499958E+03  0.94307798537E+03  0.00000000000E+00 0. -1.
<mgrwt>
<rscale>  0 0.12849346E+04</rscale>
<asrwt>0</asrwt>
<pdfrwt beam="1">  1        1 0.19623026E+00 0.12849346E+04</pdfrwt>
<pdfrwt beam="2">  1       -1 0.49786247E-01 0.12849346E+04</pdfrwt>
<totfact> 0.37485439E+01</totfact>
</mgrwt>
</event>
<event>
 6    1  0.1001928E-005  0.3231752E+04  0.7818608E-02  0.8180482E-01
          1   -1    0    0  501    0  0.00000000000E+00  0.00000000000E+00  0.14073849094E+04  0.14073849094E+04  0.00000000000E+00 0. -1.
         -1   -1    0    0    0  501 -0.00000000000E+00 -0.00000000000E+00 -0.18552525856E+04  0.18552525856E+04  0.00000000000E+00 0.  1.
         23    2    1    2    0    0  0.10806853120E+04  0.80751881040E+03 -0.11196252079E+04  0.17555789181E+04  0.92354527282E+02 0.  0.
         11    1    3    3    0    0  0.11803472953E+03  0.12612873700E+03 -0.13699704737E+03  0.22047414057E+03  0.00000000000E+00 0. -1.
        -11    1    3    3    0    0  0.96265058245E+03  0.68139007341E+03 -0.98262816058E+03  0.15351047775E+04  0.00000000000E+00 0.  1.
         22    1    1    2    0    0 -0.10806853120E+04 -0.80751881040E+03  0.67175753172E+03  0.15070585769E+04  0.00000000000E+00 0. -1.
<mgrwt>
<rscale>  0 0.32317515E+04</rscale>
<asrwt>0</asrwt>
<pdfrwt beam="1">  1        1 0.21652076E+00 0.32317515E+04</pdfrwt>
<pdfrwt beam="2">  1       -1 0.28542347E+00 0.32317515E+04</pdfrwt>
<totfact> 0.25999771E-01</totfact>
</mgrwt>
</event>
<event>
 6    1  0.1001928E-005  0.3018398E+04  0.7818608E-02  0.8238497E-01
         -1   -1    0    0    0  501 -0.00000000000E+00  0.00000000000E+00  0.24293805993E+04  0.24293805993E+04  0.00000000000E+00 0.  1.
          1   -1    0    0  501    0  0.00000000000E+00 -0.00000000000E+00 -0.93755678922E+03  0.93755678922E+03  0.00000000000E+00 0. -1.
         23    2    1    2    0    0  0.11542591135E+04 -0.15991268729E+03 -0.32090381520E+03  0.12119739057E+04  0.89528325263E+02 0.  0.
         13    1    3    3    0    0  0.34675312976E+03 -0.80957256179E+02 -0.71874549729E+02  0.36325990864E+03  0.00000000000E+00 0.  1.
        -13    1    3    3    0    0  0.80750598371E+03 -0.78955431109E+02 -0.24902926547E+03  0.84871399711E+03  0.00000000000E+00 0. -1.
         22    1    1    2    0    0 -0.11542591135E+04  0.15991268729E+03  0.18127276253E+04  0.21549634828E+04  0.00000000000E+00 0.  1.
<mgrwt>
<rscale>  0 0.30183984E+04</rscale>
<asrwt>0</asrwt>
<pdfrwt beam="1">  1        1 0.14423951E+00 0.30183984E+04</pdfrwt>
<pdfrwt beam="2">  1       -1 0.37375086E+00 0.30183984E+04</pdfrwt>
<totfact> 0.15531010E-01</totfact>
</mgrwt>
</event>
<event>
 6    1  0.1001928E-005  0.1472337E+04  0.7818608E-02  0.8903059E-01
          1   -1    0    0  501    0  0.00000000000E+00  0.00000000000E+00  0.88575436585E+03  0.88575436585E+03  0.00000000000E+00 0. -1.
         -1   -1    0    0    0  501 -0.00000000000E+00 -0.00000000000E+00 -0.61184496890E+03  0.61184496890E+03  0.00000000000E+00 0.  1.
         23    2    1    2    0    0 -0.58086162910E+03  0.21929559667E+02 -0.31732976166E+03  0.66847637620E+03  0.91001923897E+02 0.  0.
         13    1    3    3    0    0 -0.55800188111E+03  0.38449996927E+02 -0.30931181742E+03  0.63915436475E+03  0.00000000000E+00 0. -1.
        -13    1    3    3    0    0 -0.22859747991E+02 -0.16520437260E+02 -0.80179442378E+01  0.29322011447E+02  0.00000000000E+00 0.  1.
         22    1    1    2    0    0  0.58086162910E+03 -0.21929559667E+02  0.59123915861E+03  0.82912295856E+03  0.00000000000E+00 0. -1.
<mgrwt>
<rscale>  0 0.14723374E+04</rscale>
<asrwt>0</asrwt>
<pdfrwt beam="1">  1        1 0.13626990E+00 0.14723374E+04</pdfrwt>
<pdfrwt beam="2">  1       -1 0.94129995E-01 0.14723374E+04</pdfrwt>
<totfact> 0.19819791E+01</totfact>
</mgrwt>
</event>
<event>
 6    1  0.1001928E-005  0.3030641E+04  0.7818608E-02  0.8235035E-01
          2   -1    0    0  501    0  0.00000000000E+00  0.00000000000E+00  0.27681793075E+04  0.27681793075E+04  0.00000000000E+00 0. -1.
         -2   -1    0    0    0  501 -0.00000000000E+00 -0.00000000000E+00 -0.82949712264E+03  0.82949712264E+03  0.00000000000E+00 0.  1.
         23    2    1    2    0    0  0.14277231426E+04 -0.50297365743E+03  0.10011736311E+04  0.18171433189E+04  0.91023787381E+02 0.  0.
         11    1    3    3    0    0  0.89554192957E+03 -0.26858503706E+03  0.61853765486E+03  0.11210361726E+04  0.00000000000E+00 0. -1.
        -11    1    3    3    0    0  0.53218121301E+03 -0.23438862037E+03  0.38263597619E+03  0.69610714629E+03  0.00000000000E+00 0.  1.
         22    1    1    2    0    0 -0.14277231426E+04  0.50297365743E+03  0.93750855382E+03  0.17805331113E+04  0.00000000000E+00 0. -1.
<mgrwt>
<rscale>  0 0.30306414E+04</rscale>
<asrwt>0</asrwt>
<pdfrwt beam="1">  1        2 0.42587374E+00 0.30306414E+04</pdfrwt>
<pdfrwt beam="2">  1       -2 0.12761494E+00 0.30306414E+04</pdfrwt>
<totfact> 0.93890316E-01</totfact>
</mgrwt>
</event>
<event>
 6    1  0.1001928E-005  0.2112323E+04  0.7818608E-02  0.8555835E-01
          2   -1    0    0  501    0  0.00000000000E+00  0.00000000000E+00  0.24613083691E+04  0.24613083691E+04  0.00000000000E+00 0.  1.
         -2   -1    0    0    0  501 -0.00000000000E+00 -0.00000000000E+00 -0.45320473656E+03  0.45320473656E+03  0.00000000000E+00 0. -1.
         23    2    1    2    0    0  0.71042797999E+03 -0.59977399785E+03  0.32024728401E+03  0.98752171582E+03  0.90576227876E+02 0.  0.
         13    1    3    3    0    0  0.51742124552E+03 -0.47156824741E+03  0.20977285700E+03  0.73082556662E+03  0.00000000000E+00 0. -1.
        -13    1    3    3    0    0  0.19300673446E+03 -0.12820575044E+03  0.11047442701E+03  0.25669614921E+03  0.00000000000E+00 0.  1.
         22    1    1    2    0    0 -0.71042797999E+03  0.59977399785E+03  0.16878563485E+04  0.19269913898E+04  0.00000000000E+00 0.  1.
<mgrwt>
<rscale>  0 0.21123225E+04</rscale>
<asrwt>0</asrwt>
<pdfrwt beam="1">  1        2 0.37866282E+00 0.21123225E+04</pdfrwt>
<pdfrwt beam="2">  1       -2 0.69723807E-01 0.21123225E+04</pdfrwt>
<totfact> 0.63284913E+00</totfact>
</mgrwt>
</event>
<event>
 6    1  0.1001928E-005  0.2837315E+04  0.7818608E-02  0.8291776E-01
          1   -1    0    0  501    0  0.00000000000E+00  0.00000000000E+00  0.22799914601E+04  0.22799914601E+04  0.00000000000E+00 0. -1.
         -1   -1    0    0    0  501 -0.00000000000E+00 -0.00000000000E+00 -0.88271755542E+03  0.88271755542E+03  0.00000000000E+00 0.  1.
         23    2    1    2    0    0  0.22135022828E+03 -0.10207074412E+04  0.17671115441E+04  0.20547291044E+04  0.91590823907E+02 0.  0.
         13    1    3    3    0    0 -0.64185091553E+01 -0.16595656128E+02  0.43596973749E+02  0.47088312586E+02  0.00000000000E+00 0.  1.
        -13    1    3    3    0    0  0.22776873744E+03 -0.10041117851E+04  0.17235145703E+04  0.20076407918E+04  0.00000000000E+00 0. -1.
         22    1    1    2    0    0 -0.22135022828E+03  0.10207074412E+04 -0.36983763933E+03  0.11079799112E+04  0.00000000000E+00 0.  1.
<mgrwt>
<rscale>  0 0.28373146E+04</rscale>
<asrwt>0</asrwt>
<pdfrwt beam="1">  1        1 0.35076791E+00 0.28373146E+04</pdfrwt>
<pdfrwt beam="2">  1       -1 0.13580270E+00 0.28373146E+04</pdfrwt>
<totfact> 0.75181906E-01</totfact>
</mgrwt>
</event>
<event>
 6    1  0.1001928E-005  0.4186153E+03  0.7818608E-02  0.1037518E+00
         -1   -1    0    0    0  501 -0.00000000000E+00  0.00000000000E+00  0.11127577479E+03  0.11127577479E+03  0.00000000000E+00 0.  1.
          1   -1    0    0  501    0  0.00000000000E+00 -0.00000000000E+00 -0.39370377149E+03  0.39370377149E+03  0.00000000000E+00 0. -1.
         23    2    1    2    0    0  0.17666391577E+03 -0.41843161502E+02 -0.24734445674E+03  0.32006917859E+03  0.91126338165E+02 0.  0.
         13    1    3    3    0    0  0.10273736340E+03  0.22447985824E+02 -0.12915016595E+03  0.16654922176E+03  0.00000000000E+00 0.  1.
        -13    1    3    3    0    0  0.73926552374E+02 -0.64291147326E+02 -0.11819429079E+03  0.15351995683E+03  0.00000000000E+00 0. -1.
         22    1    1    2    0    0 -0.17666391577E+03  0.41843161502E+02 -0.35083539967E+02  0.18491036768E+03  0.00000000000E+00 0.  1.
<mgrwt>
<rscale>  0 0.41861530E+03</rscale>
<asrwt>0</asrwt>
<pdfrwt beam="1">  1        1 0.60569811E-01 0.41861530E+03</pdfrwt>
<pdfrwt beam="2">  1       -1 0.17119350E-01 0.41861530E+03</pdfrwt>
<totfact> 0.16142182E+03</totfact>
</mgrwt>
</event>
<event>
 6    1  0.1001928E-005  0.7020799E+03  0.7818608E-02  0.9713682E-01
         -2   -1    0    0    0  501 -0.00000000000E+00  0.00000000000E+00  0.11548947854E+03  0.11548947854E+03  0.00000000000E+00 0. -1.
          2   -1    0    0  501    0  0.00000000000E+00 -0.00000000000E+00 -0.10670153043E+04  0.10670153043E+04  0.00000000000E+00 0.  1.
         23    2    1    2    0    0  0.21783778751E+02 -0.26051893945E+03 -0.10399479177E+03  0.29556988986E+03  0.90564851061E+02 0.  0.
         13    1    3    3    0    0  0.32520253991E+02 -0.17780296702E+03 -0.11058949924E+03  0.21189973889E+03  0.00000000000E+00 0.  1.
        -13    1    3    3    0    0 -0.10736475240E+02 -0.82715972429E+02  0.65947074767E+01  0.83670150963E+02  0.00000000000E+00 0. -1.
         22    1    1    2    0    0 -0.21783778751E+02  0.26051893945E+03 -0.84753103395E+03  0.88693489295E+03  0.00000000000E+00 0.  1.
<mgrwt>
<rscale>  0 0.70207988E+03</rscale>
<asrwt>0</asrwt>
<pdfrwt beam="1">  1        2 0.16415620E+00 0.70207988E+03</pdfrwt>
<pdfrwt beam="2">  1       -2 0.17767612E-01 0.70207988E+03</pdfrwt>
<totfact> 0.60356602E+02</totfact>
</mgrwt>
</event>
<event>
 6    1  0.1001928E-005  0.1475933E+04  0.7818608E-02  0.8900617E-01
          1   -1    0    0  501    0  0.00000000000E+00  0.00000000000E+00  0.15326918542E+04  0.15326918542E+04  0.00000000000E+00 0. -1.
         -1   -1    0    0    0  501 -0.00000000000E+00 -0.00000000000E+00 -0.35531896938E+03  0.35531896938E+03  0.00000000000E+00 0.  1.
         23    2    1    2    0    0 -0.23380906822E+03  0.60089659075E+03  0.13959964436E+03  0.66624296849E+03  0.92995909595E+02 0.  0.
         11    1    3    3    0    0 -0.12723571401E+03  0.26471054637E+03  0.22189078780E+02  0.29453854671E+03  0.00000000000E+00 0.  1.
        -11    1    3    3    0    0 -0.10657335421E+03  0.33618604437E+03  0.11741056558E+03  0.37170442178E+03  0.00000000000E+00 0. -1.
         22    1    1    2    0    0  0.23380906822E+03 -0.60089659075E+03  0.10377732405E+04  0.12217678551E+04  0.00000000000E+00 0. -1.
<mgrwt>
<rscale>  0 0.14759329E+04</rscale>
<asrwt>0</asrwt>
<pdfrwt beam="1">  1        1 0.23579874E+00 0.14759329E+04</pdfrwt>
<pdfrwt beam="2">  1       -1 0.54664458E-01 0.14759329E+04</pdfrwt>
<totfact> 0.20346697E+01</totfact>
</mgrwt>
</event>
<event>
 6    1  0.1001928E-005  0.6002403E+03  0.7818608E-02  0.9904908E-01
          2   -1    0    0  501    0  0.00000000000E+00  0.00000000000E+00  0.80935702912E+03  0.80935702912E+03  0.00000000000E+00 0. -1.
         -2   -1    0    0    0  501 -0.00000000000E+00 -0.00000000000E+00 -0.11128847320E+03  0.11128847320E+03  0.00000000000E+00 0.  1.
         23    2    1    2    0    0 -0.15344764729E+03 -0.21884159608E+03  0.54620134411E+03  0.61323458083E+03  0.79264860907E+02 0.  0.
         11    1    3    3    0    0 -0.11612633235E+03 -0.98204976034E+02  0.31514702633E+03  0.34992454985E+03  0.00000000000E+00 0.  1.
        -11    1    3    3    0    0 -0.37321314932E+02 -0.12063662005E+03  0.23105431778E+03  0.26331003097E+03  0.00000000000E+00 0. -1.
         22    1    1    2    0    0  0.15344764729E+03  0.21884159608E+03  0.15186721181E+03  0.30741092150E+03  0.00000000000E+00 0.  1.
<mgrwt>
<rscale>  0 0.60024031E+03</rscale>
<asrwt>0</asrwt>
<pdfrwt beam="1">  1        2 0.12451646E+00 0.60024031E+03</pdfrwt>
<pdfrwt beam="2">  1       -2 0.17121304E-01 0.60024031E+03</pdfrwt>
<totfact> 0.95335332E+02</totfact>
</mgrwt>
</event>
<event>
 6    1  0.1001928E-005  0.2596740E+04  0.7818608E-02  0.8369309E-01
          2   -1    0    0  501    0  0.00000000000E+00  0.00000000000E+00  0.10104985394E+04  0.10104985394E+04  0.00000000000E+00 0.  1.
         -2   -1    0    0    0  501 -0.00000000000E+00 -0.00000000000E+00 -0.16682510751E+04  0.16682510751E+04  0.00000000000E+00 0. -1.
         23    2    1    2    0    0 -0.11391257170E+04  0.61829740669E+03 -0.37204002635E+03  0.13515229118E+04  0.91111567209E+02 0.  0.
         13    1    3    3    0    0 -0.93229741283E+03  0.47168933742E+03 -0.31981514261E+03  0.10926806589E+04  0.00000000000E+00 0. -1.
        -13    1    3    3    0    0 -0.20682830417E+03  0.14660806927E+03 -0.52224883747E+02  0.25884225285E+03  0.00000000000E+00 0.  1.
         22    1    1    2    0    0  0.11391257170E+04 -0.61829740669E+03 -0.28571250932E+03  0.13272267026E+04  0.00000000000E+00 0. -1.
<mgrwt>
<rscale>  0 0.25967405E+04</rscale>
<asrwt>0</asrwt>
<pdfrwt beam="1">  1        2 0.15546131E+00 0.25967405E+04</pdfrwt>
<pdfrwt beam="2">  1       -2 0.25665401E+00 0.25967405E+04</pdfrwt>
<totfact> 0.12833559E+00</totfact>
</mgrwt>
</event>
<event>
 6    1  0.1001928E-005  0.1062814E+04  0.7818608E-02  0.9242213E-01
          1   -1    0    0  501    0  0.00000000000E+00  0.00000000000E+00  0.57124362481E+03  0.57124362481E+03  0.00000000000E+00 0. -1.
         -1   -1    0    0    0  501 -0.00000000000E+00 -0.00000000000E+00 -0.49434887700E+03  0.49434887700E+03  0.00000000000E+00 0.  1.
         23    2    1    2    0    0 -0.42958517568E+03 -0.15225517452E+03  0.30313667650E+03  0.55676004252E+03  0.10180785320E+03 0.  0.
         11    1    3    3    0    0 -0.18490662176E+03 -0.14444407163E+02  0.13571035346E+03  0.22981818837E+03  0.00000000000E+00 0.  1.
        -11    1    3    3    0    0 -0.24467855392E+03 -0.13781076736E+03  0.16742632304E+03  0.32694185415E+03  0.00000000000E+00 0. -1.
         22    1    1    2    0    0  0.42958517568E+03  0.15225517452E+03 -0.22624192869E+03  0.50883245929E+03  0.00000000000E+00 0.  1.
<mgrwt>
<rscale>  0 0.10628145E+04</rscale>
<asrwt>0</asrwt>
<pdfrwt beam="1">  1        1 0.87883635E-01 0.10628145E+04</pdfrwt>
<pdfrwt beam="2">  1       -1 0.76053673E-01 0.10628145E+04</pdfrwt>
<totfact> 0.63779025E+01</totfact>
</mgrwt>
</event>
<event>
 6    1  0.1001928E-005  0.1254992E+04  0.7818608E-02  0.9066039E-01
          2   -1    0    0  501    0  0.00000000000E+00  0.00000000000E+00  0.86837521230E+03  0.86837521230E+03  0.00000000000E+00 0. -1.
         -2   -1    0    0    0  501 -0.00000000000E+00 -0.00000000000E+00 -0.45343415161E+03  0.45343415161E+03  0.00000000000E+00 0.  1.
         23    2    1    2    0    0  0.41244453311E+03  0.16505218688E+03 -0.25331279610E+03  0.51936563729E+03  0.90667387975E+02 0.  0.
         13    1    3    3    0    0  0.36687629948E+02  0.41500118329E+02 -0.50019229428E+02  0.74633540216E+02  0.00000000000E+00 0.  1.
        -13    1    3    3    0    0  0.37575690316E+03  0.12355206855E+03 -0.20329356667E+03  0.44473209707E+03  0.00000000000E+00 0. -1.
         22    1    1    2    0    0 -0.41244453311E+03 -0.16505218688E+03  0.66825385679E+03  0.80244372662E+03  0.00000000000E+00 0. -1.
<mgrwt>
<rscale>  0 0.12549916E+04</rscale>
<asrwt>0</asrwt>
<pdfrwt beam="1">  1        2 0.13359619E+00 0.12549916E+04</pdfrwt>
<pdfrwt beam="2">  1       -2 0.69759100E-01 0.12549916E+04</pdfrwt>
<totfact> 0.56773272E+01</totfact>
</mgrwt>
</event>
<event>
 6    1  0.1001928E-005  0.3053553E+04  0.7818608E-02  0.8228602E-01
         -1   -1    0    0    0  501 -0.00000000000E+00  0.00000000000E+00  0.55031323662E+03  0.55031323662E+03  0.00000000000E+00 0.  1.
          1   -1    0    0  501    0  0.00000000000E+00 -0.00000000000E+00 -0.42358536724E+04  0.42358536724E+04  0.00000000000E+00 0. -1.
         23    2    1    2    0    0 -0.84773929249E+03  0.91407002454E+03 -0.32221013831E+04  0.34561437238E+04  0.93841347648E+02 0.  0.
         11    1    3    3    0    0 -0.44945358985E+03  0.48403635011E+03 -0.18361182375E+04  0.19513149155E+04  0.00000000000E+00 0. -1.
        -11    1    3    3    0    0 -0.39828570264E+03  0.43003367442E+03 -0.13859831457E+04  0.15048288082E+04  0.00000000000E+00 0.  1.
         22    1    1    2    0    0  0.84773929249E+03 -0.91407002454E+03 -0.46343905269E+03  0.13300231853E+04  0.00000000000E+00 0.  1.
<mgrwt>
<rscale>  0 0.30535529E+04</rscale>
<asrwt>0</asrwt>
<pdfrwt beam="1">  1        1 0.65166982E+00 0.30535529E+04</pdfrwt>
<pdfrwt beam="2">  1       -1 0.84663571E-01 0.30535529E+04</pdfrwt>
<totfact> 0.68426782E-02</totfact>
</mgrwt>
</event>
<event>
 6    1  0.1001928E-005  0.3318229E+04  0.7818608E-02  0.8158272E-01
         -2   -1    0    0    0  501 -0.00000000000E+00  0.00000000000E+00  0.14239506957E+04  0.14239506957E+04  0.00000000000E+00 0.  1.
          2   -1    0    0  501    0  0.00000000000E+00 -0.00000000000E+00 -0.19331152743E+04  0.19331152743E+04  0.00000000000E+00 0. -1.
         23    2    1    2    0    0  0.12092219738E+04 -0.11165105313E+04 -0.54873741092E+02  0.16496721333E+04  0.97946268700E+02 0.  0.
         13    1    3    3    0    0  0.30728144897E+03 -0.32756767048E+03  0.14438707159E+02  0.44936727060E+03  0.00000000000E+00 0. -1.
        -13    1    3    3    0    0  0.90194052485E+03 -0.78894286084E+03 -0.69312448251E+02  0.12003048627E+04  0.00000000000E+00 0.  1.
         22    1    1    2    0    0 -0.12092219738E+04  0.11165105313E+04 -0.45429083755E+03  0.17073938367E+04  0.00000000000E+00 0. -1.
<mgrwt>
<rscale>  0 0.33182289E+04</rscale>
<asrwt>0</asrwt>
<pdfrwt beam="1">  1        2 0.29740235E+00 0.33182289E+04</pdfrwt>
<pdfrwt beam="2">  1       -2 0.21906934E+00 0.33182289E+04</pdfrwt>
<totfact> 0.60820128E-01</totfact>
</mgrwt>
</event>
<event>
 6    1  0.1001928E-005  0.1776383E+04  0.7818608E-02  0.8718960E-01
         -1   -1    0    0    0  501 -0.00000000000E+00  0.00000000000E+00  0.25056368293E+03  0.25056368293E+03  0.00000000000E+00 0.  1.
          1   -1    0    0  501    0  0.00000000000E+00 -0.00000000000E+00 -0.31484390340E+04  0.31484390340E+04  0.00000000000E+00 0. -1.
         23    2    1    2    0    0 -0.32657269991E+03 -0.59631056710E+03 -0.25396792848E+04  0.26305364245E+04  0.86689042084E+02 0.  0.
         11    1    3    3    0    0 -0.20689844912E+03 -0.43729360283E+03 -0.16913766744E+04  0.17592008748E+04  0.00000000000E+00 0. -1.
        -11    1    3    3    0    0 -0.11967425079E+03 -0.15901696427E+03 -0.84830261041E+03  0.87133554963E+03  0.00000000000E+00 0.  1.
         22    1    1    2    0    0  0.32657269991E+03  0.59631056710E+03 -0.35819606626E+03  0.76846629246E+03  0.00000000000E+00 0.  1.
<mgrwt>
<rscale>  0 0.17763834E+04</rscale>
<asrwt>0</asrwt>
<pdfrwt beam="1">  1        1 0.48437524E+00 0.17763834E+04</pdfrwt>
<pdfrwt beam="2">  1       -1 0.38548258E-01 0.17763834E+04</pdfrwt>
<totfact> 0.28744611E+00</totfact>
</mgrwt>
</event>
<event>
 6    1  0.1001928E-005  0.2503032E+04  0.7818608E-02  0.8401906E-01
         -2   -1    0    0    0  501 -0.00000000000E+00  0.00000000000E+00  0.13128008128E+04  0.13128008128E+04  0.00000000000E+00 0. -1.
          2   -1    0    0  501    0  0.00000000000E+00 -0.00000000000E+00 -0.11930924826E+04  0.11930924826E+04  0.00000000000E+00 0.  1.
         23    2    1    2    0    0 -0.44066021768E+03  0.26987425098E+03 -0.10792995425E+04  0.12002771890E+04  0.93617781894E+02 0.  0.
         11    1    3    3    0    0 -0.20434235394E+03  0.11147621232E+03 -0.38422026191E+03  0.44923040101E+03  0.00000000000E+00 0. -1.
        -11    1    3    3    0    0 -0.23631786374E+03  0.15839803866E+03 -0.69507928060E+03  0.75104678795E+03  0.00000000000E+00 0.  1.
         22    1    1    2    0    0  0.44066021768E+03 -0.26987425098E+03  0.11990078727E+04  0.13056161065E+04  0.00000000000E+00 0. -1.
<mgrwt>
<rscale>  0 0.25030324E+04</rscale>
<asrwt>0</asrwt>
<pdfrwt beam="1">  1        2 0.18355269E+00 0.25030324E+04</pdfrwt>
<pdfrwt beam="2">  1       -2 0.20196936E+00 0.25030324E+04</pdfrwt>
<totfact> 0.22011872E+00</totfact>
</mgrwt>
</event>
<event>
 6    1  0.1001928E-005  0.1933019E+04  0.7818608E-02  0.8638593E-01
         -2   -1    0    0    0  501 -0.00000000000E+00  0.00000000000E+00  0.97192586322E+03  0.97192586322E+03  0.00000000000E+00 0.  1.
          2   -1    0    0  501    0  0.00000000000E+00 -0.00000000000E+00 -0.96112295403E+03  0.96112295403E+03  0.00000000000E+00 0. -1.
         23    2    1    2    0    0  0.29261882524E+03 -0.83567601955E+03 -0.37660920983E+03  0.96657670875E+03  0.91955698271E+02 0.  0.
         13    1    3    3    0    0  0.28593208763E+03 -0.72743340623E+03 -0.33604968257E+03  0.85079134246E+03  0.00000000000E+00 0. -1.
        -13    1    3    3    0    0  0.66867376041E+01 -0.10824261332E+03 -0.40559527258E+02  0.11578536630E+03  0.00000000000E+00 0.  1.
         22    1    1    2    0    0 -0.29261882524E+03  0.83567601955E+03  0.38741211902E+03  0.96647210849E+03  0.00000000000E+00 0.  1.
<mgrwt>
<rscale>  0 0.19330186E+04</rscale>
<asrwt>0</asrwt>
<pdfrwt beam="1">  1        2 0.14786507E+00 0.19330186E+04</pdfrwt>
<pdfrwt beam="2">  1       -2 0.14952706E+00 0.19330186E+04</pdfrwt>
<totfact> 0.75332521E+00</totfact>
</mgrwt>
</event>
<event>
 6    1  0.1001928E-005  0.2731014E+04  0.7818608E-02  0.8325012E-01
         -1   -1    0    0    0  501 -0.00000000000E+00  0.00000000000E+00  0.12669931897E+04  0.12669931897E+04  0.00000000000E+00 0.  1.
          1   -1    0    0  501    0  0.00000000000E+00 -0.00000000000E+00 -0.14716807744E+04  0.14716807744E+04  0.00000000000E+00 0. -1.
         23    2    1    2    0    0 -0.12926868521E+04 -0.33785399415E+03 -0.37698900755E+03  0.13915019635E+04  0.94722666437E+02 0.  0.
         11    1    3    3    0    0 -0.51595261937E+03 -0.17851345638E+03 -0.13345931734E+03  0.56203696403E+03  0.00000000000E+00 0. -1.
        -11    1    3    3    0    0 -0.77673423276E+03 -0.15934053777E+03 -0.24352969021E+03  0.82946499946E+03  0.00000000000E+00 0.  1.
         22    1    1    2    0    0  0.12926868521E+04  0.33785399415E+03  0.17230142287E+03  0.13471720007E+04  0.00000000000E+00 0.  1.
<mgrwt>
<rscale>  0 0.27310141E+04</rscale>
<asrwt>0</asrwt>
<pdfrwt beam="1">  1        1 0.22641243E+00 0.27310141E+04</pdfrwt>
<pdfrwt beam="2">  1       -1 0.19492203E+00 0.27310141E+04</pdfrwt>
<totfact> 0.97300501E-01</totfact>
</mgrwt>
</event>
<event>
 6    1  0.1001928E-005  0.3518052E+04  0.7818608E-02  0.8109525E-01
         -2   -1    0    0    0  501 -0.00000000000E+00  0.00000000000E+00  0.96420212800E+03  0.96420212800E+03  0.00000000000E+00 0.  1.
          2   -1    0    0  501    0  0.00000000000E+00 -0.00000000000E+00 -0.32090492670E+04  0.32090492670E+04  0.00000000000E+00 0. -1.
         23    2    1    2    0    0  0.62252167716E+03 -0.10394990706E+03 -0.30692377489E+04  0.31350034961E+04  0.98426315553E+02 0.  0.
         11    1    3    3    0    0  0.25292018288E+03 -0.89171577852E+01 -0.10547327440E+04  0.10846701323E+04  0.00000000000E+00 0.  1.
        -11    1    3    3    0    0  0.36960149428E+03 -0.95032749279E+02 -0.20145050049E+04  0.20503333638E+04  0.00000000000E+00 0. -1.
         22    1    1    2    0    0 -0.62252167716E+03  0.10394990706E+03  0.82439060994E+03  0.10382478989E+04  0.00000000000E+00 0.  1.
<mgrwt>
<rscale>  0 0.35180518E+04</rscale>
<asrwt>0</asrwt>
<pdfrwt beam="1">  1        2 0.49369989E+00 0.35180518E+04</pdfrwt>
<pdfrwt beam="2">  1       -2 0.14833879E+00 0.35180518E+04</pdfrwt>
<totfact> 0.32355312E-01</totfact>
</mgrwt>
</event>
<event>
 6    1  0.1001928E-005  0.2002087E+04  0.7818608E-02  0.8605645E-01
          2   -1    0    0  501    0  0.00000000000E+00  0.00000000000E+00  0.11683802681E+04  0.11683802681E+04  0.00000000000E+00 0. -1.
         -2   -1    0    0    0  501 -0.00000000000E+00 -0.00000000000E+00 -0.85767300952E+03  0.85767300952E+03  0.00000000000E+00 0.  1.
         23    2    1    2    0    0  0.76803341059E+03 -0.26491028274E+02  0.80160316792E+03  0.11141564149E+04  0.90552656668E+02 0.  0.
         11    1    3    3    0    0  0.42761336550E+03 -0.47860690495E+02  0.40300626114E+03  0.58954039943E+03  0.00000000000E+00 0. -1.
        -11    1    3    3    0    0  0.34042004509E+03  0.21369662220E+02  0.39859690678E+03  0.52461601544E+03  0.00000000000E+00 0.  1.
         22    1    1    2    0    0 -0.76803341059E+03  0.26491028274E+02 -0.49089590939E+03  0.91189686270E+03  0.00000000000E+00 0.  1.
<mgrwt>
<rscale>  0 0.20020871E+04</rscale>
<asrwt>0</asrwt>
<pdfrwt beam="1">  1        2 0.17975081E+00 0.20020871E+04</pdfrwt>
<pdfrwt beam="2">  1       -2 0.13194969E+00 0.20020871E+04</pdfrwt>
<totfact> 0.76879508E+00</totfact>
</mgrwt>
</event>
<event>
 6    1  0.1001928E-005  0.2252620E+04  0.7818608E-02  0.8496840E-01
         -2   -1    0    0    0  501 -0.00000000000E+00  0.00000000000E+00  0.20795091204E+04  0.20795091204E+04  0.00000000000E+00 0.  1.
          2   -1    0    0  501    0  0.00000000000E+00 -0.00000000000E+00 -0.61003519904E+03  0.61003519904E+03  0.00000000000E+00 0. -1.
         23    2    1    2    0    0  0.69263797345E+03  0.60121779558E+03 -0.40614284330E+02  0.92274591867E+03  0.92737858249E+02 0.  0.
         11    1    3    3    0    0  0.27604642281E+03  0.22017211338E+03  0.27048278544E+02  0.35413132653E+03  0.00000000000E+00 0.  1.
        -11    1    3    3    0    0  0.41659155064E+03  0.38104568219E+03 -0.67662562873E+02  0.56861459214E+03  0.00000000000E+00 0. -1.
         22    1    1    2    0    0 -0.69263797345E+03 -0.60121779558E+03  0.15100882057E+04  0.17667984008E+04  0.00000000000E+00 0.  1.
<mgrwt>
<rscale>  0 0.22526196E+04</rscale>
<asrwt>0</asrwt>
<pdfrwt beam="1">  1        2 0.93851570E-01 0.22526196E+04</pdfrwt>
<pdfrwt beam="2">  1       -2 0.31992448E+00 0.22526196E+04</pdfrwt>
<totfact> 0.10612233E+00</totfact>
</mgrwt>
</event>
<event>
 6    1  0.1001928E-005  0.3934023E+04  0.7818608E-02  0.8017990E-01
         -2   -1    0    0    0  501 -0.00000000000E+00  0.00000000000E+00  0.97165344390E+03  0.97165344390E+03  0.00000000000E+00 0.  1.
          2   -1    0    0  501    0  0.00000000000E+00 -0.00000000000E+00 -0.39820104153E+04  0.39820104153E+04  0.00000000000E+00 0. -1.
         23    2    1    2    0    0 -0.76567084937E+03 -0.15298723598E+04 -0.27256094602E+04  0.32193506142E+04  0.92250531813E+02 0.  0.
         13    1    3    3    0    0 -0.31097840340E+03 -0.59021116448E+03 -0.11438921908E+04  0.13242152885E+04  0.00000000000E+00 0.  1.
        -13    1    3    3    0    0 -0.45469244597E+03 -0.93966119529E+03 -0.15817172694E+04  0.18951353257E+04  0.00000000000E+00 0. -1.
         22    1    1    2    0    0  0.76567084937E+03  0.15298723598E+04 -0.28474751119E+03  0.17343132450E+04  0.00000000000E+00 0.  1.
<mgrwt>
<rscale>  0 0.39340229E+04</rscale>
<asrwt>0</asrwt>
<pdfrwt beam="1">  1        2 0.61261698E+00 0.39340229E+04</pdfrwt>
<pdfrwt beam="2">  1       -2 0.14948515E+00 0.39340229E+04</pdfrwt>
<totfact> 0.84535255E-02</totfact>
</mgrwt>
</event>
<event>
 6    1  0.1001928E-005  0.3656135E+04  0.7818608E-02  0.8077753E-01
         -2   -1    0    0    0  501 -0.00000000000E+00  0.00000000000E+00  0.26363229476E+04  0.26363229476E+04  0.00000000000E+00 0.  1.
          2   -1    0    0  501    0  0.00000000000E+00 -0.00000000000E+00 -0.12676108097E+04  0.12676108097E+04  0.00000000000E+00 0. -1.
         23    2    1    2    0    0  0.10450050066E+04 -0.35640360363E+03 -0.86942076418E+03  0.14082779557E+04  0.91078773313E+02 0.  0.
         13    1    3    3    0    0  0.77708902200E+03 -0.30354955837E+03 -0.67320823309E+03  0.10720163280E+04  0.00000000000E+00 0.  1.
        -13    1    3    3    0    0  0.26791598460E+03 -0.52854045258E+02 -0.19621253109E+03  0.33626162770E+03  0.00000000000E+00 0. -1.
         22    1    1    2    0    0 -0.10450050066E+04  0.35640360363E+03  0.22381329021E+04  0.24956558016E+04  0.00000000000E+00 0.  1.
<mgrwt>
<rscale>  0 0.36561354E+04</rscale>
<asrwt>0</asrwt>
<pdfrwt beam="1">  1        2 0.19501705E+00 0.36561354E+04</pdfrwt>
<pdfrwt beam="2">  1       -2 0.40558815E+00 0.36561354E+04</pdfrwt>
<totfact> 0.95510336E-02</totfact>
</mgrwt>
</event>
<event>
 6    1  0.1001928E-005  0.4385119E+04  0.7818608E-02  0.7931064E-01
          4   -1    0    0  501    0  0.00000000000E+00  0.00000000000E+00  0.31929984558E+04  0.31929984558E+04  0.00000000000E+00 0. -1.
         -4   -1    0    0    0  501 -0.00000000000E+00 -0.00000000000E+00 -0.15055808900E+04  0.15055808900E+04  0.00000000000E+00 0.  1.
         23    2    1    2    0    0  0.16465653861E+04  0.76294540749E+03  0.21608050840E+04  0.28231170007E+04  0.87451260663E+02 0.  0.
         13    1    3    3    0    0  0.11530654625E+04  0.52536331442E+03  0.15688345508E+04  0.20166329415E+04  0.00000000000E+00 0. -1.
        -13    1    3    3    0    0  0.49349992360E+03  0.23758209307E+03  0.59197053315E+03  0.80648405915E+03  0.00000000000E+00 0.  1.
         22    1    1    2    0    0 -0.16465653861E+04 -0.76294540749E+03 -0.47338751811E+03  0.18754623451E+04  0.00000000000E+00 0.  1.
<mgrwt>
<rscale>  0 0.43851191E+04</rscale>
<asrwt>0</asrwt>
<pdfrwt beam="1">  1        4 0.49123053E+00 0.43851191E+04</pdfrwt>
<pdfrwt beam="2">  1       -4 0.23162783E+00 0.43851191E+04</pdfrwt>
<totfact> 0.17364618E-04</totfact>
</mgrwt>
</event>
<event>
 6    1  0.1001928E-005  0.4779099E+04  0.7818608E-02  0.7863517E-01
          2   -1    0    0  501    0  0.00000000000E+00  0.00000000000E+00  0.23976356946E+04  0.23976356946E+04  0.00000000000E+00 0.  1.
         -2   -1    0    0    0  501 -0.00000000000E+00 -0.00000000000E+00 -0.23814907346E+04  0.23814907346E+04  0.00000000000E+00 0. -1.
         23    2    1    2    0    0  0.14958616011E+04  0.85539346309E+03  0.16623039683E+04  0.23960319311E+04  0.91731268019E+02 0.  0.
         11    1    3    3    0    0  0.85143729946E+03  0.47783034410E+03  0.87935762722E+03  0.13139776060E+04  0.00000000000E+00 0. -1.
        -11    1    3    3    0    0  0.64442430161E+03  0.37756311899E+03  0.78294634109E+03  0.10820543250E+04  0.00000000000E+00 0.  1.
         22    1    1    2    0    0 -0.14958616011E+04 -0.85539346309E+03 -0.16461590083E+04  0.23830944981E+04  0.00000000000E+00 0. -1.
<mgrwt>
<rscale>  0 0.47790992E+04</rscale>
<asrwt>0</asrwt>
<pdfrwt beam="1">  1        2 0.36886703E+00 0.47790992E+04</pdfrwt>
<pdfrwt beam="2">  1       -2 0.36638319E+00 0.47790992E+04</pdfrwt>
<totfact> 0.36184570E-02</totfact>
</mgrwt>
</event>
<event>
 6    1  0.1001928E-005  0.1862912E+04  0.7818608E-02  0.8673541E-01
          2   -1    0    0  501    0  0.00000000000E+00  0.00000000000E+00  0.27687079195E+04  0.27687079195E+04  0.00000000000E+00 0. -1.
         -2   -1    0    0    0  501 -0.00000000000E+00 -0.00000000000E+00 -0.31336284514E+03  0.31336284514E+03  0.00000000000E+00 0.  1.
         23    2    1    2    0    0  0.86880365192E+03 -0.32581506349E+03  0.13079340493E+04  0.16064260576E+04  0.94540783634E+02 0.  0.
         11    1    3    3    0    0  0.45468460012E+03 -0.14796654038E+03  0.60033667474E+03  0.76748700686E+03  0.00000000000E+00 0.  1.
        -11    1    3    3    0    0  0.41411905180E+03 -0.17784852311E+03  0.70759737461E+03  0.83893905070E+03  0.00000000000E+00 0. -1.
         22    1    1    2    0    0 -0.86880365192E+03  0.32581506349E+03  0.11474110250E+04  0.14756447070E+04  0.00000000000E+00 0.  1.
<mgrwt>
<rscale>  0 0.18629119E+04</rscale>
<asrwt>0</asrwt>
<pdfrwt beam="1">  1        2 0.42595505E+00 0.18629119E+04</pdfrwt>
<pdfrwt beam="2">  1       -2 0.48209670E-01 0.18629119E+04</pdfrwt>
<totfact> 0.92661953E+00</totfact>
</mgrwt>
</event>
<event>
 6    1  0.1001928E-005  0.2224009E+04  0.7818608E-02  0.8508501E-01
          2   -1    0    0  501    0  0.00000000000E+00  0.00000000000E+00  0.81455608259E+03  0.81455608259E+03  0.00000000000E+00 0. -1.
         -2   -1    0    0    0  501 -0.00000000000E+00 -0.00000000000E+00 -0.15180707189E+04  0.15180707189E+04  0.00000000000E+00 0.  1.
         23    2    1    2    0    0 -0.21134176886E+03  0.75481391760E+03  0.47206385610E+03  0.91968866227E+03  0.92593508433E+02 0.  0.
         13    1    3    3    0    0 -0.18277036550E+02  0.21891502242E+03  0.13083576617E+03  0.25568698601E+03  0.00000000000E+00 0. -1.
        -13    1    3    3    0    0 -0.19306473231E+03  0.53589889518E+03  0.34122808993E+03  0.66400167626E+03  0.00000000000E+00 0.  1.
         22    1    1    2    0    0  0.21134176886E+03 -0.75481391760E+03 -0.11755784924E+04  0.14129381392E+04  0.00000000000E+00 0.  1.
<mgrwt>
<rscale>  0 0.22240088E+04</rscale>
<asrwt>0</asrwt>
<pdfrwt beam="1">  1        2 0.12531632E+00 0.22240088E+04</pdfrwt>
<pdfrwt beam="2">  1       -2 0.23354934E+00 0.22240088E+04</pdfrwt>
<totfact> 0.24912176E+00</totfact>
</mgrwt>
</event>
<event>
 6    1  0.1001928E-005  0.1890228E+04  0.7818608E-02  0.8659736E-01
         -1   -1    0    0    0  501 -0.00000000000E+00  0.00000000000E+00  0.99928786717E+03  0.99928786717E+03  0.00000000000E+00 0.  1.
          1   -1    0    0  501    0  0.00000000000E+00 -0.00000000000E+00 -0.89387695167E+03  0.89387695167E+03  0.00000000000E+00 0. -1.
         23    2    1    2    0    0  0.96457694394E+02 -0.71867645811E+03 -0.54855341629E+03  0.91670730030E+03  0.11679677075E+03 0.  0.
         11    1    3    3    0    0  0.27188512688E+02 -0.16252222824E+03 -0.18941925438E+03  0.25106243013E+03  0.00000000000E+00 0. -1.
        -11    1    3    3    0    0  0.69269181706E+02 -0.55615422986E+03 -0.35913416192E+03  0.66564487017E+03  0.00000000000E+00 0.  1.
         22    1    1    2    0    0 -0.96457694394E+02  0.71867645811E+03  0.65396433179E+03  0.97645751854E+03  0.00000000000E+00 0.  1.
<mgrwt>
<rscale>  0 0.18902279E+04</rscale>
<asrwt>0</asrwt>
<pdfrwt beam="1">  1        1 0.13751953E+00 0.18902279E+04</pdfrwt>
<pdfrwt beam="2">  1       -1 0.15373659E+00 0.18902279E+04</pdfrwt>
<totfact> 0.56260522E+00</totfact>
</mgrwt>
</event>
<event>
 6    1  0.1001928E-005  0.1796780E+04  0.7818608E-02  0.8708014E-01
          2   -1    0    0  501    0  0.00000000000E+00  0.00000000000E+00  0.73347788739E+03  0.73347788739E+03  0.00000000000E+00 0. -1.
         -2   -1    0    0    0  501 -0.00000000000E+00 -0.00000000000E+00 -0.11003799044E+04  0.11003799044E+04  0.00000000000E+00 0.  1.
         23    2    1    2    0    0  0.20767782164E+02  0.86889815901E+03  0.38469439966E+02  0.87482633784E+03  0.91792766923E+02 0.  0.
         13    1    3    3    0    0  0.54881184950E+02  0.47626684577E+03  0.71253012656E+01  0.47947139931E+03  0.00000000000E+00 0.  1.
        -13    1    3    3    0    0 -0.34113402787E+02  0.39263131324E+03  0.31344138701E+02  0.39535493853E+03  0.00000000000E+00 0. -1.
         22    1    1    2    0    0 -0.20767782164E+02 -0.86889815901E+03 -0.40537145697E+03  0.95903145394E+03  0.00000000000E+00 0.  1.
<mgrwt>
<rscale>  0 0.17967797E+04</rscale>
<asrwt>0</asrwt>
<pdfrwt beam="1">  1        2 0.11284275E+00 0.17967797E+04</pdfrwt>
<pdfrwt beam="2">  1       -2 0.16928921E+00 0.17967797E+04</pdfrwt>
<totfact> 0.78544469E+00</totfact>
</mgrwt>
</event>
<event>
 6    1  0.1001928E-005  0.4057191E+04  0.7818608E-02  0.7993108E-01
         -2   -1    0    0    0  501 -0.00000000000E+00  0.00000000000E+00  0.21088719577E+04  0.21088719577E+04  0.00000000000E+00 0.  1.
          2   -1    0    0  501    0  0.00000000000E+00 -0.00000000000E+00 -0.19513751429E+04  0.19513751429E+04  0.00000000000E+00 0. -1.
         23    2    1    2    0    0 -0.18931941610E+04 -0.27121204296E+03  0.75216567230E+03  0.20574063297E+04  0.97095330961E+02 0.  0.
         13    1    3    3    0    0 -0.15429996018E+04 -0.25465847368E+03  0.59563325668E+03  0.16734627829E+04  0.00000000000E+00 0.  1.
        -13    1    3    3    0    0 -0.35019455924E+03 -0.16553569284E+02  0.15653241561E+03  0.38394354678E+03  0.00000000000E+00 0. -1.
         22    1    1    2    0    0  0.18931941610E+04  0.27121204296E+03 -0.59466885752E+03  0.20028407709E+04  0.00000000000E+00 0. -1.
<mgrwt>
<rscale>  0 0.40571913E+04</rscale>
<asrwt>0</asrwt>
<pdfrwt beam="1">  1        2 0.30021156E+00 0.40571913E+04</pdfrwt>
<pdfrwt beam="2">  1       -2 0.32444184E+00 0.40571913E+04</pdfrwt>
<totfact> 0.12548273E-01</totfact>
</mgrwt>
</event>
<event>
 6    1  0.1001928E-005  0.5684620E+03  0.7818608E-02  0.9973088E-01
          1   -1    0    0  501    0  0.00000000000E+00  0.00000000000E+00  0.41157895110E+03  0.41157895110E+03  0.00000000000E+00 0. -1.
         -1   -1    0    0    0  501 -0.00000000000E+00 -0.00000000000E+00 -0.19628619805E+03  0.19628619805E+03  0.00000000000E+00 0.  1.
         23    2    1    2    0    0 -0.85113273546E+02  0.17546882754E+03 -0.94461083632E+02  0.24183097300E+03  0.10735801977E+03 0.  0.
         11    1    3    3    0    0 -0.53604258178E+02  0.10262192946E+03  0.34017123162E+01  0.11582853080E+03  0.00000000000E+00 0. -1.
        -11    1    3    3    0    0 -0.31509015368E+02  0.72846898079E+02 -0.97862795948E+02  0.12600244220E+03  0.00000000000E+00 0.  1.
         22    1    1    2    0    0  0.85113273546E+02 -0.17546882754E+03  0.30975383669E+03  0.36603417615E+03  0.00000000000E+00 0. -1.
<mgrwt>
<rscale>  0 0.56846202E+03</rscale>
<asrwt>0</asrwt>
<pdfrwt beam="1">  1        1 0.63319838E-01 0.56846202E+03</pdfrwt>
<pdfrwt beam="2">  1       -1 0.30197877E-01 0.56846202E+03</pdfrwt>
<totfact> 0.58793263E+02</totfact>
</mgrwt>
</event>
<event>
 6    1  0.1001928E-005  0.2610352E+04  0.7818608E-02  0.8364693E-01
         -1   -1    0    0    0  501 -0.00000000000E+00  0.00000000000E+00  0.87727375492E+03  0.87727375492E+03  0.00000000000E+00 0.  1.
          1   -1    0    0  501    0  0.00000000000E+00 -0.00000000000E+00 -0.19417938561E+04  0.19417938561E+04  0.00000000000E+00 0. -1.
         23    2    1    2    0    0 -0.39235382542E+03  0.10696046679E+04 -0.12171443788E+04  0.16695938879E+04  0.90042444382E+02 0.  0.
         11    1    3    3    0    0 -0.25711434263E+03  0.79093156087E+03 -0.84914005864E+03  0.11885787136E+04  0.00000000000E+00 0.  1.
        -11    1    3    3    0    0 -0.13523948278E+03  0.27867310701E+03 -0.36800432020E+03  0.48101517436E+03  0.00000000000E+00 0. -1.
         22    1    1    2    0    0  0.39235382542E+03 -0.10696046679E+04  0.15262427768E+03  0.11494737231E+04  0.00000000000E+00 0.  1.
<mgrwt>
<rscale>  0 0.26103523E+04</rscale>
<asrwt>0</asrwt>
<pdfrwt beam="1">  1        1 0.29873751E+00 0.26103523E+04</pdfrwt>
<pdfrwt beam="2">  1       -1 0.13496519E+00 0.26103523E+04</pdfrwt>
<totfact> 0.13236732E+00</totfact>
</mgrwt>
</event>
<event>
 6    1  0.1001928E-005  0.3868212E+04  0.7818608E-02  0.8031673E-01
         -1   -1    0    0    0  501 -0.00000000000E+00  0.00000000000E+00  0.18983296244E+04  0.18983296244E+04  0.00000000000E+00 0.  1.
          1   -1    0    0  501    0  0.00000000000E+00 -0.00000000000E+00 -0.19705567547E+04  0.19705567547E+04  0.00000000000E+00 0. -1.
         23    2    1    2    0    0 -0.15579020904E+04  0.31992992037E+03  0.10627585111E+04  0.19150167613E+04  0.91757647131E+02 0.  0.
         11    1    3    3    0    0 -0.18656875988E+03  0.67706253077E+02  0.14371270346E+03  0.24504158831E+03  0.00000000000E+00 0. -1.
        -11    1    3    3    0    0 -0.13713333305E+04  0.25222366729E+03  0.91904580762E+03  0.16699751730E+04  0.00000000000E+00 0.  1.
         22    1    1    2    0    0  0.15579020904E+04 -0.31992992037E+03 -0.11349856414E+04  0.19538696178E+04  0.00000000000E+00 0. -1.
<mgrwt>
<rscale>  0 0.38682121E+04</rscale>
<asrwt>0</asrwt>
<pdfrwt beam="1">  1        1 0.30316258E+00 0.38682121E+04</pdfrwt>
<pdfrwt beam="2">  1       -1 0.29205071E+00 0.38682121E+04</pdfrwt>
<totfact> 0.91798314E-02</totfact>
</mgrwt>
</event>
<event>
 6    1  0.1001928E-005  0.1510487E+04  0.7818608E-02  0.8877509E-01
         -2   -1    0    0    0  501 -0.00000000000E+00  0.00000000000E+00  0.97883859571E+03  0.97883859571E+03  0.00000000000E+00 0.  1.
          2   -1    0    0  501    0  0.00000000000E+00 -0.00000000000E+00 -0.58272437738E+03  0.58272437738E+03  0.00000000000E+00 0. -1.
         23    2    1    2    0    0  0.33432563905E+03  0.28919973919E+03 -0.42950054168E+03  0.62505357430E+03  0.10397660012E+03 0.  0.
         11    1    3    3    0    0  0.17829641856E+03  0.10287930435E+03 -0.24457031308E+03  0.31966920743E+03  0.00000000000E+00 0. -1.
        -11    1    3    3    0    0  0.15602922049E+03  0.18632043483E+03 -0.18493022860E+03  0.30538436688E+03  0.00000000000E+00 0.  1.
         22    1    1    2    0    0 -0.33432563905E+03 -0.28919973919E+03  0.82561476001E+03  0.93650939879E+03  0.00000000000E+00 0.  1.
<mgrwt>
<rscale>  0 0.15104875E+04</rscale>
<asrwt>0</asrwt>
<pdfrwt beam="1">  1        2 0.89649905E-01 0.15104875E+04</pdfrwt>
<pdfrwt beam="2">  1       -2 0.15059055E+00 0.15104875E+04</pdfrwt>
<totfact> 0.14696069E+01</totfact>
</mgrwt>
</event>
<event>
 6    1  0.1001928E-005  0.4637309E+04  0.7818608E-02  0.7887029E-01
         -2   -1    0    0    0  501 -0.00000000000E+00  0.00000000000E+00  0.20946403059E+04  0.20946403059E+04  0.00000000000E+00 0.  1.
          2   -1    0    0  501    0  0.00000000000E+00 -0.00000000000E+00 -0.25666264384E+04  0.25666264384E+04  0.00000000000E+00 0. -1.
         23    2    1    2    0    0 -0.16121137338E+04 -0.16189775387E+04  0.15422436895E+03  0.22922714819E+04  0.10355882023E+03 0.  0.
         13    1    3    3    0    0 -0.75669241622E+03 -0.83188585741E+03  0.65741779392E+02  0.11264721364E+04  0.00000000000E+00 0.  1.
        -13    1    3    3    0    0 -0.85542131757E+03 -0.78709168130E+03  0.88482589555E+02  0.11657993455E+04  0.00000000000E+00 0. -1.
         22    1    1    2    0    0  0.16121137338E+04  0.16189775387E+04 -0.62621050145E+03  0.23689952625E+04  0.00000000000E+00 0. -1.
<mgrwt>
<rscale>  0 0.46373092E+04</rscale>
<asrwt>0</asrwt>
<pdfrwt beam="1">  1        2 0.39486560E+00 0.46373092E+04</pdfrwt>
<pdfrwt beam="2">  1       -2 0.32225236E+00 0.46373092E+04</pdfrwt>
<totfact> 0.55316327E-02</totfact>
</mgrwt>
</event>
<event>
 6    1  0.1001928E-005  0.1813957E+04  0.7818608E-02  0.8698913E-01
          2   -1    0    0  501    0  0.00000000000E+00  0.00000000000E+00  0.46021038982E+03  0.46021038982E+03  0.00000000000E+00 0. -1.
         -2   -1    0    0    0  501 -0.00000000000E+00 -0.00000000000E+00 -0.17874641654E+04  0.17874641654E+04  0.00000000000E+00 0.  1.
         23    2    1    2    0    0 -0.33002468473E+03 -0.55744352508E+03 -0.14476976043E+04  0.15887615929E+04  0.93142199862E+02 0.  0.
         11    1    3    3    0    0 -0.16258517244E+03 -0.36089721792E+03 -0.90461428977E+03  0.98742480901E+03  0.00000000000E+00 0. -1.
        -11    1    3    3    0    0 -0.16743951229E+03 -0.19654630716E+03 -0.54308331448E+03  0.60133678384E+03  0.00000000000E+00 0.  1.
         22    1    1    2    0    0  0.33002468473E+03  0.55744352508E+03  0.12044382863E+03  0.65891296241E+03  0.00000000000E+00 0. -1.
<mgrwt>
<rscale>  0 0.18139565E+04</rscale>
<asrwt>0</asrwt>
<pdfrwt beam="1">  1        2 0.70801597E-01 0.18139565E+04</pdfrwt>
<pdfrwt beam="2">  1       -2 0.27499449E+00 0.18139565E+04</pdfrwt>
<totfact> 0.28898643E+00</totfact>
</mgrwt>
</event>
<event>
 6    1  0.1001928E-005  0.8753331E+03  0.7818608E-02  0.9456953E-01
          2   -1    0    0  501    0  0.00000000000E+00  0.00000000000E+00  0.12788386763E+04  0.12788386763E+04  0.00000000000E+00 0. -1.
         -2   -1    0    0    0  501 -0.00000000000E+00 -0.00000000000E+00 -0.14978591270E+03  0.14978591270E+03  0.00000000000E+00 0.  1.
         23    2    1    2    0    0  0.10776908223E+03 -0.91635968324E+02  0.12383990178E+04  0.12498288143E+04  0.91807472136E+02 0.  0.
         11    1    3    3    0    0  0.49434965464E+02 -0.58926635250E+02  0.32471698100E+03  0.33370238522E+03  0.00000000000E+00 0.  1.
        -11    1    3    3    0    0  0.58334116765E+02 -0.32709333074E+02  0.91368203679E+03  0.91612642905E+03  0.00000000000E+00 0. -1.
         22    1    1    2    0    0 -0.10776908223E+03  0.91635968324E+02 -0.10934625416E+03  0.17879577476E+03  0.00000000000E+00 0.  1.
<mgrwt>
<rscale>  0 0.87533312E+03</rscale>
<asrwt>0</asrwt>
<pdfrwt beam="1">  1        2 0.19674441E+00 0.87533312E+03</pdfrwt>
<pdfrwt beam="2">  1       -2 0.23043987E-01 0.87533312E+03</pdfrwt>
<totfact> 0.28331385E+02</totfact>
</mgrwt>
</event>
<event>
 6    1  0.1001928E-005  0.2960673E+04  0.7818608E-02  0.8255051E-01
          1   -1    0    0  501    0  0.00000000000E+00  0.00000000000E+00  0.13610409648E+04  0.13610409648E+04  0.00000000000E+00 0. -1.
         -1   -1    0    0    0  501 -0.00000000000E+00 -0.00000000000E+00 -0.16100886244E+04  0.16100886244E+04  0.00000000000E+00 0.  1.
         23    2    1    2    0    0 -0.31240281595E+03 -0.14068824829E+04  0.20865675449E+03  0.14590425643E+04  0.91398705167E+02 0.  0.
         13    1    3    3    0    0 -0.15825105123E+03 -0.80539403236E+03  0.15971720209E+03  0.83618928911E+03  0.00000000000E+00 0. -1.
        -13    1    3    3    0    0 -0.15415176472E+03 -0.60148845053E+03  0.48939552406E+02  0.62285327524E+03  0.00000000000E+00 0.  1.
         22    1    1    2    0    0  0.31240281595E+03  0.14068824829E+04 -0.45770441415E+03  0.15120870249E+04  0.00000000000E+00 0.  1.
<mgrwt>
<rscale>  0 0.29606733E+04</rscale>
<asrwt>0</asrwt>
<pdfrwt beam="1">  1        1 0.20939092E+00 0.29606733E+04</pdfrwt>
<pdfrwt beam="2">  1       -1 0.24770594E+00 0.29606733E+04</pdfrwt>
<totfact> 0.50439959E-01</totfact>
</mgrwt>
</event>
<event>
 6    1  0.1001928E-005  0.3256185E+04  0.7818608E-02  0.8174135E-01
          2   -1    0    0  501    0  0.00000000000E+00  0.00000000000E+00  0.19953961582E+04  0.19953961582E+04  0.00000000000E+00 0. -1.
         -2   -1    0    0    0  501 -0.00000000000E+00 -0.00000000000E+00 -0.13284002955E+04  0.13284002955E+04  0.00000000000E+00 0.  1.
         23    2    1    2    0    0 -0.76015363570E+03  0.50354477813E+03  0.17090623717E+04  0.19391327751E+04  0.89167457479E+02 0.  0.
         13    1    3    3    0    0 -0.54860188860E+03  0.39617524828E+03  0.13226237609E+04  0.14856824938E+04  0.00000000000E+00 0. -1.
        -13    1    3    3    0    0 -0.21155174710E+03  0.10736952985E+03  0.38643861087E+03  0.45345028130E+03  0.00000000000E+00 0.  1.
         22    1    1    2    0    0  0.76015363570E+03 -0.50354477813E+03 -0.10420665090E+04  0.13846636786E+04  0.00000000000E+00 0.  1.
<mgrwt>
<rscale>  0 0.32561848E+04</rscale>
<asrwt>0</asrwt>
<pdfrwt beam="1">  1        2 0.30698403E+00 0.32561848E+04</pdfrwt>
<pdfrwt beam="2">  1       -2 0.20436928E+00 0.32561848E+04</pdfrwt>
<totfact> 0.70156767E-01</totfact>
</mgrwt>
</event>
<event>
 6    1  0.1001928E-005  0.3161772E+04  0.7818608E-02  0.8198987E-01
         -1   -1    0    0    0  501 -0.00000000000E+00  0.00000000000E+00  0.12685866742E+04  0.12685866742E+04  0.00000000000E+00 0.  1.
          1   -1    0    0  501    0  0.00000000000E+00 -0.00000000000E+00 -0.19700670716E+04  0.19700670716E+04  0.00000000000E+00 0. -1.
         23    2    1    2    0    0  0.28556501452E+03 -0.79275537730E+03  0.10176599027E+04  0.13241167686E+04  0.87436111049E+02 0.  0.
         11    1    3    3    0    0  0.19344646433E+03 -0.64093223741E+03  0.81125132982E+03  0.10518290677E+04  0.00000000000E+00 0. -1.
        -11    1    3    3    0    0  0.92118550186E+02 -0.15182313989E+03  0.20640857286E+03  0.27228770087E+03  0.00000000000E+00 0.  1.
         22    1    1    2    0    0 -0.28556501452E+03  0.79275537730E+03 -0.17191403001E+04  0.19145369773E+04  0.00000000000E+00 0. -1.
<mgrwt>
<rscale>  0 0.31617722E+04</rscale>
<asrwt>0</asrwt>
<pdfrwt beam="1">  1        1 0.30308724E+00 0.31617722E+04</pdfrwt>
<pdfrwt beam="2">  1       -1 0.19516718E+00 0.31617722E+04</pdfrwt>
<totfact> 0.42616979E-01</totfact>
</mgrwt>
</event>
<event>
 6    1  0.1001928E-005  0.1729232E+04  0.7818608E-02  0.8744865E-01
          2   -1    0    0  501    0  0.00000000000E+00  0.00000000000E+00  0.16647556653E+04  0.16647556653E+04  0.00000000000E+00 0. -1.
         -2   -1    0    0    0  501 -0.00000000000E+00 -0.00000000000E+00 -0.44905158531E+03  0.44905158531E+03  0.00000000000E+00 0.  1.
         23    2    1    2    0    0  0.58185051385E+03 -0.24145068840E+03  0.13292078433E+04  0.14737044778E+04  0.90349000660E+02 0.  0.
         11    1    3    3    0    0  0.32169216406E+03 -0.99440986260E+02  0.63169373359E+03  0.71582912152E+03  0.00000000000E+00 0.  1.
        -11    1    3    3    0    0  0.26015834979E+03 -0.14200970214E+03  0.69751410968E+03  0.75787535629E+03  0.00000000000E+00 0. -1.
         22    1    1    2    0    0 -0.58185051385E+03  0.24145068840E+03 -0.11350376332E+03  0.64010277275E+03  0.00000000000E+00 0.  1.
<mgrwt>
<rscale>  0 0.17292324E+04</rscale>
<asrwt>0</asrwt>
<pdfrwt beam="1">  1        2 0.25611625E+00 0.17292324E+04</pdfrwt>
<pdfrwt beam="2">  1       -2 0.69084860E-01 0.17292324E+04</pdfrwt>
<totfact> 0.18633764E+01</totfact>
</mgrwt>
</event>
<event>
 6    1  0.1001928E-005  0.2085657E+04  0.7818608E-02  0.8567588E-01
         -1   -1    0    0    0  501 -0.00000000000E+00  0.00000000000E+00  0.10775078317E+04  0.10775078317E+04  0.00000000000E+00 0.  1.
          1   -1    0    0  501    0  0.00000000000E+00 -0.00000000000E+00 -0.10092655595E+04  0.10092655595E+04  0.00000000000E+00 0. -1.
         23    2    1    2    0    0 -0.49467829647E+03  0.88243533461E+03  0.27906774506E+03  0.10534069912E+04  0.91590097322E+02 0.  0.
         13    1    3    3    0    0 -0.18557615377E+03  0.41302826074E+03  0.10216722893E+03  0.46418638033E+03  0.00000000000E+00 0. -1.
        -13    1    3    3    0    0 -0.30910214269E+03  0.46940707387E+03  0.17690051612E+03  0.58922061083E+03  0.00000000000E+00 0.  1.
         22    1    1    2    0    0  0.49467829647E+03 -0.88243533461E+03 -0.21082547282E+03  0.10333664001E+04  0.00000000000E+00 0. -1.
<mgrwt>
<rscale>  0 0.20856573E+04</rscale>
<asrwt>0</asrwt>
<pdfrwt beam="1">  1        1 0.15527162E+00 0.20856573E+04</pdfrwt>
<pdfrwt beam="2">  1       -1 0.16577044E+00 0.20856573E+04</pdfrwt>
<totfact> 0.36239936E+00</totfact>
</mgrwt>
</event>
<event>
 6    1  0.1001928E-005  0.1736635E+04  0.7818608E-02  0.8740742E-01
         -2   -1    0    0    0  501 -0.00000000000E+00  0.00000000000E+00  0.18148384646E+04  0.18148384646E+04  0.00000000000E+00 0.  1.
          2   -1    0    0  501    0  0.00000000000E+00 -0.00000000000E+00 -0.41545028002E+03  0.41545028002E+03  0.00000000000E+00 0. -1.
         23    2    1    2    0    0 -0.65086966846E+03  0.55457374131E+03  0.87670757962E+03  0.12281019484E+04  0.91841469521E+02 0.  0.
         13    1    3    3    0    0 -0.20536856983E+03  0.16984845381E+03  0.21455111690E+03  0.34213583340E+03  0.00000000000E+00 0. -1.
        -13    1    3    3    0    0 -0.44550109863E+03  0.38472528749E+03  0.66215646273E+03  0.88596611495E+03  0.00000000000E+00 0.  1.
         22    1    1    2    0    0  0.65086966846E+03 -0.55457374131E+03  0.52268060500E+03  0.10021867963E+04  0.00000000000E+00 0. -1.
<mgrwt>
<rscale>  0 0.17366348E+04</rscale>
<asrwt>0</asrwt>
<pdfrwt beam="1">  1        2 0.63915429E-01 0.17366348E+04</pdfrwt>
<pdfrwt beam="2">  1       -2 0.27920591E+00 0.17366348E+04</pdfrwt>
<totfact> 0.30814339E+00</totfact>
</mgrwt>
</event>
<event>
 6    1  0.1001928E-005  0.1651419E+04  0.7818608E-02  0.8789568E-01
          2   -1    0    0  501    0  0.00000000000E+00  0.00000000000E+00  0.12845517317E+04  0.12845517317E+04  0.00000000000E+00 0. -1.
         -2   -1    0    0    0  501 -0.00000000000E+00 -0.00000000000E+00 -0.53076572524E+03  0.53076572524E+03  0.00000000000E+00 0.  1.
         23    2    1    2    0    0  0.72121235849E+03 -0.33402795437E+03  0.14373531903E+03  0.81337744799E+03  0.95922315575E+02 0.  0.
         13    1    3    3    0    0  0.17696629283E+03 -0.11208443846E+03  0.53424822166E+01  0.20954362853E+03  0.00000000000E+00 0. -1.
        -13    1    3    3    0    0  0.54424606565E+03 -0.22194351591E+03  0.13839283681E+03  0.60383381945E+03  0.00000000000E+00 0.  1.
         22    1    1    2    0    0 -0.72121235849E+03  0.33402795437E+03  0.61005068747E+03  0.10019400090E+04  0.00000000000E+00 0. -1.
<mgrwt>
<rscale>  0 0.16514188E+04</rscale>
<asrwt>0</asrwt>
<pdfrwt beam="1">  1        2 0.19762334E+00 0.16514188E+04</pdfrwt>
<pdfrwt beam="2">  1       -2 0.81656266E-01 0.16514188E+04</pdfrwt>
<totfact> 0.21280449E+01</totfact>
</mgrwt>
</event>
<event>
 6    1  0.1001928E-005  0.2433520E+04  0.7818608E-02  0.8427060E-01
          2   -1    0    0  501    0  0.00000000000E+00  0.00000000000E+00  0.30798536598E+04  0.30798536598E+04  0.00000000000E+00 0. -1.
         -2   -1    0    0    0  501 -0.00000000000E+00 -0.00000000000E+00 -0.48070611626E+03  0.48070611626E+03  0.00000000000E+00 0.  1.
         23    2    1    2    0    0 -0.12099186473E+04  0.10511776947E+03  0.13616282725E+04  0.18266604639E+04  0.87772541798E+02 0.  0.
         11    1    3    3    0    0 -0.60029248680E+03  0.72366484252E+02  0.73603644391E+03  0.95254271533E+03  0.00000000000E+00 0.  1.
        -11    1    3    3    0    0 -0.60962616055E+03  0.32751285221E+02  0.62559182863E+03  0.87411774856E+03  0.00000000000E+00 0. -1.
         22    1    1    2    0    0  0.12099186473E+04 -0.10511776947E+03  0.12375192710E+04  0.17338993122E+04  0.00000000000E+00 0.  1.
<mgrwt>
<rscale>  0 0.24335197E+04</rscale>
<asrwt>0</asrwt>
<pdfrwt beam="1">  1        2 0.47382363E+00 0.24335197E+04</pdfrwt>
<pdfrwt beam="2">  1       -2 0.73954789E-01 0.24335197E+04</pdfrwt>
<totfact> 0.22909510E+00</totfact>
</mgrwt>
</event>
<event>
 6    1  0.1001928E-005  0.2038495E+04  0.7818608E-02  0.8588831E-01
         -2   -1    0    0    0  501 -0.00000000000E+00  0.00000000000E+00  0.17768647737E+04  0.17768647737E+04  0.00000000000E+00 0.  1.
          2   -1    0    0  501    0  0.00000000000E+00 -0.00000000000E+00 -0.58466231286E+03  0.58466231286E+03  0.00000000000E+00 0. -1.
         23    2    1    2    0    0  0.32364163156E+03  0.50600413995E+03 -0.35330121577E+03  0.70340594812E+03  0.95781435880E+02 0.  0.
         13    1    3    3    0    0  0.26516284800E+02  0.74923683437E+02 -0.80156006253E+02  0.11287894860E+03  0.00000000000E+00 0. -1.
        -13    1    3    3    0    0  0.29712534676E+03  0.43108045651E+03 -0.27314520951E+03  0.59052699951E+03  0.00000000000E+00 0.  1.
         22    1    1    2    0    0 -0.32364163156E+03 -0.50600413995E+03  0.15455036766E+04  0.16581211384E+04  0.00000000000E+00 0.  1.
<mgrwt>
<rscale>  0 0.20384954E+04</rscale>
<asrwt>0</asrwt>
<pdfrwt beam="1">  1        2 0.89948049E-01 0.20384954E+04</pdfrwt>
<pdfrwt beam="2">  1       -2 0.27336381E+00 0.20384954E+04</pdfrwt>
<totfact> 0.21915212E+00</totfact>
</mgrwt>
</event>
<event>
 6    1  0.1001928E-005  0.2059317E+04  0.7818608E-02  0.8579379E-01
          2   -1    0    0  501    0  0.00000000000E+00  0.00000000000E+00  0.26458059114E+04  0.26458059114E+04  0.00000000000E+00 0. -1.
         -2   -1    0    0    0  501 -0.00000000000E+00 -0.00000000000E+00 -0.40070858334E+03  0.40070858334E+03  0.00000000000E+00 0.  1.
         23    2    1    2    0    0  0.97809114214E+03 -0.18646201351E+03  0.74881209374E+03  0.12492109958E+04  0.91532483442E+02 0.  0.
         11    1    3    3    0    0  0.53872874901E+03 -0.14894949251E+03  0.42004277593E+03  0.69917848218E+03  0.00000000000E+00 0.  1.
        -11    1    3    3    0    0  0.43936239313E+03 -0.37512521007E+02  0.32876931780E+03  0.55003251364E+03  0.00000000000E+00 0. -1.
         22    1    1    2    0    0 -0.97809114214E+03  0.18646201351E+03  0.14962852344E+04  0.17973034990E+04  0.00000000000E+00 0. -1.
<mgrwt>
<rscale>  0 0.20593175E+04</rscale>
<asrwt>0</asrwt>
<pdfrwt beam="1">  1        2 0.40704705E+00 0.20593175E+04</pdfrwt>
<pdfrwt beam="2">  1       -2 0.61647476E-01 0.20593175E+04</pdfrwt>
<totfact> 0.64703446E+00</totfact>
</mgrwt>
</event>
<event>
 6    1  0.1001928E-005  0.4527345E+04  0.7818608E-02  0.7905867E-01
          1   -1    0    0  501    0  0.00000000000E+00  0.00000000000E+00  0.24717460210E+04  0.24717460210E+04  0.00000000000E+00 0. -1.
         -1   -1    0    0    0  501 -0.00000000000E+00 -0.00000000000E+00 -0.20731146082E+04  0.20731146082E+04  0.00000000000E+00 0.  1.
         23    2    1    2    0    0  0.73510558505E+03  0.19606689474E+04  0.10604088284E+04  0.23488295979E+04  0.89054221278E+02 0.  0.
         13    1    3    3    0    0  0.66099240971E+03  0.17243035706E+04  0.90598657459E+03  0.20569262122E+04  0.00000000000E+00 0.  1.
        -13    1    3    3    0    0  0.74113175342E+02  0.23636537678E+03  0.15442225378E+03  0.29190338566E+03  0.00000000000E+00 0. -1.
         22    1    1    2    0    0 -0.73510558505E+03 -0.19606689474E+04 -0.66177741559E+03  0.21960310312E+04  0.00000000000E+00 0.  1.
<mgrwt>
<rscale>  0 0.45273448E+04</rscale>
<asrwt>0</asrwt>
<pdfrwt beam="1">  1        1 0.38026862E+00 0.45273448E+04</pdfrwt>
<pdfrwt beam="2">  1       -1 0.31894071E+00 0.45273448E+04</pdfrwt>
<totfact> 0.26426736E-02</totfact>
</mgrwt>
</event>
<event>
 6    1  0.1001928E-005  0.5274169E+04  0.7818608E-02  0.7787552E-01
         -1   -1    0    0    0  501 -0.00000000000E+00  0.00000000000E+00  0.35595387225E+04  0.35595387225E+04  0.00000000000E+00 0.  1.
          1   -1    0    0  501    0  0.00000000000E+00 -0.00000000000E+00 -0.19536840964E+04  0.19536840964E+04  0.00000000000E+00 0. -1.
         23    2    1    2    0    0 -0.21303276233E+04  0.21782394842E+03 -0.80413211664E+03  0.22892843649E+04  0.91931428284E+02 0.  0.
         13    1    3    3    0    0 -0.17576458920E+04  0.21459356469E+03 -0.66116735303E+03  0.18901089250E+04  0.00000000000E+00 0.  1.
        -13    1    3    3    0    0 -0.37268173125E+03  0.32303837303E+01 -0.14296476361E+03  0.39917543990E+03  0.00000000000E+00 0. -1.
         22    1    1    2    0    0  0.21303276233E+04 -0.21782394842E+03  0.24099867427E+04  0.32239384540E+04  0.00000000000E+00 0.  1.
<mgrwt>
<rscale>  0 0.52741688E+04</rscale>
<asrwt>0</asrwt>
<pdfrwt beam="1">  1        1 0.30056678E+00 0.52741688E+04</pdfrwt>
<pdfrwt beam="2">  1       -1 0.54762134E+00 0.52741688E+04</pdfrwt>
<totfact> 0.17710935E-03</totfact>
</mgrwt>
</event>
<event>
 6    1  0.1001928E-005  0.1948309E+04  0.7818608E-02  0.8631177E-01
          1   -1    0    0  501    0  0.00000000000E+00  0.00000000000E+00  0.11300522398E+04  0.11300522398E+04  0.00000000000E+00 0. -1.
         -1   -1    0    0    0  501 -0.00000000000E+00 -0.00000000000E+00 -0.83976366020E+03  0.83976366020E+03  0.00000000000E+00 0.  1.
         23    2    1    2    0    0 -0.48808978175E+03 -0.76529982736E+03 -0.20593927302E+03  0.93533170846E+03  0.92298211661E+02 0.  0.
         11    1    3    3    0    0 -0.22142794380E+03 -0.33251667087E+03 -0.44476187540E+02  0.40196492628E+03  0.00000000000E+00 0.  1.
        -11    1    3    3    0    0 -0.26666183795E+03 -0.43278315649E+03 -0.16146308548E+03  0.53336678218E+03  0.00000000000E+00 0. -1.
         22    1    1    2    0    0  0.48808978175E+03  0.76529982736E+03  0.49622785260E+03  0.10344841915E+04  0.00000000000E+00 0. -1.
<mgrwt>
<rscale>  0 0.19483088E+04</rscale>
<asrwt>0</asrwt>
<pdfrwt beam="1">  1        1 0.17385419E+00 0.19483088E+04</pdfrwt>
<pdfrwt beam="2">  1       -1 0.12919441E+00 0.19483088E+04</pdfrwt>
<totfact> 0.57787125E+00</totfact>
</mgrwt>
</event>
<event>
 6    1  0.1001928E-005  0.1504074E+04  0.7818608E-02  0.8881748E-01
          2   -1    0    0  501    0  0.00000000000E+00  0.00000000000E+00  0.17892905037E+04  0.17892905037E+04  0.00000000000E+00 0. -1.
         -2   -1    0    0    0  501 -0.00000000000E+00 -0.00000000000E+00 -0.31608039074E+03  0.31608039074E+03  0.00000000000E+00 0.  1.
         23    2    1    2    0    0 -0.24400367073E+03  0.69352258127E+03  0.53081280761E+03  0.91012027504E+03  0.77751631753E+02 0.  0.
         13    1    3    3    0    0 -0.14795186475E+03  0.35489584059E+03  0.23744786444E+03  0.45190961517E+03  0.00000000000E+00 0. -1.
        -13    1    3    3    0    0 -0.96051805984E+02  0.33862674068E+03  0.29336494317E+03  0.45821065987E+03  0.00000000000E+00 0.  1.
         22    1    1    2    0    0  0.24400367073E+03 -0.69352258127E+03  0.94239730538E+03  0.11952506194E+04  0.00000000000E+00 0. -1.
<mgrwt>
<rscale>  0 0.15040740E+04</rscale>
<asrwt>0</asrwt>
<pdfrwt beam="1">  1        2 0.27527546E+00 0.15040740E+04</pdfrwt>
<pdfrwt beam="2">  1       -2 0.48627754E-01 0.15040740E+04</pdfrwt>
<totfact> 0.33839019E+01</totfact>
</mgrwt>
</event>
<event>
 6    1  0.1001928E-005  0.8804067E+03  0.7818608E-02  0.9450411E-01
          2   -1    0    0  501    0  0.00000000000E+00  0.00000000000E+00  0.14657419480E+03  0.14657419480E+03  0.00000000000E+00 0. -1.
         -2   -1    0    0    0  501 -0.00000000000E+00 -0.00000000000E+00 -0.13220538218E+04  0.13220538218E+04  0.00000000000E+00 0.  1.
         23    2    1    2    0    0  0.35715149637E+03 -0.17496113368E+03 -0.88972645438E+03  0.97891027613E+03  0.92106326811E+02 0.  0.
         11    1    3    3    0    0  0.15318114846E+03 -0.11282737768E+03 -0.34572533709E+03  0.39461435618E+03  0.00000000000E+00 0. -1.
        -11    1    3    3    0    0  0.20397034791E+03 -0.62133756003E+02 -0.54400111729E+03  0.58429591995E+03  0.00000000000E+00 0.  1.
         22    1    1    2    0    0 -0.35715149637E+03  0.17496113368E+03 -0.28575317262E+03  0.48971774046E+03  0.00000000000E+00 0.  1.
<mgrwt>
<rscale>  0 0.88040667E+03</rscale>
<asrwt>0</asrwt>
<pdfrwt beam="1">  1        2 0.22549877E-01 0.88040667E+03</pdfrwt>
<pdfrwt beam="2">  1       -2 0.20339289E+00 0.88040667E+03</pdfrwt>
<totfact> 0.31479312E+01</totfact>
</mgrwt>
</event>
<event>
 6    1  0.1001928E-005  0.1755094E+04  0.7818608E-02  0.8730551E-01
         -1   -1    0    0    0  501 -0.00000000000E+00  0.00000000000E+00  0.94486165016E+03  0.94486165016E+03  0.00000000000E+00 0.  1.
          1   -1    0    0  501    0  0.00000000000E+00 -0.00000000000E+00 -0.81502778604E+03  0.81502778604E+03  0.00000000000E+00 0. -1.
         23    2    1    2    0    0 -0.45038321970E+03  0.62895121368E+03  0.47540001153E+03  0.91263467168E+03  0.92044550205E+02 0.  0.
         11    1    3    3    0    0 -0.29251047213E+03  0.33402237920E+03  0.25466956986E+03  0.51184950515E+03  0.00000000000E+00 0. -1.
        -11    1    3    3    0    0 -0.15787274757E+03  0.29492883448E+03  0.22073044168E+03  0.40078516654E+03  0.00000000000E+00 0.  1.
         22    1    1    2    0    0  0.45038321970E+03 -0.62895121368E+03 -0.34556614741E+03  0.84725476452E+03  0.00000000000E+00 0. -1.
<mgrwt>
<rscale>  0 0.17550937E+04</rscale>
<asrwt>0</asrwt>
<pdfrwt beam="1">  1        1 0.12538889E+00 0.17550937E+04</pdfrwt>
<pdfrwt beam="2">  1       -1 0.14536333E+00 0.17550937E+04</pdfrwt>
<totfact> 0.77139562E+00</totfact>
</mgrwt>
</event>
<event>
 6    1  0.1001928E-005  0.1472535E+04  0.7818608E-02  0.8902925E-01
         -1   -1    0    0    0  501 -0.00000000000E+00  0.00000000000E+00  0.66901528315E+03  0.66901528315E+03  0.00000000000E+00 0.  1.
          1   -1    0    0  501    0  0.00000000000E+00 -0.00000000000E+00 -0.81028009202E+03  0.81028009202E+03  0.00000000000E+00 0. -1.
         23    2    1    2    0    0  0.21441987302E+03  0.57343839473E+03  0.33520843483E+03  0.70351562133E+03  0.88102554884E+02 0.  0.
         13    1    3    3    0    0  0.44028082259E+02  0.24050630611E+03  0.13509854746E+03  0.27934454144E+03  0.00000000000E+00 0. -1.
        -13    1    3    3    0    0  0.17039179076E+03  0.33293208861E+03  0.20010988737E+03  0.42417107989E+03  0.00000000000E+00 0.  1.
         22    1    1    2    0    0 -0.21441987302E+03 -0.57343839473E+03 -0.47647324370E+03  0.77577975383E+03  0.00000000000E+00 0. -1.
<mgrwt>
<rscale>  0 0.14725349E+04</rscale>
<asrwt>0</asrwt>
<pdfrwt beam="1">  1        1 0.12465848E+00 0.14725349E+04</pdfrwt>
<pdfrwt beam="2">  1       -1 0.10292543E+00 0.14725349E+04</pdfrwt>
<totfact> 0.18732770E+01</totfact>
</mgrwt>
</event>
<event>
 6    1  0.1001928E-005  0.1962689E+04  0.7818608E-02  0.8624266E-01
          1   -1    0    0  501    0  0.00000000000E+00  0.00000000000E+00  0.16393887451E+04  0.16393887451E+04  0.00000000000E+00 0. -1.
         -1   -1    0    0    0  501 -0.00000000000E+00 -0.00000000000E+00 -0.58743684561E+03  0.58743684561E+03  0.00000000000E+00 0.  1.
         23    2    1    2    0    0 -0.39280751337E+03  0.57571729217E+03 -0.25318211061E+03  0.74725709707E+03  0.92432921253E+02 0.  0.
         11    1    3    3    0    0 -0.32262160360E+03  0.49453260561E+03 -0.17973530801E+03  0.61721307348E+03  0.00000000000E+00 0.  1.
        -11    1    3    3    0    0 -0.70185909763E+02  0.81184686551E+02 -0.73446802597E+02  0.13004402359E+03  0.00000000000E+00 0. -1.
         22    1    1    2    0    0  0.39280751337E+03 -0.57571729217E+03  0.13051340101E+04  0.14795684937E+04  0.00000000000E+00 0. -1.
<mgrwt>
<rscale>  0 0.19626893E+04</rscale>
<asrwt>0</asrwt>
<pdfrwt beam="1">  1        1 0.25221365E+00 0.19626893E+04</pdfrwt>
<pdfrwt beam="2">  1       -1 0.90374900E-01 0.19626893E+04</pdfrwt>
<totfact> 0.58398477E+00</totfact>
</mgrwt>
</event>
<event>
 6    1  0.1001928E-005  0.1061377E+04  0.7818608E-02  0.9243676E-01
          1   -1    0    0  501    0  0.00000000000E+00  0.00000000000E+00  0.90149440669E+03  0.90149440669E+03  0.00000000000E+00 0. -1.
         -1   -1    0    0    0  501 -0.00000000000E+00 -0.00000000000E+00 -0.31240365114E+03  0.31240365114E+03  0.00000000000E+00 0.  1.
         23    2    1    2    0    0 -0.96886617942E+02 -0.50966145500E+03  0.19289221439E+03  0.56112313531E+03  0.92249396541E+02 0.  0.
         11    1    3    3    0    0 -0.22074852922E+02 -0.26569887335E+03  0.59448347137E+02  0.27316166716E+03  0.00000000000E+00 0. -1.
        -11    1    3    3    0    0 -0.74811765020E+02 -0.24396258165E+03  0.13344386725E+03  0.28796146815E+03  0.00000000000E+00 0.  1.
         22    1    1    2    0    0  0.96886617942E+02  0.50966145500E+03  0.39619854116E+03  0.65277492252E+03  0.00000000000E+00 0. -1.
<mgrwt>
<rscale>  0 0.10613767E+04</rscale>
<asrwt>0</asrwt>
<pdfrwt beam="1">  1        1 0.13869145E+00 0.10613767E+04</pdfrwt>
<pdfrwt beam="2">  1       -1 0.48062100E-01 0.10613767E+04</pdfrwt>
<totfact> 0.78393675E+01</totfact>
</mgrwt>
</event>
<event>
 6    1  0.1001928E-005  0.2730448E+04  0.7818608E-02  0.8325193E-01
         -2   -1    0    0    0  501 -0.00000000000E+00  0.00000000000E+00  0.63761936804E+03  0.63761936804E+03  0.00000000000E+00 0.  1.
          2   -1    0    0  501    0  0.00000000000E+00 -0.00000000000E+00 -0.29231180221E+04  0.29231180221E+04  0.00000000000E+00 0. -1.
         23    2    1    2    0    0  0.96917393520E+03  0.26081536668E+03  0.59964485479E+02  0.10095572493E+04  0.91034762070E+02 0.  0.
         13    1    3    3    0    0  0.50895162025E+03  0.18396374296E+03  0.31406468652E+02  0.54208927009E+03  0.00000000000E+00 0. -1.
        -13    1    3    3    0    0  0.46022231495E+03  0.76851623718E+02  0.28558016827E+02  0.46746797919E+03  0.00000000000E+00 0.  1.
         22    1    1    2    0    0 -0.96917393520E+03 -0.26081536668E+03 -0.23454631395E+04  0.25511801408E+04  0.00000000000E+00 0. -1.
<mgrwt>
<rscale>  0 0.27304481E+04</rscale>
<asrwt>0</asrwt>
<pdfrwt beam="1">  1        2 0.44971046E+00 0.27304481E+04</pdfrwt>
<pdfrwt beam="2">  1       -2 0.98095288E-01 0.27304481E+04</pdfrwt>
<totfact> 0.14701690E+00</totfact>
</mgrwt>
</event>
<event>
 6    1  0.1001928E-005  0.7417315E+03  0.7818608E-02  0.9648412E-01
         -2   -1    0    0    0  501 -0.00000000000E+00  0.00000000000E+00  0.10115677095E+03  0.10115677095E+03  0.00000000000E+00 0.  1.
          2   -1    0    0  501    0  0.00000000000E+00 -0.00000000000E+00 -0.13596855727E+04  0.13596855727E+04  0.00000000000E+00 0. -1.
         23    2    1    2    0    0  0.94216481979E+02  0.22533066707E+03 -0.11738749983E+04  0.12023526506E+04  0.89547360113E+02 0.  0.
         13    1    3    3    0    0  0.68026314867E+02  0.17743021344E+03 -0.10489024954E+04  0.10659763154E+04  0.00000000000E+00 0.  1.
        -13    1    3    3    0    0  0.26190167112E+02  0.47900453621E+02 -0.12497250288E+03  0.13637633514E+03  0.00000000000E+00 0. -1.
         22    1    1    2    0    0 -0.94216481979E+02 -0.22533066707E+03 -0.84653803471E+02  0.25848969310E+03  0.00000000000E+00 0.  1.
<mgrwt>
<rscale>  0 0.74173149E+03</rscale>
<asrwt>0</asrwt>
<pdfrwt beam="1">  1        2 0.20918240E+00 0.74173149E+03</pdfrwt>
<pdfrwt beam="2">  1       -2 0.15562580E-01 0.74173149E+03</pdfrwt>
<totfact> 0.50760603E+02</totfact>
</mgrwt>
</event>
<event>
 6    1  0.1001928E-005  0.1704513E+04  0.7818608E-02  0.8758795E-01
         -1   -1    0    0    0  501 -0.00000000000E+00  0.00000000000E+00  0.98748008868E+03  0.98748008868E+03  0.00000000000E+00 0. -1.
          1   -1    0    0  501    0  0.00000000000E+00 -0.00000000000E+00 -0.73555011528E+03  0.73555011528E+03  0.00000000000E+00 0.  1.
         23    2    1    2    0    0  0.60535640859E+03  0.45616867794E+03 -0.26222826175E+03  0.80711266678E+03  0.90116321920E+02 0.  0.
         13    1    3    3    0    0  0.12579800973E+03  0.11278559653E+03 -0.95964054529E+02  0.19430602100E+03  0.00000000000E+00 0. -1.
        -13    1    3    3    0    0  0.47955839886E+03  0.34338308141E+03 -0.16626420722E+03  0.61280664578E+03  0.00000000000E+00 0.  1.
         22    1    1    2    0    0 -0.60535640859E+03 -0.45616867794E+03  0.51415823514E+03  0.91591753718E+03  0.00000000000E+00 0. -1.
<mgrwt>
<rscale>  0 0.17045129E+04</rscale>
<asrwt>0</asrwt>
<pdfrwt beam="1">  1        1 0.11316156E+00 0.17045129E+04</pdfrwt>
<pdfrwt beam="2">  1       -1 0.15192001E+00 0.17045129E+04</pdfrwt>
<totfact> 0.80958890E+00</totfact>
</mgrwt>
</event>
<event>
 6    1  0.1001928E-005  0.3345024E+04  0.7818608E-02  0.8151533E-01
         -1   -1    0    0    0  501 -0.00000000000E+00  0.00000000000E+00  0.76937752279E+03  0.76937752279E+03  0.00000000000E+00 0.  1.
          1   -1    0    0  501    0  0.00000000000E+00 -0.00000000000E+00 -0.36357916944E+04  0.36357916944E+04  0.00000000000E+00 0. -1.
         23    2    1    2    0    0  0.67328966945E+03  0.93259584407E+03 -0.30310806377E+04  0.32432014756E+04  0.88611466940E+02 0.  0.
         11    1    3    3    0    0  0.35287127959E+03  0.48178391654E+03 -0.14493821491E+04  0.15675913040E+04  0.00000000000E+00 0. -1.
        -11    1    3    3    0    0  0.32041838987E+03  0.45081192753E+03 -0.15816984885E+04  0.16756101716E+04  0.00000000000E+00 0.  1.
         22    1    1    2    0    0 -0.67328966945E+03 -0.93259584407E+03  0.16466646607E+03  0.11619677416E+04  0.00000000000E+00 0.  1.
<mgrwt>
<rscale>  0 0.33450240E+04</rscale>
<asrwt>0</asrwt>
<pdfrwt beam="1">  1        1 0.55935256E+00 0.33450240E+04</pdfrwt>
<pdfrwt beam="2">  1       -1 0.11836577E+00 0.33450240E+04</pdfrwt>
<totfact> 0.10282361E-01</totfact>
</mgrwt>
</event>
<event>
 6    1  0.1022596E-005  0.3677565E+04  0.7818608E-02  0.8072952E-01
          1   -1    0    0  501    0  0.00000000000E+00  0.00000000000E+00  0.21118336456E+04  0.21118336456E+04  0.00000000000E+00 0. -1.
         -1   -1    0    0    0  501 -0.00000000000E+00 -0.00000000000E+00 -0.16010353176E+04  0.16010353176E+04  0.00000000000E+00 0.  1.
         23    2    1    2    0    0 -0.45609172154E+03  0.33145348896E+03 -0.15102564293E+04  0.16146450939E+04  0.91231701449E+02 0.  0.
         11    1    3    3    0    0 -0.21636988920E+03  0.12527529021E+03 -0.56322780763E+03  0.61622673633E+03  0.00000000000E+00 0. -1.
        -11    1    3    3    0    0 -0.23972183234E+03  0.20617819876E+03 -0.94702862165E+03  0.99841835759E+03  0.00000000000E+00 0.  1.
         22    1    1    2    0    0  0.45609172154E+03 -0.33145348896E+03  0.20210547572E+04  0.20982238693E+04  0.00000000000E+00 0. -1.
<mgrwt>
<rscale>  0 0.36775645E+04</rscale>
<asrwt>0</asrwt>
<pdfrwt beam="1">  1        1 0.32489748E+00 0.36775645E+04</pdfrwt>
<pdfrwt beam="2">  1       -1 0.24631313E+00 0.36775645E+04</pdfrwt>
<totfact> 0.14821859E-01</totfact>
</mgrwt>
</event>
<event>
 6    1  0.1001928E-005  0.1612799E+04  0.7818608E-02  0.8812723E-01
          2   -1    0    0  501    0  0.00000000000E+00  0.00000000000E+00  0.43892796081E+04  0.43892796081E+04  0.00000000000E+00 0. -1.
         -2   -1    0    0    0  501 -0.00000000000E+00 -0.00000000000E+00 -0.14815197330E+03  0.14815197330E+03  0.00000000000E+00 0.  1.
         23    2    1    2    0    0 -0.58005013181E+03 -0.36732253451E+03  0.33046074306E+04  0.33762020207E+04  0.83221477653E+02 0.  0.
         13    1    3    3    0    0 -0.28764467649E+03 -0.21823773980E+03  0.15925952475E+04  0.16330115717E+04  0.00000000000E+00 0. -1.
        -13    1    3    3    0    0 -0.29240545532E+03 -0.14908479472E+03  0.17120121832E+04  0.17431904490E+04  0.00000000000E+00 0.  1.
         22    1    1    2    0    0  0.58005013181E+03  0.36732253451E+03  0.93652020411E+03  0.11612295606E+04  0.00000000000E+00 0.  1.
<mgrwt>
<rscale>  0 0.16127993E+04</rscale>
<asrwt>0</asrwt>
<pdfrwt beam="1">  1        2 0.67527369E+00 0.16127993E+04</pdfrwt>
<pdfrwt beam="2">  1       -2 0.22792615E-01 0.16127993E+04</pdfrwt>
<totfact> 0.26216324E+00</totfact>
</mgrwt>
</event>
<event>
 6    1  0.1001928E-005  0.1544623E+04  0.7818608E-02  0.8855310E-01
         -2   -1    0    0    0  501 -0.00000000000E+00  0.00000000000E+00  0.81745248330E+03  0.81745248330E+03  0.00000000000E+00 0.  1.
          2   -1    0    0  501    0  0.00000000000E+00 -0.00000000000E+00 -0.72966314678E+03  0.72966314678E+03  0.00000000000E+00 0. -1.
         23    2    1    2    0    0 -0.24715896865E+03  0.41032971070E+03  0.64741389983E+03  0.81047618019E+03  0.90933237597E+02 0.  0.
         11    1    3    3    0    0 -0.14660769108E+03  0.15817588501E+03  0.26960298232E+03  0.34525236242E+03  0.00000000000E+00 0.  1.
        -11    1    3    3    0    0 -0.10055127757E+03  0.25215382568E+03  0.37781091752E+03  0.46522381777E+03  0.00000000000E+00 0. -1.
         22    1    1    2    0    0  0.24715896865E+03 -0.41032971070E+03 -0.55962456331E+03  0.73663944988E+03  0.00000000000E+00 0. -1.
<mgrwt>
<rscale>  0 0.15446229E+04</rscale>
<asrwt>0</asrwt>
<pdfrwt beam="1">  1        2 0.11225587E+00 0.15446229E+04</pdfrwt>
<pdfrwt beam="2">  1       -2 0.12576192E+00 0.15446229E+04</pdfrwt>
<totfact> 0.17665776E+01</totfact>
</mgrwt>
</event>
<event>
 6    1  0.1001928E-005  0.4667916E+04  0.7818608E-02  0.7881882E-01
         -2   -1    0    0    0  501 -0.00000000000E+00  0.00000000000E+00  0.18195562861E+04  0.18195562861E+04  0.00000000000E+00 0. -1.
          2   -1    0    0  501    0  0.00000000000E+00 -0.00000000000E+00 -0.29937842244E+04  0.29937842244E+04  0.00000000000E+00 0.  1.
         23    2    1    2    0    0 -0.14605364702E+04  0.74196577404E+03  0.11255820688E+04  0.19897247330E+04  0.91594370704E+02 0.  0.
         13    1    3    3    0    0 -0.69376436801E+03  0.37528620887E+03  0.49213576828E+03  0.92970229176E+03  0.00000000000E+00 0.  1.
        -13    1    3    3    0    0 -0.76677210216E+03  0.36667956517E+03  0.63344630057E+03  0.10600224412E+04  0.00000000000E+00 0. -1.
         22    1    1    2    0    0  0.14605364702E+04 -0.74196577404E+03 -0.22998100071E+04  0.28236157776E+04  0.00000000000E+00 0.  1.
<mgrwt>
<rscale>  0 0.46679156E+04</rscale>
<asrwt>0</asrwt>
<pdfrwt beam="1">  1        2 0.46058219E+00 0.46679156E+04</pdfrwt>
<pdfrwt beam="2">  1       -2 0.27993174E+00 0.46679156E+04</pdfrwt>
<totfact> 0.55329475E-02</totfact>
</mgrwt>
</event>
<event>
 6    1  0.1001928E-005  0.2859959E+04  0.7818608E-02  0.8284892E-01
          2   -1    0    0  501    0  0.00000000000E+00  0.00000000000E+00  0.21868319903E+04  0.21868319903E+04  0.00000000000E+00 0. -1.
         -2   -1    0    0    0  501 -0.00000000000E+00 -0.00000000000E+00 -0.93506994159E+03  0.93506994159E+03  0.00000000000E+00 0.  1.
         23    2    1    2    0    0 -0.39699996314E+03  0.11365407221E+04  0.14658297979E+04  0.18991350755E+04  0.93398367410E+02 0.  0.
         11    1    3    3    0    0 -0.40829336964E+02  0.77155521160E+02  0.14101050021E+03  0.16584321020E+03  0.00000000000E+00 0.  1.
        -11    1    3    3    0    0 -0.35617062617E+03  0.10593852009E+04  0.13248192977E+04  0.17332918653E+04  0.00000000000E+00 0. -1.
         22    1    1    2    0    0  0.39699996314E+03 -0.11365407221E+04 -0.21406774922E+03  0.12227668563E+04  0.00000000000E+00 0. -1.
<mgrwt>
<rscale>  0 0.28599586E+04</rscale>
<asrwt>0</asrwt>
<pdfrwt beam="1">  1        2 0.33643569E+00 0.28599586E+04</pdfrwt>
<pdfrwt beam="2">  1       -2 0.14385691E+00 0.28599586E+04</pdfrwt>
<totfact> 0.15216038E+00</totfact>
</mgrwt>
</event>
<event>
 6    1  0.1001928E-005  0.2760074E+04  0.7818608E-02  0.8315772E-01
          1   -1    0    0  501    0  0.00000000000E+00  0.00000000000E+00  0.11774615876E+04  0.11774615876E+04  0.00000000000E+00 0. -1.
         -1   -1    0    0    0  501 -0.00000000000E+00 -0.00000000000E+00 -0.16174646991E+04  0.16174646991E+04  0.00000000000E+00 0.  1.
         23    2    1    2    0    0  0.24147729194E+03 -0.88290888573E+03 -0.12640690407E+04  0.15632915849E+04  0.90391685282E+02 0.  0.
         13    1    3    3    0    0  0.57777205853E+02 -0.11845084558E+03 -0.14908263474E+03  0.19898351769E+03  0.00000000000E+00 0. -1.
        -13    1    3    3    0    0  0.18370008608E+03 -0.76445804015E+03 -0.11149864060E+04  0.13643080672E+04  0.00000000000E+00 0.  1.
         22    1    1    2    0    0 -0.24147729194E+03  0.88290888573E+03  0.82406592916E+03  0.12316347018E+04  0.00000000000E+00 0. -1.
<mgrwt>
<rscale>  0 0.27600743E+04</rscale>
<asrwt>0</asrwt>
<pdfrwt beam="1">  1        1 0.18114794E+00 0.27600743E+04</pdfrwt>
<pdfrwt beam="2">  1       -1 0.24884072E+00 0.27600743E+04</pdfrwt>
<totfact> 0.68412329E-01</totfact>
</mgrwt>
</event>
<event>
 6    1  0.1001928E-005  0.1269245E+04  0.7818608E-02  0.9054316E-01
         -2   -1    0    0    0  501 -0.00000000000E+00  0.00000000000E+00  0.14498673564E+03  0.14498673564E+03  0.00000000000E+00 0.  1.
          2   -1    0    0  501    0  0.00000000000E+00 -0.00000000000E+00 -0.27778114595E+04  0.27778114595E+04  0.00000000000E+00 0. -1.
         23    2    1    2    0    0  0.12286375630E+02  0.32231463148E+03 -0.25730143109E+04  0.25947510001E+04  0.91062790211E+02 0.  0.
         11    1    3    3    0    0  0.41674101516E+02  0.13691444133E+03 -0.91160588044E+03  0.92277168153E+03  0.00000000000E+00 0.  1.
        -11    1    3    3    0    0 -0.29387725887E+02  0.18540019016E+03 -0.16614084304E+04  0.16719793185E+04  0.00000000000E+00 0. -1.
         22    1    1    2    0    0 -0.12286375630E+02 -0.32231463148E+03 -0.59810412992E+02  0.32804719507E+03  0.00000000000E+00 0.  1.
<mgrwt>
<rscale>  0 0.12692452E+04</rscale>
<asrwt>0</asrwt>
<pdfrwt beam="1">  1        2 0.42735559E+00 0.12692452E+04</pdfrwt>
<pdfrwt beam="2">  1       -2 0.22305653E-01 0.12692452E+04</pdfrwt>
<totfact> 0.41630666E+01</totfact>
</mgrwt>
</event>
<event>
 6    1  0.1001928E-005  0.2958159E+04  0.7818608E-02  0.8255781E-01
         -2   -1    0    0    0  501 -0.00000000000E+00  0.00000000000E+00  0.17160916455E+04  0.17160916455E+04  0.00000000000E+00 0.  1.
          2   -1    0    0  501    0  0.00000000000E+00 -0.00000000000E+00 -0.12748016263E+04  0.12748016263E+04  0.00000000000E+00 0. -1.
         23    2    1    2    0    0  0.27654047398E+03  0.94430603738E+03  0.13355216036E+04  0.16612923344E+04  0.89920746356E+02 0.  0.
         11    1    3    3    0    0  0.13493310563E+03  0.60193095637E+03  0.80403521723E+03  0.10134103067E+04  0.00000000000E+00 0. -1.
        -11    1    3    3    0    0  0.14160736835E+03  0.34237508101E+03  0.53148638641E+03  0.64788202770E+03  0.00000000000E+00 0.  1.
         22    1    1    2    0    0 -0.27654047398E+03 -0.94430603738E+03 -0.89423158448E+03  0.13296009374E+04  0.00000000000E+00 0. -1.
<mgrwt>
<rscale>  0 0.29581592E+04</rscale>
<asrwt>0</asrwt>
<pdfrwt beam="1">  1        2 0.19612333E+00 0.29581592E+04</pdfrwt>
<pdfrwt beam="2">  1       -2 0.26401410E+00 0.29581592E+04</pdfrwt>
<totfact> 0.77457074E-01</totfact>
</mgrwt>
</event>
<event>
 6    1  0.1001928E-005  0.3177684E+04  0.7818608E-02  0.8194736E-01
         -1   -1    0    0    0  501 -0.00000000000E+00  0.00000000000E+00  0.55664807512E+03  0.55664807512E+03  0.00000000000E+00 0.  1.
          1   -1    0    0  501    0  0.00000000000E+00 -0.00000000000E+00 -0.45350361072E+04  0.45350361072E+04  0.00000000000E+00 0. -1.
         23    2    1    2    0    0 -0.31529132418E+03  0.44356238108E+02 -0.44829551292E+04  0.44950569533E+04  0.85289083265E+02 0.  0.
         13    1    3    3    0    0 -0.23026656821E+03  0.89858364052E+01 -0.35829267365E+04  0.35903297115E+04  0.00000000000E+00 0.  1.
        -13    1    3    3    0    0 -0.85024755967E+02  0.35370401703E+02 -0.90002839271E+03  0.90472724184E+03  0.00000000000E+00 0. -1.
         22    1    1    2    0    0  0.31529132418E+03 -0.44356238108E+02  0.50456709712E+03  0.59662722906E+03  0.00000000000E+00 0.  1.
<mgrwt>
<rscale>  0 0.31776841E+04</rscale>
<asrwt>0</asrwt>
<pdfrwt beam="1">  1        1 0.69769786E+00 0.31776841E+04</pdfrwt>
<pdfrwt beam="2">  1       -1 0.85638165E-01 0.31776841E+04</pdfrwt>
<totfact> 0.33396717E-02</totfact>
</mgrwt>
</event>
<event>
 6    1  0.1001928E-005  0.1477366E+04  0.7818608E-02  0.8899645E-01
         -1   -1    0    0    0  501 -0.00000000000E+00  0.00000000000E+00  0.10496390996E+04  0.10496390996E+04  0.00000000000E+00 0.  1.
          1   -1    0    0  501    0  0.00000000000E+00 -0.00000000000E+00 -0.51984789785E+03  0.51984789785E+03  0.00000000000E+00 0. -1.
         23    2    1    2    0    0  0.31671436053E+03  0.55916625916E+03  0.64636481140E+03  0.91636809705E+03  0.94700202373E+02 0.  0.
         11    1    3    3    0    0  0.15593191910E+03  0.18881366086E+03  0.22029114838E+03  0.32938359397E+03  0.00000000000E+00 0.  1.
        -11    1    3    3    0    0  0.16078244143E+03  0.37035259830E+03  0.42607366302E+03  0.58698450309E+03  0.00000000000E+00 0. -1.
         22    1    1    2    0    0 -0.31671436053E+03 -0.55916625916E+03 -0.11657360967E+03  0.65311890037E+03  0.00000000000E+00 0. -1.
<mgrwt>
<rscale>  0 0.14773661E+04</rscale>
<asrwt>0</asrwt>
<pdfrwt beam="1">  1        1 0.79976600E-01 0.14773661E+04</pdfrwt>
<pdfrwt beam="2">  1       -1 0.16148294E+00 0.14773661E+04</pdfrwt>
<totfact> 0.11588144E+01</totfact>
</mgrwt>
</event>
<event>
 6    1  0.1001928E-005  0.1672585E+04  0.7818608E-02  0.8777157E-01
          4   -1    0    0  501    0  0.00000000000E+00  0.00000000000E+00  0.15200345258E+04  0.15200345258E+04  0.00000000000E+00 0. -1.
         -4   -1    0    0    0  501 -0.00000000000E+00 -0.00000000000E+00 -0.46011110439E+03  0.46011110439E+03  0.00000000000E+00 0.  1.
         23    2    1    2    0    0  0.18568983981E+03 -0.73825847120E+03  0.12874228213E+03  0.77739686132E+03  0.90912143742E+02 0.  0.
         11    1    3    3    0    0  0.90900773320E+02 -0.36790500830E+03  0.18030106384E+02  0.37939706174E+03  0.00000000000E+00 0.  1.
        -11    1    3    3    0    0  0.94789066491E+02 -0.37035346289E+03  0.11071217574E+03  0.39799979958E+03  0.00000000000E+00 0. -1.
         22    1    1    2    0    0 -0.18568983981E+03  0.73825847120E+03  0.93118113932E+03  0.12027487689E+04  0.00000000000E+00 0. -1.
<mgrwt>
<rscale>  0 0.16725845E+04</rscale>
<asrwt>0</asrwt>
<pdfrwt beam="1">  1        4 0.23385146E+00 0.16725845E+04</pdfrwt>
<pdfrwt beam="2">  1       -4 0.70786325E-01 0.16725845E+04</pdfrwt>
<totfact> 0.27791492E-01</totfact>
</mgrwt>
</event>
<event>
 6    1  0.1001928E-005  0.1464757E+04  0.7818608E-02  0.8908233E-01
          2   -1    0    0  501    0  0.00000000000E+00  0.00000000000E+00  0.29846143949E+04  0.29846143949E+04  0.00000000000E+00 0. -1.
         -2   -1    0    0    0  501 -0.00000000000E+00 -0.00000000000E+00 -0.17971452731E+03  0.17971452731E+03  0.00000000000E+00 0.  1.
         23    2    1    2    0    0 -0.71168842082E+03  0.15682935626E+03  0.13308578039E+04  0.15199762043E+04  0.89717959079E+02 0.  0.
         13    1    3    3    0    0 -0.28257003183E+03  0.62298972876E+02  0.43956261913E+03  0.52625305799E+03  0.00000000000E+00 0. -1.
        -13    1    3    3    0    0 -0.42911838899E+03  0.94530383384E+02  0.89129518475E+03  0.99372314631E+03  0.00000000000E+00 0.  1.
         22    1    1    2    0    0  0.71168842082E+03 -0.15682935626E+03  0.14740420637E+04  0.16443527179E+04  0.00000000000E+00 0. -1.
<mgrwt>
<rscale>  0 0.14647574E+04</rscale>
<asrwt>0</asrwt>
<pdfrwt beam="1">  1        2 0.45917141E+00 0.14647574E+04</pdfrwt>
<pdfrwt beam="2">  1       -2 0.27648391E-01 0.14647574E+04</pdfrwt>
<totfact> 0.20737964E+01</totfact>
</mgrwt>
</event>
<event>
 6    1  0.1001928E-005  0.1887586E+04  0.7818608E-02  0.8661060E-01
          2   -1    0    0  501    0  0.00000000000E+00  0.00000000000E+00  0.24366686003E+04  0.24366686003E+04  0.00000000000E+00 0. -1.
         -2   -1    0    0    0  501 -0.00000000000E+00 -0.00000000000E+00 -0.36555855769E+03  0.36555855769E+03  0.00000000000E+00 0.  1.
         23    2    1    2    0    0  0.50704766559E+03 -0.77462032337E+03  0.12927748713E+04  0.15927067492E+04  0.91180811038E+02 0.  0.
         13    1    3    3    0    0  0.24891901939E+03 -0.31451375493E+03  0.51201023237E+03  0.65041068434E+03  0.00000000000E+00 0.  1.
        -13    1    3    3    0    0  0.25812864620E+03 -0.46010656844E+03  0.78076463898E+03  0.94229606483E+03  0.00000000000E+00 0. -1.
         22    1    1    2    0    0 -0.50704766559E+03  0.77462032337E+03  0.77833517130E+03  0.12095204089E+04  0.00000000000E+00 0. -1.
<mgrwt>
<rscale>  0 0.18875858E+04</rscale>
<asrwt>0</asrwt>
<pdfrwt beam="1">  1        2 0.37487208E+00 0.18875858E+04</pdfrwt>
<pdfrwt beam="2">  1       -2 0.56239780E-01 0.18875858E+04</pdfrwt>
<totfact> 0.10543918E+01</totfact>
</mgrwt>
</event>
<event>
 6    1  0.1001928E-005  0.1947267E+04  0.7818608E-02  0.8631680E-01
          1   -1    0    0  501    0  0.00000000000E+00  0.00000000000E+00  0.70573537039E+03  0.70573537039E+03  0.00000000000E+00 0. -1.
         -1   -1    0    0    0  501 -0.00000000000E+00 -0.00000000000E+00 -0.13432260702E+04  0.13432260702E+04  0.00000000000E+00 0.  1.
         23    2    1    2    0    0 -0.30266794974E+03 -0.71685823586E+03  0.29299444486E+03  0.83599143990E+03  0.86846558611E+02 0.  0.
         13    1    3    3    0    0 -0.68700153872E+02 -0.18095171960E+03  0.11317560348E+03  0.22421407894E+03  0.00000000000E+00 0.  1.
        -13    1    3    3    0    0 -0.23396779587E+03 -0.53590651626E+03  0.17981884138E+03  0.61177736096E+03  0.00000000000E+00 0. -1.
         22    1    1    2    0    0  0.30266794974E+03  0.71685823586E+03 -0.93048514466E+03  0.12129700007E+04  0.00000000000E+00 0.  1.
<mgrwt>
<rscale>  0 0.19472670E+04</rscale>
<asrwt>0</asrwt>
<pdfrwt beam="1">  1        1 0.10857467E+00 0.19472670E+04</pdfrwt>
<pdfrwt beam="2">  1       -1 0.20665016E+00 0.19472670E+04</pdfrwt>
<totfact> 0.33966505E+00</totfact>
</mgrwt>
</event>
<event>
 6    1  0.1001928E-005  0.2834470E+04  0.7818608E-02  0.8292646E-01
          2   -1    0    0  501    0  0.00000000000E+00  0.00000000000E+00  0.13590264195E+04  0.13590264195E+04  0.00000000000E+00 0. -1.
         -2   -1    0    0    0  501 -0.00000000000E+00 -0.00000000000E+00 -0.14779371250E+04  0.14779371250E+04  0.00000000000E+00 0.  1.
         23    2    1    2    0    0 -0.11064648955E+04  0.67711121600E+03 -0.62711475782E+03  0.14437602130E+04  0.91795802336E+02 0.  0.
         13    1    3    3    0    0 -0.38497461237E+03  0.18520673728E+03 -0.20967356193E+03  0.47588863222E+03  0.00000000000E+00 0.  1.
        -13    1    3    3    0    0 -0.72149028317E+03  0.49190447872E+03 -0.41744119589E+03  0.96787158080E+03  0.00000000000E+00 0. -1.
         22    1    1    2    0    0  0.11064648955E+04 -0.67711121600E+03  0.50820405234E+03  0.13932033314E+04  0.00000000000E+00 0. -1.
<mgrwt>
<rscale>  0 0.28344704E+04</rscale>
<asrwt>0</asrwt>
<pdfrwt beam="1">  1        2 0.20908099E+00 0.28344704E+04</pdfrwt>
<pdfrwt beam="2">  1       -2 0.22737494E+00 0.28344704E+04</pdfrwt>
<totfact> 0.11772032E+00</totfact>
</mgrwt>
</event>
<event>
 6    1  0.1001928E-005  0.3145698E+04  0.7818608E-02  0.8203307E-01
          1   -1    0    0  501    0  0.00000000000E+00  0.00000000000E+00  0.21129343078E+04  0.21129343078E+04  0.00000000000E+00 0. -1.
         -1   -1    0    0    0  501 -0.00000000000E+00 -0.00000000000E+00 -0.11708143275E+04  0.11708143275E+04  0.00000000000E+00 0.  1.
         23    2    1    2    0    0  0.56246208874E+02  0.15573922365E+04  0.26014289183E+03  0.15826528228E+04  0.92094619739E+02 0.  0.
         11    1    3    3    0    0  0.39212261156E+02  0.49436019488E+03  0.12059325211E+03  0.51036490491E+03  0.00000000000E+00 0. -1.
        -11    1    3    3    0    0  0.17033947718E+02  0.10630320416E+04  0.13954963972E+03  0.10722879178E+04  0.00000000000E+00 0.  1.
         22    1    1    2    0    0 -0.56246208874E+02 -0.15573922365E+04  0.68197708841E+03  0.17010958125E+04  0.00000000000E+00 0.  1.
<mgrwt>
<rscale>  0 0.31456979E+04</rscale>
<asrwt>0</asrwt>
<pdfrwt beam="1">  1        1 0.32506682E+00 0.31456979E+04</pdfrwt>
<pdfrwt beam="2">  1       -1 0.18012528E+00 0.31456979E+04</pdfrwt>
<totfact> 0.43592850E-01</totfact>
</mgrwt>
</event>
<event>
 6    1  0.1001928E-005  0.3599614E+04  0.7818608E-02  0.8090580E-01
         -2   -1    0    0    0  501 -0.00000000000E+00  0.00000000000E+00  0.10120484703E+04  0.10120484703E+04  0.00000000000E+00 0. -1.
          2   -1    0    0  501    0  0.00000000000E+00 -0.00000000000E+00 -0.32007405609E+04  0.32007405609E+04  0.00000000000E+00 0.  1.
         23    2    1    2    0    0 -0.13508795352E+04  0.88018696863E+03 -0.16191937447E+03  0.16229218027E+04  0.89736702221E+02 0.  0.
         11    1    3    3    0    0 -0.10558749982E+04  0.65012634344E+03 -0.14513377611E+03  0.12484390603E+04  0.00000000000E+00 0. -1.
        -11    1    3    3    0    0 -0.29500453692E+03  0.23006062519E+03 -0.16785598361E+02  0.37448274243E+03  0.00000000000E+00 0.  1.
         22    1    1    2    0    0  0.13508795352E+04 -0.88018696863E+03 -0.20267727161E+04  0.25898672285E+04  0.00000000000E+00 0. -1.
<mgrwt>
<rscale>  0 0.35996136E+04</rscale>
<asrwt>0</asrwt>
<pdfrwt beam="1">  1        2 0.49242162E+00 0.35996136E+04</pdfrwt>
<pdfrwt beam="2">  1       -2 0.15569976E+00 0.35996136E+04</pdfrwt>
<totfact> 0.28603519E-01</totfact>
</mgrwt>
</event>
<event>
 6    1  0.1180968E-005  0.3038297E+04  0.7818608E-02  0.8232879E-01
          2   -1    0    0  501    0  0.00000000000E+00  0.00000000000E+00  0.19039003736E+04  0.19039003736E+04  0.00000000000E+00 0. -1.
         -2   -1    0    0    0  501 -0.00000000000E+00 -0.00000000000E+00 -0.12121494029E+04  0.12121494029E+04  0.00000000000E+00 0.  1.
         23    2    1    2    0    0 -0.13328845794E+04 -0.10336758178E+03 -0.39075179960E+03  0.13958525765E+04  0.91930883388E+02 0.  0.
         11    1    3    3    0    0 -0.69330364218E+03 -0.93702675540E+02 -0.18028455750E+03  0.72246290793E+03  0.00000000000E+00 0. -1.
        -11    1    3    3    0    0 -0.63958093725E+03 -0.96649062384E+01 -0.21046724210E+03  0.67338966855E+03  0.00000000000E+00 0.  1.
         22    1    1    2    0    0  0.13328845794E+04  0.10336758178E+03  0.10825027703E+04  0.17201972000E+04  0.00000000000E+00 0. -1.
<mgrwt>
<rscale>  0 0.30382967E+04</rscale>
<asrwt>0</asrwt>
<pdfrwt beam="1">  1        2 0.29290775E+00 0.30382967E+04</pdfrwt>
<pdfrwt beam="2">  1       -2 0.18648452E+00 0.30382967E+04</pdfrwt>
<totfact> 0.10555929E+00</totfact>
</mgrwt>
</event>
<event>
 6    1  0.1001928E-005  0.2334749E+04  0.7818608E-02  0.8464345E-01
         -1   -1    0    0    0  501 -0.00000000000E+00  0.00000000000E+00  0.82320031503E+03  0.82320031503E+03  0.00000000000E+00 0.  1.
          1   -1    0    0  501    0  0.00000000000E+00 -0.00000000000E+00 -0.16554457008E+04  0.16554457008E+04  0.00000000000E+00 0. -1.
         23    2    1    2    0    0  0.75850393566E+03 -0.12348639437E+03  0.51227706842E+03  0.92999571967E+03  0.10902813291E+03 0.  0.
         11    1    3    3    0    0  0.25860328465E+03 -0.82920610380E+01  0.21968054786E+03  0.33941708887E+03  0.00000000000E+00 0.  1.
        -11    1    3    3    0    0  0.49990065101E+03 -0.11519433334E+03  0.29259652056E+03  0.59057863080E+03  0.00000000000E+00 0. -1.
         22    1    1    2    0    0 -0.75850393566E+03  0.12348639437E+03 -0.13445224542E+04  0.15486502962E+04  0.00000000000E+00 0. -1.
<mgrwt>
<rscale>  0 0.23347492E+04</rscale>
<asrwt>0</asrwt>
<pdfrwt beam="1">  1        1 0.25468395E+00 0.23347492E+04</pdfrwt>
<pdfrwt beam="2">  1       -1 0.12664620E+00 0.23347492E+04</pdfrwt>
<totfact> 0.24952328E+00</totfact>
</mgrwt>
</event>
<event>
 6    1  0.1001928E-005  0.1721892E+04  0.7818608E-02  0.8748976E-01
         -2   -1    0    0    0  501 -0.00000000000E+00  0.00000000000E+00  0.71490246358E+03  0.71490246358E+03  0.00000000000E+00 0.  1.
          2   -1    0    0  501    0  0.00000000000E+00 -0.00000000000E+00 -0.10368239573E+04  0.10368239573E+04  0.00000000000E+00 0. -1.
         23    2    1    2    0    0 -0.48096925852E+02  0.41231402000E+03  0.60318241659E+03  0.73775728416E+03  0.90225369376E+02 0.  0.
         11    1    3    3    0    0 -0.60148014904E+02  0.22682186463E+03  0.38762443331E+03  0.45312100290E+03  0.00000000000E+00 0. -1.
        -11    1    3    3    0    0  0.12051089052E+02  0.18549215538E+03  0.21555798328E+03  0.28463628126E+03  0.00000000000E+00 0.  1.
         22    1    1    2    0    0  0.48096925852E+02 -0.41231402000E+03 -0.92510391031E+03  0.10139691367E+04  0.00000000000E+00 0. -1.
<mgrwt>
<rscale>  0 0.17218920E+04</rscale>
<asrwt>0</asrwt>
<pdfrwt beam="1">  1        2 0.15951138E+00 0.17218920E+04</pdfrwt>
<pdfrwt beam="2">  1       -2 0.10998499E+00 0.17218920E+04</pdfrwt>
<totfact> 0.14899227E+01</totfact>
</mgrwt>
</event>
<event>
 6    1  0.1001928E-005  0.1340350E+04  0.7818608E-02  0.8998165E-01
         -2   -1    0    0    0  501 -0.00000000000E+00  0.00000000000E+00  0.35907451342E+03  0.35907451342E+03  0.00000000000E+00 0.  1.
          2   -1    0    0  501    0  0.00000000000E+00 -0.00000000000E+00 -0.12508117145E+04  0.12508117145E+04  0.00000000000E+00 0. -1.
         23    2    1    2    0    0 -0.43614112742E+03  0.49999618848E+03 -0.52707911167E+03  0.85279257870E+03  0.96059985430E+02 0.  0.
         13    1    3    3    0    0 -0.91254639455E+02  0.16221891332E+03 -0.12131856393E+03  0.22217240831E+03  0.00000000000E+00 0. -1.
        -13    1    3    3    0    0 -0.34488648797E+03  0.33777727516E+03 -0.40576054774E+03  0.63062017039E+03  0.00000000000E+00 0.  1.
         22    1    1    2    0    0  0.43614112742E+03 -0.49999618848E+03 -0.36465808942E+03  0.75709364923E+03  0.00000000000E+00 0.  1.
<mgrwt>
<rscale>  0 0.13403501E+04</rscale>
<asrwt>0</asrwt>
<pdfrwt beam="1">  1        2 0.19243258E+00 0.13403501E+04</pdfrwt>
<pdfrwt beam="2">  1       -2 0.55242231E-01 0.13403501E+04</pdfrwt>
<totfact> 0.53194824E+01</totfact>
</mgrwt>
</event>
<event>
 6    1  0.1001928E-005  0.1302896E+04  0.7818608E-02  0.9027272E-01
         -1   -1    0    0    0  501 -0.00000000000E+00  0.00000000000E+00  0.29241705775E+03  0.29241705775E+03  0.00000000000E+00 0.  1.
          1   -1    0    0  501    0  0.00000000000E+00 -0.00000000000E+00 -0.14512993453E+04  0.14512993453E+04  0.00000000000E+00 0. -1.
         23    2    1    2    0    0  0.12581967443E+03 -0.22875065348E+03 -0.13774783462E+04  0.14032142904E+04  0.58363503689E+02 0.  0.
         13    1    3    3    0    0  0.87101680060E+02 -0.16365360188E+03 -0.11032732251E+04  0.11187408160E+04  0.00000000000E+00 0. -1.
        -13    1    3    3    0    0  0.38717994372E+02 -0.65097051601E+02 -0.27420512108E+03  0.28447347441E+03  0.00000000000E+00 0.  1.
         22    1    1    2    0    0 -0.12581967443E+03  0.22875065348E+03  0.21859605858E+03  0.34050211273E+03  0.00000000000E+00 0.  1.
<mgrwt>
<rscale>  0 0.13028963E+04</rscale>
<asrwt>0</asrwt>
<pdfrwt beam="1">  1        1 0.22327683E+00 0.13028963E+04</pdfrwt>
<pdfrwt beam="2">  1       -1 0.44987239E-01 0.13028963E+04</pdfrwt>
<totfact> 0.34037049E+01</totfact>
</mgrwt>
</event>
<event>
 6    1  0.1001928E-005  0.1948744E+04  0.7818608E-02  0.8630967E-01
          1   -1    0    0  501    0  0.00000000000E+00  0.00000000000E+00  0.14299663122E+04  0.14299663122E+04  0.00000000000E+00 0. -1.
         -1   -1    0    0    0  501 -0.00000000000E+00 -0.00000000000E+00 -0.66393239754E+03  0.66393239754E+03  0.00000000000E+00 0.  1.
         23    2    1    2    0    0 -0.92051062206E+03 -0.23684050762E+03  0.60371809110E+03  0.11296478824E+04  0.90529405897E+02 0.  0.
         11    1    3    3    0    0 -0.68426837143E+03 -0.18070875523E+03  0.40171586865E+03  0.81379020483E+03  0.00000000000E+00 0. -1.
        -11    1    3    3    0    0 -0.23624225064E+03 -0.56131752387E+02  0.20200222245E+03  0.31585767758E+03  0.00000000000E+00 0.  1.
         22    1    1    2    0    0  0.92051062206E+03  0.23684050762E+03  0.16231582354E+03  0.96425082730E+03  0.00000000000E+00 0. -1.
<mgrwt>
<rscale>  0 0.19487442E+04</rscale>
<asrwt>0</asrwt>
<pdfrwt beam="1">  1        1 0.21999482E+00 0.19487442E+04</pdfrwt>
<pdfrwt beam="2">  1       -1 0.10214345E+00 0.19487442E+04</pdfrwt>
<totfact> 0.61904158E+00</totfact>
</mgrwt>
</event>
<event>
 6    1  0.1001928E-005  0.1406845E+04  0.7818608E-02  0.8948879E-01
          2   -1    0    0  501    0  0.00000000000E+00  0.00000000000E+00  0.15228243953E+04  0.15228243953E+04  0.00000000000E+00 0. -1.
         -2   -1    0    0    0  501 -0.00000000000E+00 -0.00000000000E+00 -0.32492464415E+03  0.32492464415E+03  0.00000000000E+00 0.  1.
         23    2    1    2    0    0 -0.12713903865E+03  0.60817088291E+03  0.17710056120E+03  0.65273140603E+03  0.93045804180E+02 0.  0.
         11    1    3    3    0    0 -0.15481251811E+02  0.19944801175E+03  0.20821027930E+02  0.20112855032E+03  0.00000000000E+00 0.  1.
        -11    1    3    3    0    0 -0.11165778684E+03  0.40872287116E+03  0.15627953327E+03  0.45160285571E+03  0.00000000000E+00 0. -1.
         22    1    1    2    0    0  0.12713903865E+03 -0.60817088291E+03  0.10207991899E+04  0.11950176334E+04  0.00000000000E+00 0. -1.
<mgrwt>
<rscale>  0 0.14068449E+04</rscale>
<asrwt>0</asrwt>
<pdfrwt beam="1">  1        2 0.23428067E+00 0.14068449E+04</pdfrwt>
<pdfrwt beam="2">  1       -2 0.49988408E-01 0.14068449E+04</pdfrwt>
<totfact> 0.45376611E+01</totfact>
</mgrwt>
</event>
<event>
 6    1  0.1001928E-005  0.2862773E+04  0.7818608E-02  0.8284040E-01
          1   -1    0    0  501    0  0.00000000000E+00  0.00000000000E+00  0.16884088657E+04  0.16884088657E+04  0.00000000000E+00 0. -1.
         -1   -1    0    0    0  501 -0.00000000000E+00 -0.00000000000E+00 -0.12134901239E+04  0.12134901239E+04  0.00000000000E+00 0.  1.
         23    2    1    2    0    0 -0.67852841780E+03  0.43223389006E+03  0.14360500208E+04  0.16485034874E+04  0.89984088516E+02 0.  0.
         11    1    3    3    0    0 -0.27181485967E+03  0.22146585473E+03  0.58593722836E+03  0.68282712185E+03  0.00000000000E+00 0.  1.
        -11    1    3    3    0    0 -0.40671355813E+03  0.21076803533E+03  0.85011279242E+03  0.96567636552E+03  0.00000000000E+00 0. -1.
         22    1    1    2    0    0  0.67852841780E+03 -0.43223389006E+03 -0.96113127903E+03  0.12533955022E+04  0.00000000000E+00 0.  1.
<mgrwt>
<rscale>  0 0.28627731E+04</rscale>
<asrwt>0</asrwt>
<pdfrwt beam="1">  1        1 0.25975521E+00 0.28627731E+04</pdfrwt>
<pdfrwt beam="2">  1       -1 0.18669079E+00 0.28627731E+04</pdfrwt>
<totfact> 0.77931114E-01</totfact>
</mgrwt>
</event>
<event>
 6    1  0.1001928E-005  0.2559339E+04  0.7818608E-02  0.8382145E-01
          2   -1    0    0  501    0  0.00000000000E+00  0.00000000000E+00  0.22491707133E+04  0.22491707133E+04  0.00000000000E+00 0. -1.
         -2   -1    0    0    0  501 -0.00000000000E+00 -0.00000000000E+00 -0.72807039994E+03  0.72807039994E+03  0.00000000000E+00 0.  1.
         23    2    1    2    0    0 -0.97063282928E+03 -0.38683363997E+03 -0.95353637075E+02  0.10524835368E+04  0.82830699423E+02 0.  0.
         11    1    3    3    0    0 -0.61933522627E+03 -0.27790506549E+03 -0.34668182649E+02  0.67971260898E+03  0.00000000000E+00 0. -1.
        -11    1    3    3    0    0 -0.35129760302E+03 -0.10892857448E+03 -0.60685454427E+02  0.37277092779E+03  0.00000000000E+00 0.  1.
         22    1    1    2    0    0  0.97063282928E+03  0.38683363997E+03  0.16164539504E+04  0.19247575765E+04  0.00000000000E+00 0. -1.
<mgrwt>
<rscale>  0 0.25593395E+04</rscale>
<asrwt>0</asrwt>
<pdfrwt beam="1">  1        2 0.34602626E+00 0.25593395E+04</pdfrwt>
<pdfrwt beam="2">  1       -2 0.11201083E+00 0.25593395E+04</pdfrwt>
<totfact> 0.27029549E+00</totfact>
</mgrwt>
</event>
<event>
 6    1  0.1001928E-005  0.3114783E+04  0.7818608E-02  0.8211693E-01
         -1   -1    0    0    0  501 -0.00000000000E+00  0.00000000000E+00  0.12145477012E+04  0.12145477012E+04  0.00000000000E+00 0.  1.
          1   -1    0    0  501    0  0.00000000000E+00 -0.00000000000E+00 -0.19970130092E+04  0.19970130092E+04  0.00000000000E+00 0. -1.
         23    2    1    2    0    0  0.10266882828E+04 -0.65699433765E+03  0.60584205850E+03  0.13640954918E+04  0.89339359896E+02 0.  0.
         13    1    3    3    0    0  0.68826042816E+03 -0.43142985565E+03  0.44945206887E+03  0.92835408090E+03  0.00000000000E+00 0. -1.
        -13    1    3    3    0    0  0.33842785466E+03 -0.22556448200E+03  0.15638998963E+03  0.43574141094E+03  0.00000000000E+00 0.  1.
         22    1    1    2    0    0 -0.10266882828E+04  0.65699433765E+03 -0.13883073665E+04  0.18474652185E+04  0.00000000000E+00 0. -1.
<mgrwt>
<rscale>  0 0.31147825E+04</rscale>
<asrwt>0</asrwt>
<pdfrwt beam="1">  1        1 0.30723277E+00 0.31147825E+04</pdfrwt>
<pdfrwt beam="2">  1       -1 0.18685350E+00 0.31147825E+04</pdfrwt>
<totfact> 0.46921466E-01</totfact>
</mgrwt>
</event>
<event>
 6    1  0.1001928E-005  0.3270819E+04  0.7818608E-02  0.8170360E-01
          2   -1    0    0  501    0  0.00000000000E+00  0.00000000000E+00  0.28438968789E+04  0.28438968789E+04  0.00000000000E+00 0. -1.
         -2   -1    0    0    0  501 -0.00000000000E+00 -0.00000000000E+00 -0.94045771307E+03  0.94045771307E+03  0.00000000000E+00 0.  1.
         23    2    1    2    0    0  0.76218008690E+03 -0.45013477103E+03 -0.63721225583E+03  0.10939179279E+04  0.84125959402E+02 0.  0.
         11    1    3    3    0    0  0.18537993377E+03 -0.69608263762E+02 -0.14993790615E+03  0.24837956021E+03  0.00000000000E+00 0.  1.
        -11    1    3    3    0    0  0.57680015313E+03 -0.38052650727E+03 -0.48727434968E+03  0.84553836769E+03  0.00000000000E+00 0. -1.
         22    1    1    2    0    0 -0.76218008690E+03  0.45013477103E+03  0.25406514216E+04  0.26904366640E+04  0.00000000000E+00 0. -1.
<mgrwt>
<rscale>  0 0.32708193E+04</rscale>
<asrwt>0</asrwt>
<pdfrwt beam="1">  1        2 0.43752259E+00 0.32708193E+04</pdfrwt>
<pdfrwt beam="2">  1       -2 0.14468580E+00 0.32708193E+04</pdfrwt>
<totfact> 0.59965139E-01</totfact>
</mgrwt>
</event>
<event>
 6    1  0.1052814E-005  0.2612674E+04  0.7818608E-02  0.8363909E-01
          2   -1    0    0  501    0  0.00000000000E+00  0.00000000000E+00  0.25190867489E+04  0.25190867489E+04  0.00000000000E+00 0.  1.
         -2   -1    0    0    0  501 -0.00000000000E+00 -0.00000000000E+00 -0.67743457983E+03  0.67743457983E+03  0.00000000000E+00 0. -1.
         23    2    1    2    0    0 -0.79779360427E+03  0.94455197384E+03  0.14318020985E+04  0.18939737685E+04  0.91794990814E+02 0.  0.
         11    1    3    3    0    0 -0.35007541874E+03  0.39823343709E+03  0.54693951244E+03  0.76176472713E+03  0.00000000000E+00 0.  1.
        -11    1    3    3    0    0 -0.44771818553E+03  0.54631853675E+03  0.88486258603E+03  0.11322090414E+04  0.00000000000E+00 0. -1.
         22    1    1    2    0    0  0.79779360427E+03 -0.94455197384E+03  0.40985007063E+03  0.13025475602E+04  0.00000000000E+00 0. -1.
<mgrwt>
<rscale>  0 0.26126741E+04</rscale>
<asrwt>0</asrwt>
<pdfrwt beam="1">  1        2 0.38755180E+00 0.26126741E+04</pdfrwt>
<pdfrwt beam="2">  1       -2 0.10422071E+00 0.26126741E+04</pdfrwt>
<totfact> 0.22434288E+00</totfact>
</mgrwt>
</event>
<event>
 6    1  0.1001928E-005  0.2662574E+04  0.7818608E-02  0.8347252E-01
          1   -1    0    0  501    0  0.00000000000E+00  0.00000000000E+00  0.53382588873E+03  0.53382588873E+03  0.00000000000E+00 0. -1.
         -1   -1    0    0    0  501 -0.00000000000E+00 -0.00000000000E+00 -0.33200434020E+04  0.33200434020E+04  0.00000000000E+00 0.  1.
         23    2    1    2    0    0 -0.11661861310E+04  0.36761064405E+03 -0.21512174858E+04  0.24760620790E+04  0.89549259490E+02 0.  0.
         13    1    3    3    0    0 -0.26700546142E+03  0.47288337261E+02 -0.50029573892E+03  0.56905529577E+03  0.00000000000E+00 0. -1.
        -13    1    3    3    0    0 -0.89918066961E+03  0.32032230679E+03 -0.16509217469E+04  0.19070067832E+04  0.00000000000E+00 0.  1.
         22    1    1    2    0    0  0.11661861310E+04 -0.36761064405E+03 -0.63500002744E+03  0.13778072117E+04  0.00000000000E+00 0. -1.
<mgrwt>
<rscale>  0 0.26625740E+04</rscale>
<asrwt>0</asrwt>
<pdfrwt beam="1">  1        1 0.82127059E-01 0.26625740E+04</pdfrwt>
<pdfrwt beam="2">  1       -1 0.51077591E+00 0.26625740E+04</pdfrwt>
<totfact> 0.44872419E-02</totfact>
</mgrwt>
</event>
<event>
 6    1  0.1001928E-005  0.2250228E+04  0.7818608E-02  0.8497808E-01
          2   -1    0    0  501    0  0.00000000000E+00  0.00000000000E+00  0.32985771057E+04  0.32985771057E+04  0.00000000000E+00 0. -1.
         -2   -1    0    0    0  501 -0.00000000000E+00 -0.00000000000E+00 -0.38376590363E+03  0.38376590363E+03  0.00000000000E+00 0.  1.
         23    2    1    2    0    0  0.11106154250E+04 -0.21276842590E+01  0.17378722604E+04  0.20641166897E+04  0.83105750816E+02 0.  0.
         11    1    3    3    0    0  0.64311069237E+03  0.37313842761E+02  0.97936947650E+03  0.11722406993E+04  0.00000000000E+00 0. -1.
        -11    1    3    3    0    0  0.46750473261E+03 -0.39441527020E+02  0.75850278390E+03  0.89187599040E+03  0.00000000000E+00 0.  1.
         22    1    1    2    0    0 -0.11106154250E+04  0.21276842590E+01  0.11769389417E+04  0.16182263197E+04  0.00000000000E+00 0. -1.
<mgrwt>
<rscale>  0 0.22502279E+04</rscale>
<asrwt>0</asrwt>
<pdfrwt beam="1">  1        2 0.50747338E+00 0.22502279E+04</pdfrwt>
<pdfrwt beam="2">  1       -2 0.59040910E-01 0.22502279E+04</pdfrwt>
<totfact> 0.27286954E+00</totfact>
</mgrwt>
</event>
<event>
 6    1  0.1001928E-005  0.2852261E+04  0.7818608E-02  0.8287225E-01
          2   -1    0    0  501    0  0.00000000000E+00  0.00000000000E+00  0.43461526866E+04  0.43461526866E+04  0.00000000000E+00 0. -1.
         -2   -1    0    0    0  501 -0.00000000000E+00 -0.00000000000E+00 -0.46796508355E+03  0.46796508355E+03  0.00000000000E+00 0.  1.
         23    2    1    2    0    0 -0.86552285536E+03  0.99022923476E+03  0.10166442570E+04  0.16648140262E+04  0.91413598120E+02 0.  0.
         13    1    3    3    0    0 -0.33272877244E+03  0.31461919437E+03  0.35060426159E+03  0.57672959150E+03  0.00000000000E+00 0.  1.
        -13    1    3    3    0    0 -0.53279408292E+03  0.67561004040E+03  0.66603999543E+03  0.10880844347E+04  0.00000000000E+00 0. -1.
         22    1    1    2    0    0  0.86552285536E+03 -0.99022923476E+03  0.28615433461E+04  0.31493037440E+04  0.00000000000E+00 0. -1.
<mgrwt>
<rscale>  0 0.28522607E+04</rscale>
<asrwt>0</asrwt>
<pdfrwt beam="1">  1        2 0.66863885E+00 0.28522607E+04</pdfrwt>
<pdfrwt beam="2">  1       -2 0.71994631E-01 0.28522607E+04</pdfrwt>
<totfact> 0.26096589E-01</totfact>
</mgrwt>
</event>
<event>
 6    1  0.1001928E-005  0.3324067E+04  0.7818608E-02  0.8156798E-01
         -2   -1    0    0    0  501 -0.00000000000E+00  0.00000000000E+00  0.99078312463E+03  0.99078312463E+03  0.00000000000E+00 0.  1.
          2   -1    0    0  501    0  0.00000000000E+00 -0.00000000000E+00 -0.27880524684E+04  0.27880524684E+04  0.00000000000E+00 0. -1.
         23    2    1    2    0    0  0.35611547669E+03  0.23760821458E+03 -0.27234712406E+04  0.27584798462E+04  0.92949270359E+02 0.  0.
         13    1    3    3    0    0  0.21473746129E+03  0.17408775170E+03 -0.19635335521E+04  0.19828975598E+04  0.00000000000E+00 0. -1.
        -13    1    3    3    0    0  0.14137801541E+03  0.63520462880E+02 -0.75993768855E+03  0.77558228637E+03  0.00000000000E+00 0.  1.
         22    1    1    2    0    0 -0.35611547669E+03 -0.23760821458E+03  0.92620189687E+03  0.10203557469E+04  0.00000000000E+00 0.  1.
<mgrwt>
<rscale>  0 0.33240670E+04</rscale>
<asrwt>0</asrwt>
<pdfrwt beam="1">  1        2 0.42893114E+00 0.33240670E+04</pdfrwt>
<pdfrwt beam="2">  1       -2 0.15242818E+00 0.33240670E+04</pdfrwt>
<totfact> 0.56241180E-01</totfact>
</mgrwt>
</event>
<event>
 6    1  0.1001928E-005  0.1154311E+04  0.7818608E-02  0.9153816E-01
         -1   -1    0    0    0  501 -0.00000000000E+00  0.00000000000E+00  0.15667367130E+04  0.15667367130E+04  0.00000000000E+00 0.  1.
          1   -1    0    0  501    0  0.00000000000E+00 -0.00000000000E+00 -0.21261279977E+03  0.21261279977E+03  0.00000000000E+00 0. -1.
         23    2    1    2    0    0  0.22297569559E+03  0.33625232410E+03  0.13096594881E+04  0.13734420462E+04  0.91385411038E+02 0.  0.
         13    1    3    3    0    0  0.12982547259E+03  0.17537610892E+03  0.85130613026E+03  0.87882510224E+03  0.00000000000E+00 0. -1.
        -13    1    3    3    0    0  0.93150222999E+02  0.16087621518E+03  0.45835335782E+03  0.49461694399E+03  0.00000000000E+00 0.  1.
         22    1    1    2    0    0 -0.22297569559E+03 -0.33625232410E+03  0.44464425148E+02  0.40590746653E+03  0.00000000000E+00 0. -1.
<mgrwt>
<rscale>  0 0.11543107E+04</rscale>
<asrwt>0</asrwt>
<pdfrwt beam="1">  1        1 0.32709663E-01 0.11543107E+04</pdfrwt>
<pdfrwt beam="2">  1       -1 0.24103641E+00 0.11543107E+04</pdfrwt>
<totfact> 0.10911739E+01</totfact>
</mgrwt>
</event>
<event>
 6    1  0.1001928E-005  0.3449670E+04  0.7818608E-02  0.8125822E-01
         -1   -1    0    0    0  501 -0.00000000000E+00  0.00000000000E+00  0.91500100580E+03  0.91500100580E+03  0.00000000000E+00 0. -1.
          1   -1    0    0  501    0  0.00000000000E+00 -0.00000000000E+00 -0.32514230921E+04  0.32514230921E+04  0.00000000000E+00 0.  1.
         23    2    1    2    0    0  0.14226280543E+04  0.97271585052E+03 -0.11348017055E+04  0.20654866295E+04  0.91724582598E+02 0.  0.
         11    1    3    3    0    0  0.18992976624E+03  0.97859685694E+02 -0.15828972339E+03  0.26590500318E+03  0.00000000000E+00 0.  1.
        -11    1    3    3    0    0  0.12326982881E+04  0.87485616482E+03 -0.97651198206E+03  0.17995816263E+04  0.00000000000E+00 0. -1.
         22    1    1    2    0    0 -0.14226280543E+04 -0.97271585052E+03 -0.12016203809E+04  0.21009374685E+04  0.00000000000E+00 0. -1.
<mgrwt>
<rscale>  0 0.34496698E+04</rscale>
<asrwt>0</asrwt>
<pdfrwt beam="1">  1        1 0.50021893E+00 0.34496698E+04</pdfrwt>
<pdfrwt beam="2">  1       -1 0.14076939E+00 0.34496698E+04</pdfrwt>
<totfact> 0.13146068E-01</totfact>
</mgrwt>
</event>
<event>
 6    1  0.1001928E-005  0.8300651E+03  0.7818608E-02  0.9517491E-01
          2   -1    0    0  501    0  0.00000000000E+00  0.00000000000E+00  0.45355498705E+03  0.45355498705E+03  0.00000000000E+00 0. -1.
         -2   -1    0    0    0  501 -0.00000000000E+00 -0.00000000000E+00 -0.37978196793E+03  0.37978196793E+03  0.00000000000E+00 0.  1.
         23    2    1    2    0    0  0.32548134033E+03 -0.20937356736E+02  0.28671074791E+03  0.44382578421E+03  0.91661322010E+02 0.  0.
         13    1    3    3    0    0  0.31465094562E+03 -0.72559287096E+01  0.28760961453E+03  0.42635332349E+03  0.00000000000E+00 0. -1.
        -13    1    3    3    0    0  0.10830394712E+02 -0.13681428026E+02 -0.89886662059E+00  0.17472460721E+02  0.00000000000E+00 0.  1.
         22    1    1    2    0    0 -0.32548134033E+03  0.20937356736E+02 -0.21293772879E+03  0.38951117077E+03  0.00000000000E+00 0.  1.
<mgrwt>
<rscale>  0 0.83006507E+03</rscale>
<asrwt>0</asrwt>
<pdfrwt beam="1">  1        2 0.69777690E-01 0.83006507E+03</pdfrwt>
<pdfrwt beam="2">  1       -2 0.58427995E-01 0.83006507E+03</pdfrwt>
<totfact> 0.19004704E+02</totfact>
</mgrwt>
</event>
<event>
 6    1  0.1001928E-005  0.3712655E+04  0.7818608E-02  0.8065163E-01
          2   -1    0    0  501    0  0.00000000000E+00  0.00000000000E+00  0.35456385704E+04  0.35456385704E+04  0.00000000000E+00 0. -1.
         -2   -1    0    0    0  501 -0.00000000000E+00 -0.00000000000E+00 -0.97188449893E+03  0.97188449893E+03  0.00000000000E+00 0.  1.
         23    2    1    2    0    0  0.15077466548E+04 -0.91618214985E+03  0.58973319263E+03  0.18625223999E+04  0.92275375975E+02 0.  0.
         13    1    3    3    0    0  0.21191190435E+03 -0.92439556821E+02  0.78430713335E+02  0.24413746879E+03  0.00000000000E+00 0. -1.
        -13    1    3    3    0    0  0.12958347504E+04 -0.82374259303E+03  0.51130247930E+03  0.16183849312E+04  0.00000000000E+00 0.  1.
         22    1    1    2    0    0 -0.15077466548E+04  0.91618214985E+03  0.19840208788E+04  0.26550006694E+04  0.00000000000E+00 0. -1.
<mgrwt>
<rscale>  0 0.37126547E+04</rscale>
<asrwt>0</asrwt>
<pdfrwt beam="1">  1        2 0.54548285E+00 0.37126547E+04</pdfrwt>
<pdfrwt beam="2">  1       -2 0.14952069E+00 0.37126547E+04</pdfrwt>
<totfact> 0.18388223E-01</totfact>
</mgrwt>
</event>
<event>
 6    1  0.1001928E-005  0.2522000E+04  0.7818608E-02  0.8395190E-01
         -3   -1    0    0    0  501 -0.00000000000E+00  0.00000000000E+00  0.18058112414E+04  0.18058112414E+04  0.00000000000E+00 0.  1.
          3   -1    0    0  501    0  0.00000000000E+00 -0.00000000000E+00 -0.88055737902E+03  0.88055737902E+03  0.00000000000E+00 0. -1.
         23    2    1    2    0    0 -0.89505171160E+03  0.97009783955E+02  0.14011664325E+04  0.16680262227E+04  0.92280244878E+02 0.  0.
         13    1    3    3    0    0 -0.32038395520E+03  0.21520811511E+02  0.42360545081E+03  0.53155489089E+03  0.00000000000E+00 0. -1.
        -13    1    3    3    0    0 -0.57466775640E+03  0.75488972444E+02  0.97756098168E+03  0.11364713318E+04  0.00000000000E+00 0.  1.
         22    1    1    2    0    0  0.89505171160E+03 -0.97009783955E+02 -0.47591257008E+03  0.10183423977E+04  0.00000000000E+00 0. -1.
<mgrwt>
<rscale>  0 0.25219995E+04</rscale>
<asrwt>0</asrwt>
<pdfrwt beam="1">  1        3 0.13547037E+00 0.25219995E+04</pdfrwt>
<pdfrwt beam="2">  1       -3 0.27781711E+00 0.25219995E+04</pdfrwt>
<totfact> 0.49291174E-02</totfact>
</mgrwt>
</event>
<event>
 6    1  0.1001928E-005  0.2822764E+04  0.7818608E-02  0.8296236E-01
          2   -1    0    0  501    0  0.00000000000E+00  0.00000000000E+00  0.11750550598E+04  0.11750550598E+04  0.00000000000E+00 0. -1.
         -2   -1    0    0    0  501 -0.00000000000E+00 -0.00000000000E+00 -0.16952386301E+04  0.16952386301E+04  0.00000000000E+00 0.  1.
         23    2    1    2    0    0 -0.46867830738E+03  0.55521583468E+03 -0.14889662989E+04  0.16593172432E+04  0.91592005368E+02 0.  0.
         11    1    3    3    0    0 -0.29985428548E+03  0.41581123931E+03 -0.10085740205E+04  0.11313854932E+04  0.00000000000E+00 0. -1.
        -11    1    3    3    0    0 -0.16882402191E+03  0.13940459537E+03 -0.48039227839E+03  0.52793175006E+03  0.00000000000E+00 0.  1.
         22    1    1    2    0    0  0.46867830738E+03 -0.55521583468E+03  0.96878272865E+03  0.12109764466E+04  0.00000000000E+00 0. -1.
<mgrwt>
<rscale>  0 0.28227637E+04</rscale>
<asrwt>0</asrwt>
<pdfrwt beam="1">  1        2 0.18077770E+00 0.28227637E+04</pdfrwt>
<pdfrwt beam="2">  1       -2 0.26080594E+00 0.28227637E+04</pdfrwt>
<totfact> 0.93930845E-01</totfact>
</mgrwt>
</event>
<event>
 6    1  0.1001928E-005  0.2810675E+04  0.7818608E-02  0.8299962E-01
          1   -1    0    0  501    0  0.00000000000E+00  0.00000000000E+00  0.79444469906E+03  0.79444469906E+03  0.00000000000E+00 0. -1.
         -1   -1    0    0    0  501 -0.00000000000E+00 -0.00000000000E+00 -0.24859792968E+04  0.24859792968E+04  0.00000000000E+00 0.  1.
         23    2    1    2    0    0 -0.12392140086E+04 -0.18542564298E+02 -0.16163583335E+04  0.20387933516E+04  0.89826958723E+02 0.  0.
         11    1    3    3    0    0 -0.67413051674E+03 -0.47347262811E+02 -0.83901338578E+03  0.10773287235E+04  0.00000000000E+00 0. -1.
        -11    1    3    3    0    0 -0.56508349190E+03  0.28804698513E+02 -0.77734494774E+03  0.96146462818E+03  0.00000000000E+00 0.  1.
         22    1    1    2    0    0  0.12392140086E+04  0.18542564298E+02 -0.75176264200E+02  0.12416306442E+04  0.00000000000E+00 0. -1.
<mgrwt>
<rscale>  0 0.28106747E+04</rscale>
<asrwt>0</asrwt>
<pdfrwt beam="1">  1        1 0.12222227E+00 0.28106747E+04</pdfrwt>
<pdfrwt beam="2">  1       -1 0.38245834E+00 0.28106747E+04</pdfrwt>
<totfact> 0.18204128E-01</totfact>
</mgrwt>
</event>
<event>
 6    1  0.1001928E-005  0.2363955E+04  0.7818608E-02  0.8453123E-01
         -2   -1    0    0    0  501 -0.00000000000E+00  0.00000000000E+00  0.23922674882E+04  0.23922674882E+04  0.00000000000E+00 0.  1.
          2   -1    0    0  501    0  0.00000000000E+00 -0.00000000000E+00 -0.58399427629E+03  0.58399427629E+03  0.00000000000E+00 0. -1.
         23    2    1    2    0    0 -0.58118792455E+03 -0.45389980041E+03 -0.25460424796E+03  0.78553863116E+03  0.91886808109E+02 0.  0.
         11    1    3    3    0    0 -0.19481171935E+03 -0.16419815426E+03 -0.43391898122E+02  0.25844824758E+03  0.00000000000E+00 0. -1.
        -11    1    3    3    0    0 -0.38637620520E+03 -0.28970164615E+03 -0.21121234984E+03  0.52709038357E+03  0.00000000000E+00 0.  1.
         22    1    1    2    0    0  0.58118792455E+03  0.45389980041E+03  0.20628774599E+04  0.21907231333E+04  0.00000000000E+00 0.  1.
<mgrwt>
<rscale>  0 0.23639548E+04</rscale>
<asrwt>0</asrwt>
<pdfrwt beam="1">  1        2 0.89845275E-01 0.23639548E+04</pdfrwt>
<pdfrwt beam="2">  1       -2 0.36804115E+00 0.23639548E+04</pdfrwt>
<totfact> 0.55279868E-01</totfact>
</mgrwt>
</event>
<event>
 6    1  0.1001928E-005  0.1854066E+04  0.7818608E-02  0.8678064E-01
         -2   -1    0    0    0  501 -0.00000000000E+00  0.00000000000E+00  0.86256044411E+03  0.86256044411E+03  0.00000000000E+00 0.  1.
          2   -1    0    0  501    0  0.00000000000E+00 -0.00000000000E+00 -0.99632491718E+03  0.99632491718E+03  0.00000000000E+00 0. -1.
         23    2    1    2    0    0  0.20759911560E+03 -0.18825595047E+01 -0.97167712641E+03  0.99563652611E+03  0.63519424604E+02 0.  0.
         13    1    3    3    0    0  0.14832012644E+03 -0.22358233367E+02 -0.58593581993E+03  0.60483017086E+03  0.00000000000E+00 0.  1.
        -13    1    3    3    0    0  0.59278989158E+02  0.20475673862E+02 -0.38574130648E+03  0.39080635525E+03  0.00000000000E+00 0. -1.
         22    1    1    2    0    0 -0.20759911560E+03  0.18825595047E+01  0.83791265334E+03  0.86324883519E+03  0.00000000000E+00 0.  1.
<mgrwt>
<rscale>  0 0.18540663E+04</rscale>
<asrwt>0</asrwt>
<pdfrwt beam="1">  1        2 0.15328076E+00 0.18540663E+04</pdfrwt>
<pdfrwt beam="2">  1       -2 0.13270161E+00 0.18540663E+04</pdfrwt>
<totfact> 0.98126958E+00</totfact>
</mgrwt>
</event>
<event>
 6    1  0.1001928E-005  0.2745363E+04  0.7818608E-02  0.8320435E-01
          2   -1    0    0  501    0  0.00000000000E+00  0.00000000000E+00  0.43663404716E+04  0.43663404716E+04  0.00000000000E+00 0. -1.
         -2   -1    0    0    0  501 -0.00000000000E+00 -0.00000000000E+00 -0.43154083582E+03  0.43154083582E+03  0.00000000000E+00 0.  1.
         23    2    1    2    0    0 -0.72251694128E+03 -0.11648053797E+04  0.20222563314E+04  0.24448780788E+04  0.95424561910E+02 0.  0.
         11    1    3    3    0    0 -0.13612051536E+03 -0.19459863073E+03  0.41299489135E+03  0.47640550171E+03  0.00000000000E+00 0. -1.
        -11    1    3    3    0    0 -0.58639642592E+03 -0.97020674897E+03  0.16092614401E+04  0.19684725770E+04  0.00000000000E+00 0.  1.
         22    1    1    2    0    0  0.72251694128E+03  0.11648053797E+04  0.19125433044E+04  0.23530032287E+04  0.00000000000E+00 0.  1.
<mgrwt>
<rscale>  0 0.27453628E+04</rscale>
<asrwt>0</asrwt>
<pdfrwt beam="1">  1        2 0.67174466E+00 0.27453628E+04</pdfrwt>
<pdfrwt beam="2">  1       -2 0.66390901E-01 0.27453628E+04</pdfrwt>
<totfact> 0.30131364E-01</totfact>
</mgrwt>
</event>
<event>
 6    1  0.1001928E-005  0.2465051E+04  0.7818608E-02  0.8415543E-01
          1   -1    0    0  501    0  0.00000000000E+00  0.00000000000E+00  0.13705251059E+04  0.13705251059E+04  0.00000000000E+00 0.  1.
         -1   -1    0    0    0  501 -0.00000000000E+00 -0.00000000000E+00 -0.11084213555E+04  0.11084213555E+04  0.00000000000E+00 0. -1.
         23    2    1    2    0    0  0.34296919503E+03 -0.55318940622E+03 -0.91938022037E+03  0.11300392145E+04  0.89901327788E+02 0.  0.
         13    1    3    3    0    0  0.17100646207E+03 -0.19738911196E+03 -0.34012392586E+03  0.42882392253E+03  0.00000000000E+00 0. -1.
        -13    1    3    3    0    0  0.17196273296E+03 -0.35580029426E+03 -0.57925629451E+03  0.70121529194E+03  0.00000000000E+00 0.  1.
         22    1    1    2    0    0 -0.34296919503E+03  0.55318940622E+03  0.11814839708E+04  0.13489072470E+04  0.00000000000E+00 0.  1.
<mgrwt>
<rscale>  0 0.24650512E+04</rscale>
<asrwt>0</asrwt>
<pdfrwt beam="1">  1        1 0.21085002E+00 0.24650512E+04</pdfrwt>
<pdfrwt beam="2">  1       -1 0.17052636E+00 0.24650512E+04</pdfrwt>
<totfact> 0.17515622E+00</totfact>
</mgrwt>
</event>
<event>
 6    1  0.1001928E-005  0.2488262E+04  0.7818608E-02  0.8407179E-01
          2   -1    0    0  501    0  0.00000000000E+00  0.00000000000E+00  0.15567373344E+04  0.15567373344E+04  0.00000000000E+00 0. -1.
         -2   -1    0    0    0  501 -0.00000000000E+00 -0.00000000000E+00 -0.99429901125E+03  0.99429901125E+03  0.00000000000E+00 0.  1.
         23    2    1    2    0    0  0.11973110358E+04  0.82206933144E+02 -0.47890481877E+02  0.12046289235E+04  0.92334439334E+02 0.  0.
         11    1    3    3    0    0  0.25828838811E+03  0.33690807594E+02  0.24176830268E+02  0.26159602648E+03  0.00000000000E+00 0.  1.
        -11    1    3    3    0    0  0.93902264768E+03  0.48516125551E+02 -0.72067312145E+02  0.94303289697E+03  0.00000000000E+00 0. -1.
         22    1    1    2    0    0 -0.11973110358E+04 -0.82206933144E+02  0.61032880500E+03  0.13464074222E+04  0.00000000000E+00 0. -1.
<mgrwt>
<rscale>  0 0.24882624E+04</rscale>
<asrwt>0</asrwt>
<pdfrwt beam="1">  1        2 0.23949805E+00 0.24882624E+04</pdfrwt>
<pdfrwt beam="2">  1       -2 0.15296908E+00 0.24882624E+04</pdfrwt>
<totfact> 0.29945028E+00</totfact>
</mgrwt>
</event>
<event>
 6    1  0.1001928E-005  0.4479537E+04  0.7818608E-02  0.7914229E-01
         -2   -1    0    0    0  501 -0.00000000000E+00  0.00000000000E+00  0.12512742382E+04  0.12512742382E+04  0.00000000000E+00 0. -1.
          2   -1    0    0  501    0  0.00000000000E+00 -0.00000000000E+00 -0.40091631527E+04  0.40091631527E+04  0.00000000000E+00 0.  1.
         23    2    1    2    0    0  0.95274272914E+03 -0.14230970034E+04  0.31386381419E+03  0.17435369636E+04  0.92124159331E+02 0.  0.
         13    1    3    3    0    0  0.46550068912E+03 -0.77789889269E+03  0.16788241767E+03  0.92195557647E+03  0.00000000000E+00 0. -1.
        -13    1    3    3    0    0  0.48724204002E+03 -0.64519811067E+03  0.14598139652E+03  0.82158138715E+03  0.00000000000E+00 0.  1.
         22    1    1    2    0    0 -0.95274272914E+03  0.14230970034E+04 -0.30717527287E+04  0.35169004273E+04  0.00000000000E+00 0.  1.
<mgrwt>
<rscale>  0 0.44795368E+04</rscale>
<asrwt>0</asrwt>
<pdfrwt beam="1">  1        2 0.61679432E+00 0.44795368E+04</pdfrwt>
<pdfrwt beam="2">  1       -2 0.19250373E+00 0.44795368E+04</pdfrwt>
<totfact> 0.37903115E-02</totfact>
</mgrwt>
</event>
<event>
 6    1  0.1001928E-005  0.6834533E+04  0.7818608E-02  0.7594745E-01
          2   -1    0    0  501    0  0.00000000000E+00  0.00000000000E+00  0.45297920584E+04  0.45297920584E+04  0.00000000000E+00 0. -1.
         -2   -1    0    0    0  501 -0.00000000000E+00 -0.00000000000E+00 -0.25779795205E+04  0.25779795205E+04  0.00000000000E+00 0.  1.
         23    2    1    2    0    0 -0.16912585270E+04  0.12401107553E+04  0.37811619918E+04  0.43248325723E+04  0.93598501453E+02 0.  0.
         11    1    3    3    0    0 -0.74562344546E+03  0.58192333440E+03  0.16288236038E+04  0.18835220789E+04  0.00000000000E+00 0.  1.
        -11    1    3    3    0    0 -0.94563508155E+03  0.65818742092E+03  0.21523383880E+04  0.24413104933E+04  0.00000000000E+00 0. -1.
         22    1    1    2    0    0  0.16912585270E+04 -0.12401107553E+04 -0.18293494538E+04  0.27829390067E+04  0.00000000000E+00 0.  1.
<mgrwt>
<rscale>  0 0.68345332E+04</rscale>
<asrwt>0</asrwt>
<pdfrwt beam="1">  1        2 0.69689108E+00 0.68345332E+04</pdfrwt>
<pdfrwt beam="2">  1       -2 0.39661223E+00 0.68345332E+04</pdfrwt>
<totfact> 0.56043046E-04</totfact>
</mgrwt>
</event>
<event>
 6    1  0.1001928E-005  0.1999796E+04  0.7818608E-02  0.8606716E-01
         -1   -1    0    0    0  501 -0.00000000000E+00  0.00000000000E+00  0.82301074905E+03  0.82301074905E+03  0.00000000000E+00 0.  1.
          1   -1    0    0  501    0  0.00000000000E+00 -0.00000000000E+00 -0.12148025121E+04  0.12148025121E+04  0.00000000000E+00 0. -1.
         23    2    1    2    0    0  0.85254141923E+03 -0.27906254123E+03  0.24909916560E+03  0.93534151282E+03  0.90058746843E+02 0.  0.
         13    1    3    3    0    0  0.40912613173E+03 -0.17727050923E+03  0.14214387748E+03  0.46798921677E+03  0.00000000000E+00 0.  1.
        -13    1    3    3    0    0  0.44341528750E+03 -0.10179203200E+03  0.10695528812E+03  0.46735229605E+03  0.00000000000E+00 0. -1.
         22    1    1    2    0    0 -0.85254141923E+03  0.27906254123E+03 -0.64089092860E+03  0.11024717483E+04  0.00000000000E+00 0. -1.
<mgrwt>
<rscale>  0 0.19997955E+04</rscale>
<asrwt>0</asrwt>
<pdfrwt beam="1">  1        1 0.18689269E+00 0.19997955E+04</pdfrwt>
<pdfrwt beam="2">  1       -1 0.12661704E+00 0.19997955E+04</pdfrwt>
<totfact> 0.52404213E+00</totfact>
</mgrwt>
</event>
<event>
 6    1  0.1001928E-005  0.4471354E+04  0.7818608E-02  0.7915671E-01
          2   -1    0    0  501    0  0.00000000000E+00  0.00000000000E+00  0.30088217419E+04  0.30088217419E+04  0.00000000000E+00 0. -1.
         -2   -1    0    0    0  501 -0.00000000000E+00 -0.00000000000E+00 -0.16611989903E+04  0.16611989903E+04  0.00000000000E+00 0.  1.
         23    2    1    2    0    0 -0.11794926947E+04  0.16854252899E+04 -0.23794724476E+03  0.20727349108E+04  0.88032348110E+02 0.  0.
         13    1    3    3    0    0 -0.75275921684E+03  0.11456857781E+04 -0.14779777961E+03  0.13787989427E+04  0.00000000000E+00 0.  1.
        -13    1    3    3    0    0 -0.42673347791E+03  0.53973951177E+03 -0.90149465147E+02  0.69393596808E+03  0.00000000000E+00 0. -1.
         22    1    1    2    0    0  0.11794926947E+04 -0.16854252899E+04  0.15855699963E+04  0.25972858214E+04  0.00000000000E+00 0. -1.
<mgrwt>
<rscale>  0 0.44713540E+04</rscale>
<asrwt>0</asrwt>
<pdfrwt beam="1">  1        2 0.46289565E+00 0.44713540E+04</pdfrwt>
<pdfrwt beam="2">  1       -2 0.25556908E+00 0.44713540E+04</pdfrwt>
<totfact> 0.77498384E-02</totfact>
</mgrwt>
</event>
<event>
 6    1  0.1001928E-005  0.1639416E+04  0.7818608E-02  0.8796693E-01
          2   -1    0    0  501    0  0.00000000000E+00  0.00000000000E+00  0.12524738745E+04  0.12524738745E+04  0.00000000000E+00 0. -1.
         -2   -1    0    0    0  501 -0.00000000000E+00 -0.00000000000E+00 -0.53647509288E+03  0.53647509288E+03  0.00000000000E+00 0.  1.
         23    2    1    2    0    0  0.64108391529E+03 -0.50357040122E+03  0.29989625688E+03  0.87368231417E+03  0.93868449350E+02 0.  0.
         11    1    3    3    0    0  0.31437605008E+03 -0.23140985602E+03  0.19181985495E+03  0.43494560474E+03  0.00000000000E+00 0.  1.
        -11    1    3    3    0    0  0.32670786521E+03 -0.27216054520E+03  0.10807640192E+03  0.43873670943E+03  0.00000000000E+00 0. -1.
         22    1    1    2    0    0 -0.64108391529E+03  0.50357040122E+03  0.41610252479E+03  0.91526665326E+03  0.00000000000E+00 0.  1.
<mgrwt>
<rscale>  0 0.16394158E+04</rscale>
<asrwt>0</asrwt>
<pdfrwt beam="1">  1        2 0.19268829E+00 0.16394158E+04</pdfrwt>
<pdfrwt beam="2">  1       -2 0.82534630E-01 0.16394158E+04</pdfrwt>
<totfact> 0.21713812E+01</totfact>
</mgrwt>
</event>
<event>
 6    1  0.1001928E-005  0.1001681E+04  0.7818608E-02  0.9306703E-01
          1   -1    0    0  501    0  0.00000000000E+00  0.00000000000E+00  0.26195646868E+04  0.26195646868E+04  0.00000000000E+00 0. -1.
         -1   -1    0    0    0  501 -0.00000000000E+00 -0.00000000000E+00 -0.95756921136E+02  0.95756921136E+02  0.00000000000E+00 0.  1.
         23    2    1    2    0    0 -0.16296836661E+03  0.14361542898E+03  0.24833822224E+04  0.24943729611E+04  0.86747488823E+02 0.  0.
         13    1    3    3    0    0 -0.80998667853E+02  0.12444733874E+03  0.17042484798E+04  0.17107047686E+04  0.00000000000E+00 0. -1.
        -13    1    3    3    0    0 -0.81969698759E+02  0.19168090242E+02  0.77913374259E+03  0.78366819257E+03  0.00000000000E+00 0.  1.
         22    1    1    2    0    0  0.16296836661E+03 -0.14361542898E+03  0.40425543234E+02  0.22094864676E+03  0.00000000000E+00 0.  1.
<mgrwt>
<rscale>  0 0.10016815E+04</rscale>
<asrwt>0</asrwt>
<pdfrwt beam="1">  1        1 0.40300990E+00 0.10016815E+04</pdfrwt>
<pdfrwt beam="2">  1       -1 0.14731836E-01 0.10016815E+04</pdfrwt>
<totfact> 0.38546431E+01</totfact>
</mgrwt>
</event>
<event>
 6    1  0.1001928E-005  0.5749543E+04  0.7818608E-02  0.7722255E-01
          1   -1    0    0  501    0  0.00000000000E+00  0.00000000000E+00  0.29517248428E+04  0.29517248428E+04  0.00000000000E+00 0. -1.
         -1   -1    0    0    0  501 -0.00000000000E+00 -0.00000000000E+00 -0.27998242245E+04  0.27998242245E+04  0.00000000000E+00 0.  1.
         23    2    1    2    0    0  0.40234377722E+03  0.18334138860E+04 -0.21012035286E+04  0.28190134256E+04  0.92159822432E+02 0.  0.
         13    1    3    3    0    0  0.20284076145E+03  0.11194148991E+04 -0.12470185738E+04  0.16879838312E+04  0.00000000000E+00 0. -1.
        -13    1    3    3    0    0  0.19950301576E+03  0.71399898696E+03 -0.85418495475E+03  0.11310295945E+04  0.00000000000E+00 0.  1.
         22    1    1    2    0    0 -0.40234377722E+03 -0.18334138860E+04  0.22531041469E+04  0.29325356416E+04  0.00000000000E+00 0. -1.
<mgrwt>
<rscale>  0 0.57495428E+04</rscale>
<asrwt>0</asrwt>
<pdfrwt beam="1">  1        1 0.45411151E+00 0.57495428E+04</pdfrwt>
<pdfrwt beam="2">  1       -1 0.43074219E+00 0.57495428E+04</pdfrwt>
<totfact> 0.19439945E-03</totfact>
</mgrwt>
</event>
<event>
 6    1  0.1001928E-005  0.9606922E+03  0.7818608E-02  0.9352740E-01
         -1   -1    0    0    0  501 -0.00000000000E+00  0.00000000000E+00  0.14951953993E+03  0.14951953993E+03  0.00000000000E+00 0.  1.
          1   -1    0    0  501    0  0.00000000000E+00 -0.00000000000E+00 -0.15431588329E+04  0.15431588329E+04  0.00000000000E+00 0. -1.
         23    2    1    2    0    0 -0.93189669269E+02  0.46673124560E+03 -0.73976239348E+03  0.88392787375E+03  0.86935131535E+02 0.  0.
         11    1    3    3    0    0 -0.64756861748E+02  0.13932419333E+03 -0.26937559070E+03  0.31010948204E+03  0.00000000000E+00 0.  1.
        -11    1    3    3    0    0 -0.28432807520E+02  0.32740705227E+03 -0.47038680279E+03  0.57381839170E+03  0.00000000000E+00 0. -1.
         22    1    1    2    0    0  0.93189669269E+02 -0.46673124560E+03 -0.65387689949E+03  0.80875049908E+03  0.00000000000E+00 0. -1.
<mgrwt>
<rscale>  0 0.96069225E+03</rscale>
<asrwt>0</asrwt>
<pdfrwt beam="1">  1        1 0.23740906E+00 0.96069225E+03</pdfrwt>
<pdfrwt beam="2">  1       -1 0.23003005E-01 0.96069225E+03</pdfrwt>
<totfact> 0.99154770E+01</totfact>
</mgrwt>
</event>
<event>
 6    1  0.1001928E-005  0.9037952E+03  0.7818608E-02  0.9420850E-01
         -1   -1    0    0    0  501 -0.00000000000E+00  0.00000000000E+00  0.20539568929E+03  0.20539568929E+03  0.00000000000E+00 0.  1.
          1   -1    0    0  501    0  0.00000000000E+00 -0.00000000000E+00 -0.99423427388E+03  0.99423427388E+03  0.00000000000E+00 0. -1.
         23    2    1    2    0    0  0.42411888734E+03  0.13380980954E+03 -0.46467606870E+03  0.64929985093E+03  0.88794999095E+02 0.  0.
         11    1    3    3    0    0  0.32541632815E+03  0.13136032852E+03 -0.39549715731E+03  0.52874315501E+03  0.00000000000E+00 0.  1.
        -11    1    3    3    0    0  0.98702559194E+02  0.24494810177E+01 -0.69178911394E+02  0.12055669592E+03  0.00000000000E+00 0. -1.
         22    1    1    2    0    0 -0.42411888734E+03 -0.13380980954E+03 -0.32416251590E+03  0.55033011224E+03  0.00000000000E+00 0.  1.
<mgrwt>
<rscale>  0 0.90379518E+03</rscale>
<asrwt>0</asrwt>
<pdfrwt beam="1">  1        1 0.15295912E+00 0.90379518E+03</pdfrwt>
<pdfrwt beam="2">  1       -1 0.31599337E-01 0.90379518E+03</pdfrwt>
<totfact> 0.14321659E+02</totfact>
</mgrwt>
</event>
<event>
 6    1  0.1001928E-005  0.3680931E+04  0.7818608E-02  0.8072201E-01
         -2   -1    0    0    0  501 -0.00000000000E+00  0.00000000000E+00  0.10967656239E+04  0.10967656239E+04  0.00000000000E+00 0.  1.
          2   -1    0    0  501    0  0.00000000000E+00 -0.00000000000E+00 -0.30884566880E+04  0.30884566880E+04  0.00000000000E+00 0. -1.
         23    2    1    2    0    0  0.12074972161E+04  0.86285060746E+03  0.23879014263E+03  0.15061166568E+04  0.93840044109E+02 0.  0.
         11    1    3    3    0    0  0.44220035995E+03  0.37219640590E+03  0.92199934180E+02  0.58529663485E+03  0.00000000000E+00 0. -1.
        -11    1    3    3    0    0  0.76529685615E+03  0.49065420156E+03  0.14659020845E+03  0.92082002191E+03  0.00000000000E+00 0.  1.
         22    1    1    2    0    0 -0.12074972161E+04 -0.86285060746E+03 -0.22304812068E+04  0.26791056552E+04  0.00000000000E+00 0. -1.
<mgrwt>
<rscale>  0 0.36809309E+04</rscale>
<asrwt>0</asrwt>
<pdfrwt beam="1">  1        2 0.47514718E+00 0.36809309E+04</pdfrwt>
<pdfrwt beam="2">  1       -2 0.16873317E+00 0.36809309E+04</pdfrwt>
<totfact> 0.26946589E-01</totfact>
</mgrwt>
</event>
<event>
 6    1  0.1001928E-005  0.2265239E+04  0.7818608E-02  0.8491754E-01
          2   -1    0    0  501    0  0.00000000000E+00  0.00000000000E+00  0.87972457584E+03  0.87972457584E+03  0.00000000000E+00 0. -1.
         -2   -1    0    0    0  501 -0.00000000000E+00 -0.00000000000E+00 -0.14582139304E+04  0.14582139304E+04  0.00000000000E+00 0.  1.
         23    2    1    2    0    0  0.31431195819E+03 -0.20246302107E+03 -0.13910436822E+04  0.14434957650E+04  0.94309149708E+02 0.  0.
         11    1    3    3    0    0  0.22929779622E+03 -0.13574394553E+03 -0.81662185427E+03  0.85899659544E+03  0.00000000000E+00 0. -1.
        -11    1    3    3    0    0  0.85014161965E+02 -0.66719075548E+02 -0.57442182792E+03  0.58449916952E+03  0.00000000000E+00 0.  1.
         22    1    1    2    0    0 -0.31431195819E+03  0.20246302107E+03  0.81255432767E+03  0.89444274125E+03  0.00000000000E+00 0. -1.
<mgrwt>
<rscale>  0 0.22652387E+04</rscale>
<asrwt>0</asrwt>
<pdfrwt beam="1">  1        2 0.13534224E+00 0.22652387E+04</pdfrwt>
<pdfrwt beam="2">  1       -2 0.22434060E+00 0.22652387E+04</pdfrwt>
<totfact> 0.25527988E+00</totfact>
</mgrwt>
</event>
<event>
 6    1  0.1001928E-005  0.2511132E+04  0.7818608E-02  0.8399030E-01
          2   -1    0    0  501    0  0.00000000000E+00  0.00000000000E+00  0.17055506074E+04  0.17055506074E+04  0.00000000000E+00 0. -1.
         -2   -1    0    0    0  501 -0.00000000000E+00 -0.00000000000E+00 -0.92430343247E+03  0.92430343247E+03  0.00000000000E+00 0.  1.
         23    2    1    2    0    0  0.78952671344E+03 -0.13763472605E+03 -0.61883190959E+03  0.10166221310E+04  0.90949853149E+02 0.  0.
         13    1    3    3    0    0  0.45814453807E+03 -0.80134730036E+02 -0.41507882591E+03  0.62338465208E+03  0.00000000000E+00 0. -1.
        -13    1    3    3    0    0  0.33138217536E+03 -0.57499996019E+02 -0.20375308367E+03  0.39323747888E+03  0.00000000000E+00 0.  1.
         22    1    1    2    0    0 -0.78952671344E+03  0.13763472605E+03  0.14000790845E+04  0.16132319089E+04  0.00000000000E+00 0. -1.
<mgrwt>
<rscale>  0 0.25111322E+04</rscale>
<asrwt>0</asrwt>
<pdfrwt beam="1">  1        2 0.26239240E+00 0.25111322E+04</pdfrwt>
<pdfrwt beam="2">  1       -2 0.14220053E+00 0.25111322E+04</pdfrwt>
<totfact> 0.29925924E+00</totfact>
</mgrwt>
</event>
<event>
 6    1  0.1001928E-005  0.2538918E+04  0.7818608E-02  0.8389251E-01
          1   -1    0    0  501    0  0.00000000000E+00  0.00000000000E+00  0.82405947675E+03  0.82405947675E+03  0.00000000000E+00 0. -1.
         -1   -1    0    0    0  501 -0.00000000000E+00 -0.00000000000E+00 -0.19555941445E+04  0.19555941445E+04  0.00000000000E+00 0.  1.
         23    2    1    2    0    0 -0.79806592762E+02 -0.11932433091E+04 -0.10279500238E+04  0.15792668230E+04  0.84874966549E+02 0.  0.
         11    1    3    3    0    0 -0.47433814863E+02 -0.10779925931E+04 -0.91719090563E+03  0.14161769504E+04  0.00000000000E+00 0.  1.
        -11    1    3    3    0    0 -0.32372777899E+02 -0.11525071603E+03 -0.11075911818E+03  0.16308987263E+03  0.00000000000E+00 0. -1.
         22    1    1    2    0    0  0.79806592762E+02  0.11932433091E+04 -0.10358464398E+03  0.12003867983E+04  0.00000000000E+00 0. -1.
<mgrwt>
<rscale>  0 0.25389178E+04</rscale>
<asrwt>0</asrwt>
<pdfrwt beam="1">  1        1 0.12677838E+00 0.25389178E+04</pdfrwt>
<pdfrwt beam="2">  1       -1 0.30086064E+00 0.25389178E+04</pdfrwt>
<totfact> 0.60838338E-01</totfact>
</mgrwt>
</event>
<event>
 6    1  0.1001928E-005  0.2848272E+04  0.7818608E-02  0.8288437E-01
         -2   -1    0    0    0  501 -0.00000000000E+00  0.00000000000E+00  0.58531673774E+03  0.58531673774E+03  0.00000000000E+00 0.  1.
          2   -1    0    0  501    0  0.00000000000E+00 -0.00000000000E+00 -0.34650687759E+04  0.34650687759E+04  0.00000000000E+00 0. -1.
         23    2    1    2    0    0 -0.43633599540E+03  0.13090328620E+04 -0.94867845265E+03  0.16769910400E+04  0.91389317422E+02 0.  0.
         11    1    3    3    0    0 -0.32055071597E+03  0.82489969304E+03 -0.61597990373E+03  0.10782594803E+04  0.00000000000E+00 0. -1.
        -11    1    3    3    0    0 -0.11578527944E+03  0.48413316892E+03 -0.33269854892E+03  0.59873155974E+03  0.00000000000E+00 0.  1.
         22    1    1    2    0    0  0.43633599540E+03 -0.13090328620E+04 -0.19310735855E+04  0.23733944735E+04  0.00000000000E+00 0. -1.
<mgrwt>
<rscale>  0 0.28482716E+04</rscale>
<asrwt>0</asrwt>
<pdfrwt beam="1">  1        2 0.53308751E+00 0.28482716E+04</pdfrwt>
<pdfrwt beam="2">  1       -2 0.90048729E-01 0.28482716E+04</pdfrwt>
<totfact> 0.78636680E-01</totfact>
</mgrwt>
</event>
<event>
 6    1  0.1001928E-005  0.1333961E+04  0.7818608E-02  0.9003059E-01
         -1   -1    0    0    0  501 -0.00000000000E+00  0.00000000000E+00  0.86980786230E+03  0.86980786230E+03  0.00000000000E+00 0.  1.
          1   -1    0    0  501    0  0.00000000000E+00 -0.00000000000E+00 -0.51144934931E+03  0.51144934931E+03  0.00000000000E+00 0. -1.
         23    2    1    2    0    0 -0.31471130922E+02  0.20143576172E+03  0.83410750462E+03  0.86366287120E+03  0.92797778221E+02 0.  0.
         13    1    3    3    0    0  0.20107553349E+02  0.27512279721E+02  0.64332310707E+02  0.72800312074E+02  0.00000000000E+00 0.  1.
        -13    1    3    3    0    0 -0.51578684271E+02  0.17392348199E+03  0.76977519392E+03  0.79086255913E+03  0.00000000000E+00 0. -1.
         22    1    1    2    0    0  0.31471130922E+02 -0.20143576172E+03 -0.47574899164E+03  0.51759434041E+03  0.00000000000E+00 0. -1.
<mgrwt>
<rscale>  0 0.13339605E+04</rscale>
<asrwt>0</asrwt>
<pdfrwt beam="1">  1        1 0.78684516E-01 0.13339605E+04</pdfrwt>
<pdfrwt beam="2">  1       -1 0.13381659E+00 0.13339605E+04</pdfrwt>
<totfact> 0.19837534E+01</totfact>
</mgrwt>
</event>
<event>
 6    1  0.1001928E-005  0.1841509E+04  0.7818608E-02  0.8684532E-01
          2   -1    0    0  501    0  0.00000000000E+00  0.00000000000E+00  0.86115835393E+03  0.86115835393E+03  0.00000000000E+00 0. -1.
         -2   -1    0    0    0  501 -0.00000000000E+00 -0.00000000000E+00 -0.98447528427E+03  0.98447528427E+03  0.00000000000E+00 0.  1.
         23    2    1    2    0    0 -0.40786173716E+03 -0.70903549448E+03  0.35682926455E+03  0.89714911143E+03  0.92015623817E+02 0.  0.
         13    1    3    3    0    0 -0.19301145654E+03 -0.39697641756E+03  0.22913867204E+03  0.49734116005E+03  0.00000000000E+00 0.  1.
        -13    1    3    3    0    0 -0.21485028062E+03 -0.31205907692E+03  0.12769059251E+03  0.39980795138E+03  0.00000000000E+00 0. -1.
         22    1    1    2    0    0  0.40786173716E+03  0.70903549448E+03 -0.48014619488E+03  0.94848452678E+03  0.00000000000E+00 0.  1.
<mgrwt>
<rscale>  0 0.18415093E+04</rscale>
<asrwt>0</asrwt>
<pdfrwt beam="1">  1        2 0.13248590E+00 0.18415093E+04</pdfrwt>
<pdfrwt beam="2">  1       -2 0.15145774E+00 0.18415093E+04</pdfrwt>
<totfact> 0.85635907E+00</totfact>
</mgrwt>
</event>
<event>
 6    1  0.1001928E-005  0.1139840E+04  0.7818608E-02  0.9167208E-01
          4   -1    0    0  501    0  0.00000000000E+00  0.00000000000E+00  0.71266894900E+03  0.71266894900E+03  0.00000000000E+00 0. -1.
         -4   -1    0    0    0  501 -0.00000000000E+00 -0.00000000000E+00 -0.45576428531E+03  0.45576428531E+03  0.00000000000E+00 0.  1.
         23    2    1    2    0    0  0.30565133832E+02  0.24939181756E+03  0.64942992272E+03  0.70237896168E+03  0.91904707232E+02 0.  0.
         11    1    3    3    0    0  0.35658215945E+02  0.69338274476E+02  0.29057868623E+03  0.30085757022E+03  0.00000000000E+00 0. -1.
        -11    1    3    3    0    0 -0.50930821126E+01  0.18005354308E+03  0.35885123649E+03  0.40152139145E+03  0.00000000000E+00 0.  1.
         22    1    1    2    0    0 -0.30565133832E+02 -0.24939181756E+03 -0.39252525903E+03  0.46605427264E+03  0.00000000000E+00 0.  1.
<mgrwt>
<rscale>  0 0.11398404E+04</rscale>
<asrwt>0</asrwt>
<pdfrwt beam="1">  1        4 0.10964138E+00 0.11398404E+04</pdfrwt>
<pdfrwt beam="2">  1       -4 0.70117582E-01 0.11398404E+04</pdfrwt>
<totfact> 0.24333376E+00</totfact>
</mgrwt>
</event>
<event>
 6    1  0.1001928E-005  0.2429863E+04  0.7818608E-02  0.8428407E-01
         -2   -1    0    0    0  501 -0.00000000000E+00  0.00000000000E+00  0.14236863194E+04  0.14236863194E+04  0.00000000000E+00 0.  1.
          2   -1    0    0  501    0  0.00000000000E+00 -0.00000000000E+00 -0.10367864811E+04  0.10367864811E+04  0.00000000000E+00 0. -1.
         23    2    1    2    0    0  0.74110172117E+03  0.78359394371E+03  0.75637193061E+03  0.13204022515E+04  0.90068743637E+02 0.  0.
         13    1    3    3    0    0  0.45599579337E+03  0.42116955871E+03  0.45237798494E+03  0.76808970961E+03  0.00000000000E+00 0.  1.
        -13    1    3    3    0    0  0.28510592781E+03  0.36242438500E+03  0.30399394567E+03  0.55231254188E+03  0.00000000000E+00 0. -1.
         22    1    1    2    0    0 -0.74110172117E+03 -0.78359394371E+03 -0.36947209223E+03  0.11400705490E+04  0.00000000000E+00 0. -1.
<mgrwt>
<rscale>  0 0.24298631E+04</rscale>
<asrwt>0</asrwt>
<pdfrwt beam="1">  1        2 0.15950561E+00 0.24298631E+04</pdfrwt>
<pdfrwt beam="2">  1       -2 0.21902867E+00 0.24298631E+04</pdfrwt>
<totfact> 0.21454920E+00</totfact>
</mgrwt>
</event>
<event>
 6    1  0.1001928E-005  0.2555029E+04  0.7818608E-02  0.8383639E-01
          2   -1    0    0  501    0  0.00000000000E+00  0.00000000000E+00  0.29344800983E+04  0.29344800983E+04  0.00000000000E+00 0. -1.
         -2   -1    0    0    0  501 -0.00000000000E+00 -0.00000000000E+00 -0.55616102446E+03  0.55616102446E+03  0.00000000000E+00 0.  1.
         23    2    1    2    0    0  0.44243276125E+03  0.10402503103E+04  0.19989075157E+04  0.22982399374E+04  0.91695676429E+02 0.  0.
         13    1    3    3    0    0  0.80635218506E+02  0.20685252418E+03  0.32369919857E+03  0.39251901403E+03  0.00000000000E+00 0.  1.
        -13    1    3    3    0    0  0.36179754275E+03  0.83339778615E+03  0.16752083172E+04  0.19057209234E+04  0.00000000000E+00 0. -1.
         22    1    1    2    0    0 -0.44243276125E+03 -0.10402503103E+04  0.37941155810E+03  0.11924011853E+04  0.00000000000E+00 0.  1.
<mgrwt>
<rscale>  0 0.25550291E+04</rscale>
<asrwt>0</asrwt>
<pdfrwt beam="1">  1        2 0.45145847E+00 0.25550291E+04</pdfrwt>
<pdfrwt beam="2">  1       -2 0.85563236E-01 0.25550291E+04</pdfrwt>
<totfact> 0.20156797E+00</totfact>
</mgrwt>
</event>
<event>
 6    1  0.1001928E-005  0.1990901E+04  0.7818608E-02  0.8610886E-01
         -1   -1    0    0    0  501 -0.00000000000E+00  0.00000000000E+00  0.81237965524E+03  0.81237965524E+03  0.00000000000E+00 0.  1.
          1   -1    0    0  501    0  0.00000000000E+00 -0.00000000000E+00 -0.12197770701E+04  0.12197770701E+04  0.00000000000E+00 0. -1.
         23    2    1    2    0    0  0.32155429852E+03  0.90063353433E+03 -0.47586325744E+03  0.10733942409E+04  0.10578953898E+03 0.  0.
         11    1    3    3    0    0  0.11924505331E+03  0.39584139549E+03 -0.25951077380E+03  0.48811436656E+03  0.00000000000E+00 0. -1.
        -11    1    3    3    0    0  0.20230924521E+03  0.50479213884E+03 -0.21635248364E+03  0.58527987434E+03  0.00000000000E+00 0.  1.
         22    1    1    2    0    0 -0.32155429852E+03 -0.90063353433E+03  0.68465842550E+02  0.95876248448E+03  0.00000000000E+00 0. -1.
<mgrwt>
<rscale>  0 0.19909014E+04</rscale>
<asrwt>0</asrwt>
<pdfrwt beam="1">  1        1 0.18765801E+00 0.19909014E+04</pdfrwt>
<pdfrwt beam="2">  1       -1 0.12498149E+00 0.19909014E+04</pdfrwt>
<totfact> 0.53725125E+00</totfact>
</mgrwt>
</event>
<event>
 6    1  0.1001928E-005  0.2127892E+04  0.7818608E-02  0.8549055E-01
          1   -1    0    0  501    0  0.00000000000E+00  0.00000000000E+00  0.17202782563E+04  0.17202782563E+04  0.00000000000E+00 0. -1.
         -1   -1    0    0    0  501 -0.00000000000E+00 -0.00000000000E+00 -0.65802215102E+03  0.65802215102E+03  0.00000000000E+00 0.  1.
         23    2    1    2    0    0 -0.40468350222E+03  0.12653928040E+03 -0.55621872006E+03  0.70520695903E+03  0.90314251711E+02 0.  0.
         11    1    3    3    0    0 -0.24743209344E+03  0.43076175152E+02 -0.27552092922E+03  0.37281359976E+03  0.00000000000E+00 0. -1.
        -11    1    3    3    0    0 -0.15725140878E+03  0.83463105247E+02 -0.28069779084E+03  0.33239335926E+03  0.00000000000E+00 0.  1.
         22    1    1    2    0    0  0.40468350222E+03 -0.12653928040E+03  0.16184748254E+04  0.16730934483E+04  0.00000000000E+00 0. -1.
<mgrwt>
<rscale>  0 0.21278921E+04</rscale>
<asrwt>0</asrwt>
<pdfrwt beam="1">  1        1 0.26465819E+00 0.21278921E+04</pdfrwt>
<pdfrwt beam="2">  1       -1 0.10123418E+00 0.21278921E+04</pdfrwt>
<totfact> 0.39242054E+00</totfact>
</mgrwt>
</event>
<event>
 6    1  0.1001928E-005  0.4899815E+04  0.7818608E-02  0.7844150E-01
         -1   -1    0    0    0  501 -0.00000000000E+00  0.00000000000E+00  0.19229479350E+04  0.19229479350E+04  0.00000000000E+00 0.  1.
          1   -1    0    0  501    0  0.00000000000E+00 -0.00000000000E+00 -0.31212740944E+04  0.31212740944E+04  0.00000000000E+00 0. -1.
         23    2    1    2    0    0  0.93047519620E+03 -0.22025367687E+04 -0.11450406308E+04  0.26526134377E+04  0.91036781330E+02 0.  0.
         11    1    3    3    0    0  0.89823990872E+03 -0.21223635578E+04 -0.10840512806E+04  0.25468469102E+04  0.00000000000E+00 0. -1.
        -11    1    3    3    0    0  0.32235287482E+02 -0.80173210912E+02 -0.60989350122E+02  0.10576652748E+03  0.00000000000E+00 0.  1.
         22    1    1    2    0    0 -0.93047519620E+03  0.22025367687E+04 -0.53285528604E+02  0.23916085917E+04  0.00000000000E+00 0.  1.
<mgrwt>
<rscale>  0 0.48998153E+04</rscale>
<asrwt>0</asrwt>
<pdfrwt beam="1">  1        1 0.48019601E+00 0.48998153E+04</pdfrwt>
<pdfrwt beam="2">  1       -1 0.29583815E+00 0.48998153E+04</pdfrwt>
<totfact> 0.12441866E-02</totfact>
</mgrwt>
</event>
<event>
 6    1  0.1001928E-005  0.1995345E+04  0.7818608E-02  0.8608800E-01
          1   -1    0    0  501    0  0.00000000000E+00  0.00000000000E+00  0.15186626770E+04  0.15186626770E+04  0.00000000000E+00 0. -1.
         -1   -1    0    0    0  501 -0.00000000000E+00 -0.00000000000E+00 -0.65541215060E+03  0.65541215060E+03  0.00000000000E+00 0.  1.
         23    2    1    2    0    0  0.17324205476E+03 -0.82336825573E+03 -0.14681867910E+03  0.85946922364E+03  0.95830724620E+02 0.  0.
         11    1    3    3    0    0 -0.24291420271E+01 -0.97750899689E+02  0.37708243355E+01  0.97853759443E+02  0.00000000000E+00 0. -1.
        -11    1    3    3    0    0  0.17567119679E+03 -0.72561735604E+03 -0.15058950343E+03  0.76161546420E+03  0.00000000000E+00 0.  1.
         22    1    1    2    0    0 -0.17324205476E+03  0.82336825573E+03  0.10100692055E+04  0.13146056040E+04  0.00000000000E+00 0. -1.
<mgrwt>
<rscale>  0 0.19953446E+04</rscale>
<asrwt>0</asrwt>
<pdfrwt beam="1">  1        1 0.23364041E+00 0.19953446E+04</pdfrwt>
<pdfrwt beam="2">  1       -1 0.10083264E+00 0.19953446E+04</pdfrwt>
<totfact> 0.55101570E+00</totfact>
</mgrwt>
</event>
<event>
 6    1  0.1001928E-005  0.1578592E+04  0.7818608E-02  0.8833809E-01
          2   -1    0    0  501    0  0.00000000000E+00  0.00000000000E+00  0.38589371063E+04  0.38589371063E+04  0.00000000000E+00 0. -1.
         -2   -1    0    0    0  501 -0.00000000000E+00 -0.00000000000E+00 -0.16144039846E+03  0.16144039846E+03  0.00000000000E+00 0.  1.
         23    2    1    2    0    0  0.39965240443E+03  0.55068143207E+03  0.84889249998E+03  0.10916374997E+04  0.89899223003E+02 0.  0.
         11    1    3    3    0    0  0.29215472596E+03  0.44820317120E+03  0.70320124963E+03  0.88359066544E+03  0.00000000000E+00 0. -1.
        -11    1    3    3    0    0  0.10749767848E+03  0.10247826087E+03  0.14569125035E+03  0.20804683429E+03  0.00000000000E+00 0.  1.
         22    1    1    2    0    0 -0.39965240443E+03 -0.55068143207E+03  0.28486042079E+04  0.29287400050E+04  0.00000000000E+00 0. -1.
<mgrwt>
<rscale>  0 0.15785922E+04</rscale>
<asrwt>0</asrwt>
<pdfrwt beam="1">  1        2 0.59368256E+00 0.15785922E+04</pdfrwt>
<pdfrwt beam="2">  1       -2 0.24836987E-01 0.15785922E+04</pdfrwt>
<totfact> 0.62840454E+00</totfact>
</mgrwt>
</event>
<event>
 6    1  0.1001928E-005  0.1399089E+04  0.7818608E-02  0.8954478E-01
          1   -1    0    0  501    0  0.00000000000E+00  0.00000000000E+00  0.74736595518E+03  0.74736595518E+03  0.00000000000E+00 0. -1.
         -1   -1    0    0    0  501 -0.00000000000E+00 -0.00000000000E+00 -0.65478344316E+03  0.65478344316E+03  0.00000000000E+00 0.  1.
         23    2    1    2    0    0  0.25899961587E+02 -0.42469941107E+03 -0.50879491567E+03  0.66547090110E+03  0.54211218710E+02 0.  0.
         13    1    3    3    0    0  0.25209265006E+02 -0.17161496714E+03 -0.24187025474E+03  0.29763807572E+03  0.00000000000E+00 0. -1.
        -13    1    3    3    0    0  0.69069658106E+00 -0.25308444392E+03 -0.26692466092E+03  0.36783282538E+03  0.00000000000E+00 0.  1.
         22    1    1    2    0    0 -0.25899961587E+02  0.42469941107E+03  0.60137742768E+03  0.73667849724E+03  0.00000000000E+00 0. -1.
<mgrwt>
<rscale>  0 0.13990895E+04</rscale>
<asrwt>0</asrwt>
<pdfrwt beam="1">  1        1 0.11497938E+00 0.13990895E+04</pdfrwt>
<pdfrwt beam="2">  1       -1 0.10073591E+00 0.13990895E+04</pdfrwt>
<totfact> 0.22516688E+01</totfact>
</mgrwt>
</event>
<event>
 6    1  0.1001928E-005  0.2844544E+04  0.7818608E-02  0.8289571E-01
         -1   -1    0    0    0  501 -0.00000000000E+00  0.00000000000E+00  0.12417773497E+04  0.12417773497E+04  0.00000000000E+00 0.  1.
          1   -1    0    0  501    0  0.00000000000E+00 -0.00000000000E+00 -0.16290015987E+04  0.16290015987E+04  0.00000000000E+00 0. -1.
         23    2    1    2    0    0 -0.95412103132E+03  0.65464565932E+03  0.63820883959E+03  0.13246803419E+04  0.92518126251E+02 0.  0.
         13    1    3    3    0    0 -0.66151363093E+03  0.50385868277E+03  0.46425851457E+03  0.95237063397E+03  0.00000000000E+00 0.  1.
        -13    1    3    3    0    0 -0.29260740039E+03  0.15078697655E+03  0.17395032501E+03  0.37230970795E+03  0.00000000000E+00 0. -1.
         22    1    1    2    0    0  0.95412103132E+03 -0.65464565932E+03 -0.10254330886E+04  0.15460986065E+04  0.00000000000E+00 0. -1.
<mgrwt>
<rscale>  0 0.28445438E+04</rscale>
<asrwt>0</asrwt>
<pdfrwt beam="1">  1        1 0.25061563E+00 0.28445438E+04</pdfrwt>
<pdfrwt beam="2">  1       -1 0.19104267E+00 0.28445438E+04</pdfrwt>
<totfact> 0.79872854E-01</totfact>
</mgrwt>
</event>
<event>
 6    1  0.1001928E-005  0.3549747E+04  0.7818608E-02  0.8102101E-01
         -1   -1    0    0    0  501 -0.00000000000E+00  0.00000000000E+00  0.24837196796E+04  0.24837196796E+04  0.00000000000E+00 0. -1.
          1   -1    0    0  501    0  0.00000000000E+00 -0.00000000000E+00 -0.12683295686E+04  0.12683295686E+04  0.00000000000E+00 0.  1.
         23    2    1    2    0    0 -0.17007447572E+04  0.37590043625E+03  0.25390129430E+03  0.17625029151E+04  0.90093237821E+02 0.  0.
         11    1    3    3    0    0 -0.10598027870E+04  0.24714715094E+03  0.20074364110E+03  0.11065991465E+04  0.00000000000E+00 0.  1.
        -11    1    3    3    0    0 -0.64094197019E+03  0.12875328530E+03  0.53157653196E+02  0.65590376864E+03  0.00000000000E+00 0. -1.
         22    1    1    2    0    0  0.17007447572E+04 -0.37590043625E+03  0.96148881670E+03  0.19895463331E+04  0.00000000000E+00 0. -1.
<mgrwt>
<rscale>  0 0.35497465E+04</rscale>
<asrwt>0</asrwt>
<pdfrwt beam="1">  1        1 0.19512763E+00 0.35497465E+04</pdfrwt>
<pdfrwt beam="2">  1       -1 0.38211072E+00 0.35497465E+04</pdfrwt>
<totfact> 0.73266366E-02</totfact>
</mgrwt>
</event>
<event>
 6    1  0.1001928E-005  0.1597792E+04  0.7818608E-02  0.8821905E-01
         -2   -1    0    0    0  501 -0.00000000000E+00  0.00000000000E+00  0.57479177293E+03  0.57479177293E+03  0.00000000000E+00 0.  1.
          2   -1    0    0  501    0  0.00000000000E+00 -0.00000000000E+00 -0.11103761756E+04  0.11103761756E+04  0.00000000000E+00 0. -1.
         23    2    1    2    0    0  0.71664826904E+03  0.22748081515E+03  0.80834762902E+01  0.75731719256E+03  0.90176076550E+02 0.  0.
         13    1    3    3    0    0  0.39539755794E+03  0.15181228101E+03  0.41597663723E+02  0.42557791662E+03  0.00000000000E+00 0. -1.
        -13    1    3    3    0    0  0.32125071110E+03  0.75668534140E+02 -0.33514187433E+02  0.33173927594E+03  0.00000000000E+00 0.  1.
         22    1    1    2    0    0 -0.71664826904E+03 -0.22748081515E+03 -0.54366787898E+03  0.92785075600E+03  0.00000000000E+00 0.  1.
<mgrwt>
<rscale>  0 0.15977923E+04</rscale>
<asrwt>0</asrwt>
<pdfrwt beam="1">  1        2 0.17082710E+00 0.15977923E+04</pdfrwt>
<pdfrwt beam="2">  1       -2 0.88429505E-01 0.15977923E+04</pdfrwt>
<totfact> 0.22664340E+01</totfact>
</mgrwt>
</event>
<event>
 6    1  0.1001928E-005  0.6764979E+03  0.7818608E-02  0.9758290E-01
          2   -1    0    0  501    0  0.00000000000E+00  0.00000000000E+00  0.16220826655E+03  0.16220826655E+03  0.00000000000E+00 0. -1.
         -2   -1    0    0    0  501 -0.00000000000E+00 -0.00000000000E+00 -0.70534220929E+03  0.70534220929E+03  0.00000000000E+00 0.  1.
         23    2    1    2    0    0  0.20400680469E+03  0.26189586968E+03 -0.26489792312E+03  0.43439518552E+03  0.91214278588E+02 0.  0.
         11    1    3    3    0    0  0.86119987453E+02  0.99389917163E+02 -0.16243351042E+03  0.20899677792E+03  0.00000000000E+00 0. -1.
        -11    1    3    3    0    0  0.11788681723E+03  0.16250595252E+03 -0.10246441270E+03  0.22539840760E+03  0.00000000000E+00 0.  1.
         22    1    1    2    0    0 -0.20400680469E+03 -0.26189586968E+03 -0.27823601963E+03  0.43315529032E+03  0.00000000000E+00 0. -1.
<mgrwt>
<rscale>  0 0.67649786E+03</rscale>
<asrwt>0</asrwt>
<pdfrwt beam="1">  1        2 0.24955118E-01 0.67649786E+03</pdfrwt>
<pdfrwt beam="2">  1       -2 0.10851418E+00 0.67649786E+03</pdfrwt>
<totfact> 0.15078761E+02</totfact>
</mgrwt>
</event>
<event>
 6    1  0.1001928E-005  0.1987671E+04  0.7818608E-02  0.8612407E-01
          2   -1    0    0  501    0  0.00000000000E+00  0.00000000000E+00  0.26370195477E+04  0.26370195477E+04  0.00000000000E+00 0. -1.
         -2   -1    0    0    0  501 -0.00000000000E+00 -0.00000000000E+00 -0.37455494034E+03  0.37455494034E+03  0.00000000000E+00 0.  1.
         23    2    1    2    0    0 -0.93747867747E+03 -0.79728719426E+02  0.65940849703E+03  0.11528082757E+04  0.94469122258E+02 0.  0.
         13    1    3    3    0    0 -0.65424468241E+03 -0.12327758555E+02  0.44901099717E+03  0.79359873593E+03  0.00000000000E+00 0. -1.
        -13    1    3    3    0    0 -0.28323399507E+03 -0.67400960871E+02  0.21039749986E+03  0.35920953973E+03  0.00000000000E+00 0.  1.
         22    1    1    2    0    0  0.93747867747E+03  0.79728719426E+02  0.16030561103E+04  0.18587662124E+04  0.00000000000E+00 0. -1.
<mgrwt>
<rscale>  0 0.19876707E+04</rscale>
<asrwt>0</asrwt>
<pdfrwt beam="1">  1        2 0.40569530E+00 0.19876707E+04</pdfrwt>
<pdfrwt beam="2">  1       -2 0.57623839E-01 0.19876707E+04</pdfrwt>
<totfact> 0.75983034E+00</totfact>
</mgrwt>
</event>
<event>
 6    1  0.1001928E-005  0.5379247E+04  0.7818608E-02  0.7772527E-01
          2   -1    0    0  501    0  0.00000000000E+00  0.00000000000E+00  0.31889838490E+04  0.31889838490E+04  0.00000000000E+00 0. -1.
         -2   -1    0    0    0  501 -0.00000000000E+00 -0.00000000000E+00 -0.22684573661E+04  0.22684573661E+04  0.00000000000E+00 0.  1.
         23    2    1    2    0    0 -0.22819175908E+04  0.77228527599E+02  0.19012323859E+04  0.29725073719E+04  0.89461468799E+02 0.  0.
         11    1    3    3    0    0 -0.13984175747E+04  0.34076857170E+02  0.12184382767E+04  0.18550808013E+04  0.00000000000E+00 0. -1.
        -11    1    3    3    0    0 -0.88350001609E+03  0.43151670429E+02  0.68279410923E+03  0.11174265706E+04  0.00000000000E+00 0.  1.
         22    1    1    2    0    0  0.22819175908E+04 -0.77228527599E+02 -0.98070590301E+03  0.24849338431E+04  0.00000000000E+00 0.  1.
<mgrwt>
<rscale>  0 0.53792468E+04</rscale>
<asrwt>0</asrwt>
<pdfrwt beam="1">  1        2 0.49061290E+00 0.53792468E+04</pdfrwt>
<pdfrwt beam="2">  1       -2 0.34899344E+00 0.53792468E+04</pdfrwt>
<totfact> 0.14693246E-02</totfact>
</mgrwt>
</event>
<event>
 6    1  0.1001928E-005  0.2414200E+04  0.7818608E-02  0.8434206E-01
          1   -1    0    0  501    0  0.00000000000E+00  0.00000000000E+00  0.12735508447E+04  0.12735508447E+04  0.00000000000E+00 0. -1.
         -1   -1    0    0    0  501 -0.00000000000E+00 -0.00000000000E+00 -0.11441163738E+04  0.11441163738E+04  0.00000000000E+00 0.  1.
         23    2    1    2    0    0  0.32877115321E+03 -0.10101441620E+04  0.63511062543E+03  0.12411511444E+04  0.92784467554E+02 0.  0.
         13    1    3    3    0    0  0.13391180232E+03 -0.51094740265E+03  0.35565672430E+03  0.63678200714E+03  0.00000000000E+00 0.  1.
        -13    1    3    3    0    0  0.19485935090E+03 -0.49919675938E+03  0.27945390113E+03  0.60436913725E+03  0.00000000000E+00 0. -1.
         22    1    1    2    0    0 -0.32877115321E+03  0.10101441620E+04 -0.50567615451E+03  0.11765160741E+04  0.00000000000E+00 0. -1.
<mgrwt>
<rscale>  0 0.24142000E+04</rscale>
<asrwt>0</asrwt>
<pdfrwt beam="1">  1        1 0.19593090E+00 0.24142000E+04</pdfrwt>
<pdfrwt beam="2">  1       -1 0.17601790E+00 0.24142000E+04</pdfrwt>
<totfact> 0.18808252E+00</totfact>
</mgrwt>
</event>
<event>
 6    1  0.1001928E-005  0.2106518E+04  0.7818608E-02  0.8558377E-01
          2   -1    0    0  501    0  0.00000000000E+00  0.00000000000E+00  0.18812817940E+04  0.18812817940E+04  0.00000000000E+00 0. -1.
         -2   -1    0    0    0  501 -0.00000000000E+00 -0.00000000000E+00 -0.58968037747E+03  0.58968037747E+03  0.00000000000E+00 0.  1.
         23    2    1    2    0    0 -0.69482362173E+03  0.20389386232E+03 -0.24689297690E+03  0.77057469473E+03  0.92068701091E+02 0.  0.
         13    1    3    3    0    0 -0.44142190109E+03  0.83351726231E+02 -0.15868337932E+03  0.47642546101E+03  0.00000000000E+00 0.  1.
        -13    1    3    3    0    0 -0.25340172064E+03  0.12054213609E+03 -0.88209597578E+02  0.29414923373E+03  0.00000000000E+00 0. -1.
         22    1    1    2    0    0  0.69482362173E+03 -0.20389386232E+03  0.15384943934E+04  0.17003874767E+04  0.00000000000E+00 0. -1.
<mgrwt>
<rscale>  0 0.21065184E+04</rscale>
<asrwt>0</asrwt>
<pdfrwt beam="1">  1        2 0.28942797E+00 0.21065184E+04</pdfrwt>
<pdfrwt beam="2">  1       -2 0.90720059E-01 0.21065184E+04</pdfrwt>
<totfact> 0.74317540E+00</totfact>
</mgrwt>
</event>
<event>
 6    1  0.1001928E-005  0.1377988E+04  0.7818608E-02  0.8969908E-01
          2   -1    0    0  501    0  0.00000000000E+00  0.00000000000E+00  0.99375540980E+03  0.99375540980E+03  0.00000000000E+00 0. -1.
         -2   -1    0    0    0  501 -0.00000000000E+00 -0.00000000000E+00 -0.47769594917E+03  0.47769594917E+03  0.00000000000E+00 0.  1.
         23    2    1    2    0    0 -0.17414841221E+03 -0.59119362172E+03 -0.62659993069E+02  0.62602024177E+03  0.90208095757E+02 0.  0.
         11    1    3    3    0    0 -0.10447625141E+03 -0.32554815211E+03  0.96216060581E+01  0.34203722276E+03  0.00000000000E+00 0.  1.
        -11    1    3    3    0    0 -0.69672160807E+02 -0.26564546961E+03 -0.72281599127E+02  0.28398301901E+03  0.00000000000E+00 0. -1.
         22    1    1    2    0    0  0.17414841221E+03  0.59119362172E+03  0.57871945370E+03  0.84543111720E+03  0.00000000000E+00 0. -1.
<mgrwt>
<rscale>  0 0.13779883E+04</rscale>
<asrwt>0</asrwt>
<pdfrwt beam="1">  1        2 0.15288545E+00 0.13779883E+04</pdfrwt>
<pdfrwt beam="2">  1       -2 0.73491685E-01 0.13779883E+04</pdfrwt>
<totfact> 0.41406112E+01</totfact>
</mgrwt>
</event>
<event>
 6    1  0.1001928E-005  0.2631609E+04  0.7818608E-02  0.8357543E-01
          2   -1    0    0  501    0  0.00000000000E+00  0.00000000000E+00  0.28552051227E+04  0.28552051227E+04  0.00000000000E+00 0. -1.
         -2   -1    0    0    0  501 -0.00000000000E+00 -0.00000000000E+00 -0.60638086189E+03  0.60638086189E+03  0.00000000000E+00 0.  1.
         23    2    1    2    0    0  0.51239387400E+03  0.10887473800E+04  0.43066172902E+03  0.12813031287E+04  0.91377477722E+02 0.  0.
         13    1    3    3    0    0  0.29766578601E+03  0.70153836422E+03  0.30705230727E+03  0.82160946686E+03  0.00000000000E+00 0. -1.
        -13    1    3    3    0    0  0.21472808799E+03  0.38720901573E+03  0.12360942175E+03  0.45969366189E+03  0.00000000000E+00 0.  1.
         22    1    1    2    0    0 -0.51239387400E+03 -0.10887473800E+04  0.18181625318E+04  0.21802828559E+04  0.00000000000E+00 0. -1.
<mgrwt>
<rscale>  0 0.26316092E+04</rscale>
<asrwt>0</asrwt>
<pdfrwt beam="1">  1        2 0.43926232E+00 0.26316092E+04</pdfrwt>
<pdfrwt beam="2">  1       -2 0.93289365E-01 0.26316092E+04</pdfrwt>
<totfact> 0.18357557E+00</totfact>
</mgrwt>
</event>
<event>
 6    1  0.1598863E-005  0.4651588E+04  0.7818608E-02  0.7884623E-01
         -1   -1    0    0    0  501 -0.00000000000E+00  0.00000000000E+00  0.21208489776E+04  0.21208489776E+04  0.00000000000E+00 0.  1.
          1   -1    0    0  501    0  0.00000000000E+00 -0.00000000000E+00 -0.25505437291E+04  0.25505437291E+04  0.00000000000E+00 0. -1.
         23    2    1    2    0    0 -0.31118557465E+02  0.42390474146E+03 -0.25104653690E+04  0.25476530905E+04  0.86234018295E+02 0.  0.
         11    1    3    3    0    0 -0.25214468670E+02  0.74211147384E+02 -0.63889054795E+03  0.64368019706E+03  0.00000000000E+00 0. -1.
        -11    1    3    3    0    0 -0.59040887956E+01  0.34969359407E+03 -0.18715748211E+04  0.19039728934E+04  0.00000000000E+00 0.  1.
         22    1    1    2    0    0  0.31118557465E+02 -0.42390474146E+03  0.20807706175E+04  0.21237396162E+04  0.00000000000E+00 0.  1.
<mgrwt>
<rscale>  0 0.46515881E+04</rscale>
<asrwt>0</asrwt>
<pdfrwt beam="1">  1        1 0.39239134E+00 0.46515881E+04</pdfrwt>
<pdfrwt beam="2">  1       -1 0.32628446E+00 0.46515881E+04</pdfrwt>
<totfact> 0.20649238E-02</totfact>
</mgrwt>
</event>
<event>
 6    1  0.1001928E-005  0.4154116E+04  0.7818608E-02  0.7974158E-01
          2   -1    0    0  501    0  0.00000000000E+00  0.00000000000E+00  0.44301738440E+04  0.44301738440E+04  0.00000000000E+00 0. -1.
         -2   -1    0    0    0  501 -0.00000000000E+00 -0.00000000000E+00 -0.97381517841E+03  0.97381517841E+03  0.00000000000E+00 0.  1.
         23    2    1    2    0    0 -0.35901928466E+03 -0.10292446111E+04  0.40274685013E+04  0.41733770767E+04  0.91292821785E+02 0.  0.
         13    1    3    3    0    0 -0.25607241056E+03 -0.62298123280E+03  0.23858315825E+04  0.24790867343E+04  0.00000000000E+00 0. -1.
        -13    1    3    3    0    0 -0.10294687411E+03 -0.40626337833E+03  0.16416369188E+04  0.16942903425E+04  0.00000000000E+00 0.  1.
         22    1    1    2    0    0  0.35901928466E+03  0.10292446111E+04 -0.57110983573E+03  0.12306119457E+04  0.00000000000E+00 0.  1.
<mgrwt>
<rscale>  0 0.41541163E+04</rscale>
<asrwt>0</asrwt>
<pdfrwt beam="1">  1        2 0.68156519E+00 0.41541163E+04</pdfrwt>
<pdfrwt beam="2">  1       -2 0.14981772E+00 0.41541163E+04</pdfrwt>
<totfact> 0.33426335E-02</totfact>
</mgrwt>
</event>
<event>
 6    1  0.1001928E-005  0.1836460E+04  0.7818608E-02  0.8687147E-01
          2   -1    0    0  501    0  0.00000000000E+00  0.00000000000E+00  0.36315097630E+04  0.36315097630E+04  0.00000000000E+00 0. -1.
         -2   -1    0    0    0  501 -0.00000000000E+00 -0.00000000000E+00 -0.23217503572E+03  0.23217503572E+03  0.00000000000E+00 0.  1.
         23    2    1    2    0    0  0.55787000110E+03  0.71539117838E+03  0.19702144134E+04  0.21709389974E+04  0.90707329347E+02 0.  0.
         13    1    3    3    0    0  0.27762804191E+03  0.38405586488E+03  0.11278512705E+04  0.12233661453E+04  0.00000000000E+00 0. -1.
        -13    1    3    3    0    0  0.28024195919E+03  0.33133531350E+03  0.84236314285E+03  0.94757285213E+03  0.00000000000E+00 0.  1.
         22    1    1    2    0    0 -0.55787000110E+03 -0.71539117838E+03  0.14291203140E+04  0.16927458013E+04  0.00000000000E+00 0.  1.
<mgrwt>
<rscale>  0 0.18364595E+04</rscale>
<asrwt>0</asrwt>
<pdfrwt beam="1">  1        2 0.55869377E+00 0.18364595E+04</pdfrwt>
<pdfrwt beam="2">  1       -2 0.35719239E-01 0.18364595E+04</pdfrwt>
<totfact> 0.45850498E+00</totfact>
</mgrwt>
</event>
<event>
 6    1  0.1001928E-005  0.7835359E+03  0.7818608E-02  0.9584159E-01
         -1   -1    0    0    0  501 -0.00000000000E+00  0.00000000000E+00  0.97237824708E+02  0.97237824708E+02  0.00000000000E+00 0.  1.
          1   -1    0    0  501    0  0.00000000000E+00 -0.00000000000E+00 -0.15784199502E+04  0.15784199502E+04  0.00000000000E+00 0. -1.
         23    2    1    2    0    0 -0.20702445753E+03 -0.10564865939E+03 -0.14107633425E+04  0.14328006765E+04  0.92972064288E+02 0.  0.
         11    1    3    3    0    0 -0.40884135227E+02 -0.62790508675E+02 -0.55223185490E+03  0.55729182845E+03  0.00000000000E+00 0.  1.
        -11    1    3    3    0    0 -0.16614032230E+03 -0.42858150713E+02 -0.85853148762E+03  0.87550884805E+03  0.00000000000E+00 0. -1.
         22    1    1    2    0    0  0.20702445753E+03  0.10564865939E+03 -0.70418782960E+02  0.24285709839E+03  0.00000000000E+00 0.  1.
<mgrwt>
<rscale>  0 0.78353589E+03</rscale>
<asrwt>0</asrwt>
<pdfrwt beam="1">  1        1 0.24283382E+00 0.78353589E+03</pdfrwt>
<pdfrwt beam="2">  1       -1 0.14959667E-01 0.78353589E+03</pdfrwt>
<totfact> 0.19415454E+02</totfact>
</mgrwt>
</event>
<event>
 6    1  0.1001928E-005  0.2990943E+04  0.7818608E-02  0.8246322E-01
          1   -1    0    0  501    0  0.00000000000E+00  0.00000000000E+00  0.84799191566E+03  0.84799191566E+03  0.00000000000E+00 0. -1.
         -1   -1    0    0    0  501 -0.00000000000E+00 -0.00000000000E+00 -0.26373311513E+04  0.26373311513E+04  0.00000000000E+00 0.  1.
         23    2    1    2    0    0  0.99463622121E+03 -0.27464210400E+03  0.36366441921E+03  0.10978234888E+04  0.90747478947E+02 0.  0.
         11    1    3    3    0    0  0.60242074452E+02 -0.50272591036E+01  0.28023687203E+01  0.60516395619E+02  0.00000000000E+00 0. -1.
        -11    1    3    3    0    0  0.93439414676E+03 -0.26961484490E+03  0.36086205049E+03  0.10373070932E+04  0.00000000000E+00 0.  1.
         22    1    1    2    0    0 -0.99463622121E+03  0.27464210400E+03 -0.21530036548E+04  0.23874995781E+04  0.00000000000E+00 0.  1.
<mgrwt>
<rscale>  0 0.29909433E+04</rscale>
<asrwt>0</asrwt>
<pdfrwt beam="1">  1        1 0.13046029E+00 0.29909433E+04</pdfrwt>
<pdfrwt beam="2">  1       -1 0.40574326E+00 0.29909433E+04</pdfrwt>
<totfact> 0.11181801E-01</totfact>
</mgrwt>
</event>
<event>
 6    1  0.1001928E-005  0.3828650E+04  0.7818608E-02  0.8040034E-01
         -2   -1    0    0    0  501 -0.00000000000E+00  0.00000000000E+00  0.10206429400E+04  0.10206429400E+04  0.00000000000E+00 0.  1.
          2   -1    0    0  501    0  0.00000000000E+00 -0.00000000000E+00 -0.35905214953E+04  0.35905214953E+04  0.00000000000E+00 0. -1.
         23    2    1    2    0    0 -0.85855868891E+03  0.17093500655E+04 -0.12392001942E+04  0.22809915727E+04  0.91130482395E+02 0.  0.
         11    1    3    3    0    0 -0.57552545007E+03  0.12359397745E+04 -0.89199700331E+03  0.16292437890E+04  0.00000000000E+00 0.  1.
        -11    1    3    3    0    0 -0.28303323884E+03  0.47341029099E+03 -0.34720319086E+03  0.65174778377E+03  0.00000000000E+00 0. -1.
         22    1    1    2    0    0  0.85855868891E+03 -0.17093500655E+04 -0.13306783611E+04  0.23301728626E+04  0.00000000000E+00 0. -1.
<mgrwt>
<rscale>  0 0.38286501E+04</rscale>
<asrwt>0</asrwt>
<pdfrwt beam="1">  1        2 0.55238792E+00 0.38286501E+04</pdfrwt>
<pdfrwt beam="2">  1       -2 0.15702199E+00 0.38286501E+04</pdfrwt>
<totfact> 0.14840711E-01</totfact>
</mgrwt>
</event>
<event>
 6    1  0.1001928E-005  0.4889612E+04  0.7818608E-02  0.7845765E-01
          2   -1    0    0  501    0  0.00000000000E+00  0.00000000000E+00  0.34923635927E+04  0.34923635927E+04  0.00000000000E+00 0. -1.
         -2   -1    0    0    0  501 -0.00000000000E+00 -0.00000000000E+00 -0.17114701874E+04  0.17114701874E+04  0.00000000000E+00 0.  1.
         23    2    1    2    0    0  0.38697259189E+03  0.17351582503E+04 -0.89439710923E+03  0.19917158997E+04  0.80399600671E+02 0.  0.
         13    1    3    3    0    0  0.33785323901E+02  0.28772434419E+03 -0.14520927822E+03  0.32405629269E+03  0.00000000000E+00 0. -1.
        -13    1    3    3    0    0  0.35318726799E+03  0.14474339061E+04 -0.74918783101E+03  0.16676596070E+04  0.00000000000E+00 0.  1.
         22    1    1    2    0    0 -0.38697259189E+03 -0.17351582503E+04  0.26752905145E+04  0.32121178804E+04  0.00000000000E+00 0. -1.
<mgrwt>
<rscale>  0 0.48896119E+04</rscale>
<asrwt>0</asrwt>
<pdfrwt beam="1">  1        2 0.53728671E+00 0.48896119E+04</pdfrwt>
<pdfrwt beam="2">  1       -2 0.26330311E+00 0.48896119E+04</pdfrwt>
<totfact> 0.32129455E-02</totfact>
</mgrwt>
</event>
<event>
 6    1  0.1001928E-005  0.3414509E+04  0.7818608E-02  0.8134355E-01
         -2   -1    0    0    0  501 -0.00000000000E+00  0.00000000000E+00  0.15169858458E+04  0.15169858458E+04  0.00000000000E+00 0.  1.
          2   -1    0    0  501    0  0.00000000000E+00 -0.00000000000E+00 -0.19213875861E+04  0.19213875861E+04  0.00000000000E+00 0. -1.
         23    2    1    2    0    0 -0.85707529800E+03 -0.58798775313E+03  0.11601206602E+04  0.15600662136E+04  0.87286771525E+02 0.  0.
         11    1    3    3    0    0 -0.80163547026E+03 -0.57178064989E+03  0.10829113888E+04  0.14636425843E+04  0.00000000000E+00 0. -1.
        -11    1    3    3    0    0 -0.55439827743E+02 -0.16207103248E+02  0.77209271419E+02  0.96423629308E+02  0.00000000000E+00 0.  1.
         22    1    1    2    0    0  0.85707529800E+03  0.58798775313E+03 -0.15645224005E+04  0.18783072182E+04  0.00000000000E+00 0. -1.
<mgrwt>
<rscale>  0 0.34145089E+04</rscale>
<asrwt>0</asrwt>
<pdfrwt beam="1">  1        2 0.29559809E+00 0.34145089E+04</pdfrwt>
<pdfrwt beam="2">  1       -2 0.23338244E+00 0.34145089E+04</pdfrwt>
<totfact> 0.49791304E-01</totfact>
</mgrwt>
</event>
<event>
 6    1  0.1001928E-005  0.3344813E+04  0.7818608E-02  0.8151585E-01
         -1   -1    0    0    0  501 -0.00000000000E+00  0.00000000000E+00  0.63943959756E+03  0.63943959756E+03  0.00000000000E+00 0.  1.
          1   -1    0    0  501    0  0.00000000000E+00 -0.00000000000E+00 -0.43740536889E+04  0.43740536889E+04  0.00000000000E+00 0. -1.
         23    2    1    2    0    0 -0.96367556524E+03  0.13636089965E+04 -0.19719052155E+04  0.25854812042E+04  0.90569245561E+02 0.  0.
         11    1    3    3    0    0 -0.26388135491E+03  0.33752978987E+03 -0.45466092424E+03  0.62472096535E+03  0.00000000000E+00 0.  1.
        -11    1    3    3    0    0 -0.69979421033E+03  0.10260792066E+04 -0.15172442912E+04  0.19607602389E+04  0.00000000000E+00 0. -1.
         22    1    1    2    0    0  0.96367556524E+03 -0.13636089965E+04 -0.17627088759E+04  0.24280120823E+04  0.00000000000E+00 0. -1.
<mgrwt>
<rscale>  0 0.33448128E+04</rscale>
<asrwt>0</asrwt>
<pdfrwt beam="1">  1        1 0.67293135E+00 0.33448128E+04</pdfrwt>
<pdfrwt beam="2">  1       -1 0.98375321E-01 0.33448128E+04</pdfrwt>
<totfact> 0.35160172E-02</totfact>
</mgrwt>
</event>
<event>
 6    1  0.1001928E-005  0.2179908E+04  0.7818608E-02  0.8526838E-01
         -1   -1    0    0    0  501 -0.00000000000E+00  0.00000000000E+00  0.48581479594E+03  0.48581479594E+03  0.00000000000E+00 0.  1.
          1   -1    0    0  501    0  0.00000000000E+00 -0.00000000000E+00 -0.24453762196E+04  0.24453762196E+04  0.00000000000E+00 0. -1.
         23    2    1    2    0    0  0.23636379279E+03  0.81865305650E+03 -0.18911955738E+04  0.20763608810E+04  0.92699192346E+02 0.  0.
         13    1    3    3    0    0  0.12571710420E+03  0.28609048227E+03 -0.65036570370E+03  0.72154563465E+03  0.00000000000E+00 0.  1.
        -13    1    3    3    0    0  0.11064668859E+03  0.53256257423E+03 -0.12408298701E+04  0.13548152463E+04  0.00000000000E+00 0. -1.
         22    1    1    2    0    0 -0.23636379279E+03 -0.81865305650E+03 -0.68365849818E+02  0.85483013452E+03  0.00000000000E+00 0.  1.
<mgrwt>
<rscale>  0 0.21799082E+04</rscale>
<asrwt>0</asrwt>
<pdfrwt beam="1">  1        1 0.37621173E+00 0.21799082E+04</pdfrwt>
<pdfrwt beam="2">  1       -1 0.74740738E-01 0.21799082E+04</pdfrwt>
<totfact> 0.24312549E+00</totfact>
</mgrwt>
</event>
<event>
 6    1  0.1001928E-005  0.1477412E+04  0.7818608E-02  0.8899614E-01
          2   -1    0    0  501    0  0.00000000000E+00  0.00000000000E+00  0.12544513185E+04  0.12544513185E+04  0.00000000000E+00 0. -1.
         -2   -1    0    0    0  501 -0.00000000000E+00 -0.00000000000E+00 -0.43500033230E+03  0.43500033230E+03  0.00000000000E+00 0.  1.
         23    2    1    2    0    0 -0.35568446042E+03  0.15397523026E+03  0.11265188187E+04  0.11949716606E+04  0.93235260580E+02 0.  0.
         13    1    3    3    0    0 -0.20285524988E+03  0.13553083948E+03  0.72556717847E+03  0.76548454676E+03  0.00000000000E+00 0.  1.
        -13    1    3    3    0    0 -0.15282921054E+03  0.18444390777E+02  0.40095164022E+03  0.42948711382E+03  0.00000000000E+00 0. -1.
         22    1    1    2    0    0  0.35568446042E+03 -0.15397523026E+03 -0.30706783253E+03  0.49447999018E+03  0.00000000000E+00 0.  1.
<mgrwt>
<rscale>  0 0.14774123E+04</rscale>
<asrwt>0</asrwt>
<pdfrwt beam="1">  1        2 0.19299251E+00 0.14774123E+04</pdfrwt>
<pdfrwt beam="2">  1       -2 0.66923128E-01 0.14774123E+04</pdfrwt>
<totfact> 0.34881328E+01</totfact>
</mgrwt>
</event>
<event>
 6    1  0.1001928E-005  0.1280968E+04  0.7818608E-02  0.9044796E-01
          3   -1    0    0  501    0  0.00000000000E+00  0.00000000000E+00  0.99865148509E+03  0.99865148509E+03  0.00000000000E+00 0. -1.
         -3   -1    0    0    0  501 -0.00000000000E+00 -0.00000000000E+00 -0.41077346706E+03  0.41077346706E+03  0.00000000000E+00 0.  1.
         23    2    1    2    0    0 -0.59926376906E+03  0.21518719337E+03  0.32650898443E+03  0.72113986236E+03  0.89509726188E+02 0.  0.
         13    1    3    3    0    0 -0.88384387092E+02  0.40355898312E+02  0.87069762291E+02  0.13046663143E+03  0.00000000000E+00 0. -1.
        -13    1    3    3    0    0 -0.51087938197E+03  0.17483129505E+03  0.23943922214E+03  0.59067323094E+03  0.00000000000E+00 0.  1.
         22    1    1    2    0    0  0.59926376906E+03 -0.21518719337E+03  0.26136903360E+03  0.68828508978E+03  0.00000000000E+00 0. -1.
<mgrwt>
<rscale>  0 0.12809677E+04</rscale>
<asrwt>0</asrwt>
<pdfrwt beam="1">  1        3 0.15363869E+00 0.12809677E+04</pdfrwt>
<pdfrwt beam="2">  1       -3 0.63195918E-01 0.12809677E+04</pdfrwt>
<totfact> 0.19020495E+00</totfact>
</mgrwt>
</event>
<event>
 6    1  0.1001928E-005  0.1690919E+04  0.7818608E-02  0.8766560E-01
         -2   -1    0    0    0  501 -0.00000000000E+00  0.00000000000E+00  0.87089379701E+03  0.87089379701E+03  0.00000000000E+00 0.  1.
          2   -1    0    0  501    0  0.00000000000E+00 -0.00000000000E+00 -0.82076840590E+03  0.82076840590E+03  0.00000000000E+00 0. -1.
         23    2    1    2    0    0  0.75205774679E+01  0.27497814947E+03  0.82245365761E+03  0.87180825676E+03  0.89163197980E+02 0.  0.
         13    1    3    3    0    0 -0.17037822164E+02  0.97871486006E+02  0.18790625702E+03  0.21255087999E+03  0.00000000000E+00 0. -1.
        -13    1    3    3    0    0  0.24558399632E+02  0.17710666346E+03  0.63454740059E+03  0.65925737677E+03  0.00000000000E+00 0.  1.
         22    1    1    2    0    0 -0.75205774679E+01 -0.27497814947E+03 -0.77232826650E+03  0.81985394614E+03  0.00000000000E+00 0. -1.
<mgrwt>
<rscale>  0 0.16909194E+04</rscale>
<asrwt>0</asrwt>
<pdfrwt beam="1">  1        2 0.12627206E+00 0.16909194E+04</pdfrwt>
<pdfrwt beam="2">  1       -2 0.13398366E+00 0.16909194E+04</pdfrwt>
<totfact> 0.12744381E+01</totfact>
</mgrwt>
</event>
<event>
 6    1  0.1001928E-005  0.2886742E+04  0.7818608E-02  0.8276833E-01
          2   -1    0    0  501    0  0.00000000000E+00  0.00000000000E+00  0.21208137892E+04  0.21208137892E+04  0.00000000000E+00 0. -1.
         -2   -1    0    0    0  501 -0.00000000000E+00 -0.00000000000E+00 -0.98232120286E+03  0.98232120286E+03  0.00000000000E+00 0.  1.
         23    2    1    2    0    0  0.11226916709E+04  0.51823381923E+03  0.13672259237E+04  0.18456288017E+04  0.89644119068E+02 0.  0.
         11    1    3    3    0    0  0.10305888117E+04  0.46405605623E+03  0.12808621297E+04  0.17082356739E+04  0.00000000000E+00 0. -1.
        -11    1    3    3    0    0  0.92102859154E+02  0.54177763004E+02  0.86363793953E+02  0.13739312783E+03  0.00000000000E+00 0.  1.
         22    1    1    2    0    0 -0.11226916709E+04 -0.51823381923E+03 -0.22873333730E+03  0.12575061904E+04  0.00000000000E+00 0.  1.
<mgrwt>
<rscale>  0 0.28867424E+04</rscale>
<asrwt>0</asrwt>
<pdfrwt beam="1">  1        2 0.32627904E+00 0.28867424E+04</pdfrwt>
<pdfrwt beam="2">  1       -2 0.15112634E+00 0.28867424E+04</pdfrwt>
<totfact> 0.14517171E+00</totfact>
</mgrwt>
</event>
<event>
 6    1  0.1001928E-005  0.9388059E+03  0.7818608E-02  0.9378331E-01
          2   -1    0    0  501    0  0.00000000000E+00  0.00000000000E+00  0.69650615176E+03  0.69650615176E+03  0.00000000000E+00 0. -1.
         -2   -1    0    0    0  501 -0.00000000000E+00 -0.00000000000E+00 -0.31634915204E+03  0.31634915204E+03  0.00000000000E+00 0.  1.
         23    2    1    2    0    0  0.20714858741E+03 -0.31835065366E+03  0.48104308683E+03  0.61987225262E+03  0.92636290006E+02 0.  0.
         11    1    3    3    0    0  0.15572011841E+03 -0.25360604598E+03  0.42919293286E+03  0.52227517216E+03  0.00000000000E+00 0. -1.
        -11    1    3    3    0    0  0.51428469005E+02 -0.64744607679E+02  0.51850153969E+02  0.97597080460E+02  0.00000000000E+00 0.  1.
         22    1    1    2    0    0 -0.20714858741E+03  0.31835065366E+03 -0.10088608711E+03  0.39298305119E+03  0.00000000000E+00 0.  1.
<mgrwt>
<rscale>  0 0.93880590E+03</rscale>
<asrwt>0</asrwt>
<pdfrwt beam="1">  1        2 0.10715479E+00 0.93880590E+03</pdfrwt>
<pdfrwt beam="2">  1       -2 0.48669100E-01 0.93880590E+03</pdfrwt>
<totfact> 0.16509192E+02</totfact>
</mgrwt>
</event>
<event>
 6    1  0.1001928E-005  0.2470049E+04  0.7818608E-02  0.8413734E-01
          2   -1    0    0  501    0  0.00000000000E+00  0.00000000000E+00  0.11792016484E+04  0.11792016484E+04  0.00000000000E+00 0.  1.
         -2   -1    0    0    0  501 -0.00000000000E+00 -0.00000000000E+00 -0.12934896510E+04  0.12934896510E+04  0.00000000000E+00 0. -1.
         23    2    1    2    0    0 -0.78261928946E+03  0.69185458841E+03  0.59917866409E+03  0.12077049720E+04  0.91545094123E+02 0.  0.
         13    1    3    3    0    0 -0.75232572970E+03  0.67290082127E+03  0.55851872597E+03  0.11535738754E+04  0.00000000000E+00 0. -1.
        -13    1    3    3    0    0 -0.30293559761E+02  0.18953767139E+02  0.40659938118E+02  0.54131096604E+02  0.00000000000E+00 0.  1.
         22    1    1    2    0    0  0.78261928946E+03 -0.69185458841E+03 -0.71346666668E+03  0.12649863273E+04  0.00000000000E+00 0.  1.
<mgrwt>
<rscale>  0 0.24700487E+04</rscale>
<asrwt>0</asrwt>
<pdfrwt beam="1">  1        2 0.18141564E+00 0.24700487E+04</pdfrwt>
<pdfrwt beam="2">  1       -2 0.19899841E+00 0.24700487E+04</pdfrwt>
<totfact> 0.23533287E+00</totfact>
</mgrwt>
</event>
<event>
 6    1  0.1001928E-005  0.2293035E+04  0.7818608E-02  0.8480672E-01
          2   -1    0    0  501    0  0.00000000000E+00  0.00000000000E+00  0.10495274577E+04  0.10495274577E+04  0.00000000000E+00 0. -1.
         -2   -1    0    0    0  501 -0.00000000000E+00 -0.00000000000E+00 -0.12524707967E+04  0.12524707967E+04  0.00000000000E+00 0.  1.
         23    2    1    2    0    0 -0.35176874138E+03 -0.74638612014E+03 -0.89814300538E+03  0.12230468820E+04  0.91374666883E+02 0.  0.
         13    1    3    3    0    0 -0.26610826388E+03 -0.62236001219E+03 -0.77001294506E+03  0.10252148694E+04  0.00000000000E+00 0.  1.
        -13    1    3    3    0    0 -0.85660477496E+02 -0.12402610795E+03 -0.12813006032E+03  0.19783201262E+03  0.00000000000E+00 0. -1.
         22    1    1    2    0    0  0.35176874138E+03  0.74638612014E+03  0.69519966635E+03  0.10789513723E+04  0.00000000000E+00 0. -1.
<mgrwt>
<rscale>  0 0.22930351E+04</rscale>
<asrwt>0</asrwt>
<pdfrwt beam="1">  1        2 0.16146576E+00 0.22930351E+04</pdfrwt>
<pdfrwt beam="2">  1       -2 0.19268781E+00 0.22930351E+04</pdfrwt>
<totfact> 0.31593229E+00</totfact>
</mgrwt>
</event>
<event>
 6    1  0.1001928E-005  0.3496863E+04  0.7818608E-02  0.8114534E-01
          2   -1    0    0  501    0  0.00000000000E+00  0.00000000000E+00  0.28302563967E+04  0.28302563967E+04  0.00000000000E+00 0. -1.
         -2   -1    0    0    0  501 -0.00000000000E+00 -0.00000000000E+00 -0.10801184497E+04  0.10801184497E+04  0.00000000000E+00 0.  1.
         23    2    1    2    0    0 -0.16711075678E+04  0.50861208968E+03  0.83022493083E+03  0.19361593774E+04  0.90293621396E+02 0.  0.
         13    1    3    3    0    0 -0.14461716539E+04  0.43485439937E+03  0.75073068096E+03  0.16864481482E+04  0.00000000000E+00 0.  1.
        -13    1    3    3    0    0 -0.22493591385E+03  0.73757690309E+02  0.79494249872E+02  0.24971122918E+03  0.00000000000E+00 0. -1.
         22    1    1    2    0    0  0.16711075678E+04 -0.50861208968E+03  0.91991301609E+03  0.19742154690E+04  0.00000000000E+00 0.  1.
<mgrwt>
<rscale>  0 0.34968627E+04</rscale>
<asrwt>0</asrwt>
<pdfrwt beam="1">  1        2 0.43542406E+00 0.34968627E+04</pdfrwt>
<pdfrwt beam="2">  1       -2 0.16617207E+00 0.34968627E+04</pdfrwt>
<totfact> 0.41345173E-01</totfact>
</mgrwt>
</event>
<event>
 6    1  0.1001928E-005  0.2520895E+04  0.7818608E-02  0.8395579E-01
          1   -1    0    0  501    0  0.00000000000E+00  0.00000000000E+00  0.14437686907E+04  0.14437686907E+04  0.00000000000E+00 0. -1.
         -1   -1    0    0    0  501 -0.00000000000E+00 -0.00000000000E+00 -0.11004036069E+04  0.11004036069E+04  0.00000000000E+00 0.  1.
         23    2    1    2    0    0  0.12271251129E+04 -0.13035735825E+02 -0.11104090046E+03  0.12355505908E+04  0.90825150211E+02 0.  0.
         13    1    3    3    0    0  0.60472048504E+03  0.25964959733E+02 -0.86649455849E+02  0.61144842167E+03  0.00000000000E+00 0. -1.
        -13    1    3    3    0    0  0.62240462782E+03 -0.39000695558E+02 -0.24391444610E+02  0.62410216917E+03  0.00000000000E+00 0.  1.
         22    1    1    2    0    0 -0.12271251129E+04  0.13035735825E+02  0.45440598429E+03  0.13086217068E+04  0.00000000000E+00 0. -1.
<mgrwt>
<rscale>  0 0.25208953E+04</rscale>
<asrwt>0</asrwt>
<pdfrwt beam="1">  1        1 0.22211826E+00 0.25208953E+04</pdfrwt>
<pdfrwt beam="2">  1       -1 0.16929286E+00 0.25208953E+04</pdfrwt>
<totfact> 0.15810647E+00</totfact>
</mgrwt>
</event>
<event>
 6    1  0.1001928E-005  0.2588019E+04  0.7818608E-02  0.8372282E-01
         -1   -1    0    0    0  501 -0.00000000000E+00  0.00000000000E+00  0.21640612433E+04  0.21640612433E+04  0.00000000000E+00 0. -1.
          1   -1    0    0  501    0  0.00000000000E+00 -0.00000000000E+00 -0.77375815976E+03  0.77375815976E+03  0.00000000000E+00 0.  1.
         23    2    1    2    0    0  0.98807225748E+03 -0.75734259573E+03  0.10899837953E+04  0.16571764910E+04  0.91184729222E+02 0.  0.
         11    1    3    3    0    0  0.92305993777E+03 -0.72252488659E+03  0.99978556901E+03  0.15406664287E+04  0.00000000000E+00 0.  1.
        -11    1    3    3    0    0  0.65012319714E+02 -0.34817709135E+02  0.90198226339E+02  0.11651006231E+03  0.00000000000E+00 0. -1.
         22    1    1    2    0    0 -0.98807225748E+03  0.75734259573E+03  0.30031928814E+03  0.12806429120E+04  0.00000000000E+00 0.  1.
<mgrwt>
<rscale>  0 0.25880186E+04</rscale>
<asrwt>0</asrwt>
<pdfrwt beam="1">  1        1 0.11903972E+00 0.25880186E+04</pdfrwt>
<pdfrwt beam="2">  1       -1 0.33293250E+00 0.25880186E+04</pdfrwt>
<totfact> 0.41409651E-01</totfact>
</mgrwt>
</event>
<event>
 6    1  0.1001928E-005  0.2778796E+04  0.7818608E-02  0.8309882E-01
         -1   -1    0    0    0  501 -0.00000000000E+00  0.00000000000E+00  0.10328095250E+04  0.10328095250E+04  0.00000000000E+00 0.  1.
          1   -1    0    0  501    0  0.00000000000E+00 -0.00000000000E+00 -0.18691018238E+04  0.18691018238E+04  0.00000000000E+00 0. -1.
         23    2    1    2    0    0  0.37179831373E+03  0.12862364808E+04 -0.36703821720E+02  0.13424306649E+04  0.90192288595E+02 0.  0.
         13    1    3    3    0    0  0.27974893400E+03  0.87822079039E+03  0.83763626317E+01  0.92173824169E+03  0.00000000000E+00 0. -1.
        -13    1    3    3    0    0  0.92049379733E+02  0.40801569042E+03 -0.45080184352E+02  0.42069242323E+03  0.00000000000E+00 0.  1.
         22    1    1    2    0    0 -0.37179831373E+03 -0.12862364808E+04 -0.79958847704E+03  0.15594806838E+04  0.00000000000E+00 0. -1.
<mgrwt>
<rscale>  0 0.27787955E+04</rscale>
<asrwt>0</asrwt>
<pdfrwt beam="1">  1        1 0.28755413E+00 0.27787955E+04</pdfrwt>
<pdfrwt beam="2">  1       -1 0.15889377E+00 0.27787955E+04</pdfrwt>
<totfact> 0.94485940E-01</totfact>
</mgrwt>
</event>
<event>
 6    1  0.1001928E-005  0.2978788E+04  0.7818608E-02  0.8249814E-01
         -2   -1    0    0    0  501 -0.00000000000E+00  0.00000000000E+00  0.11177259058E+04  0.11177259058E+04  0.00000000000E+00 0.  1.
          2   -1    0    0  501    0  0.00000000000E+00 -0.00000000000E+00 -0.19846493249E+04  0.19846493249E+04  0.00000000000E+00 0. -1.
         23    2    1    2    0    0  0.32176908510E+03 -0.13962788965E+04 -0.16287155868E+02  0.14360282820E+04  0.93711547579E+02 0.  0.
         13    1    3    3    0    0  0.24920099116E+03 -0.12031563653E+04 -0.32141933654E+02  0.12291132890E+04  0.00000000000E+00 0. -1.
        -13    1    3    3    0    0  0.72568093946E+02 -0.19312253124E+03  0.15854777786E+02  0.20691499295E+03  0.00000000000E+00 0.  1.
         22    1    1    2    0    0 -0.32176908510E+03  0.13962788965E+04 -0.85063626330E+03  0.16663469487E+04  0.00000000000E+00 0. -1.
<mgrwt>
<rscale>  0 0.29787876E+04</rscale>
<asrwt>0</asrwt>
<pdfrwt beam="1">  1        2 0.30533066E+00 0.29787876E+04</pdfrwt>
<pdfrwt beam="2">  1       -2 0.17195783E+00 0.29787876E+04</pdfrwt>
<totfact> 0.12062379E+00</totfact>
</mgrwt>
</event>
<event>
 6    1  0.1001928E-005  0.9360817E+03  0.7818608E-02  0.9381569E-01
          1   -1    0    0  501    0  0.00000000000E+00  0.00000000000E+00  0.11185520789E+04  0.11185520789E+04  0.00000000000E+00 0. -1.
         -1   -1    0    0    0  501 -0.00000000000E+00 -0.00000000000E+00 -0.19584446501E+03  0.19584446501E+03  0.00000000000E+00 0.  1.
         23    2    1    2    0    0 -0.10739889710E+03  0.22711925775E+03 -0.81724792879E+02  0.27902118197E+03  0.89756325027E+02 0.  0.
         13    1    3    3    0    0 -0.34655963925E+02  0.15807951972E+03 -0.24860565945E+02  0.16373215363E+03  0.00000000000E+00 0. -1.
        -13    1    3    3    0    0 -0.72742933172E+02  0.69039738020E+02 -0.56864226934E+02  0.11528902835E+03  0.00000000000E+00 0.  1.
         22    1    1    2    0    0  0.10739889710E+03 -0.22711925775E+03  0.10044324067E+04  0.10353753619E+04  0.00000000000E+00 0. -1.
<mgrwt>
<rscale>  0 0.93608169E+03</rscale>
<asrwt>0</asrwt>
<pdfrwt beam="1">  1        1 0.17208493E+00 0.93608169E+03</pdfrwt>
<pdfrwt beam="2">  1       -1 0.30129918E-01 0.93608169E+03</pdfrwt>
<totfact> 0.12491878E+02</totfact>
</mgrwt>
</event>
<event>
 6    1  0.1001928E-005  0.3370147E+04  0.7818608E-02  0.8145272E-01
         -2   -1    0    0    0  501 -0.00000000000E+00  0.00000000000E+00  0.12436856161E+04  0.12436856161E+04  0.00000000000E+00 0.  1.
          2   -1    0    0  501    0  0.00000000000E+00 -0.00000000000E+00 -0.22831114276E+04  0.22831114276E+04  0.00000000000E+00 0. -1.
         23    2    1    2    0    0  0.39353620402E+03  0.11852915718E+04  0.66206465401E+03  0.14161439082E+04  0.85715276257E+02 0.  0.
         11    1    3    3    0    0  0.16868212238E+03  0.38649965242E+03  0.20822708863E+03  0.47031283223E+03  0.00000000000E+00 0.  1.
        -11    1    3    3    0    0  0.22485408164E+03  0.79879191937E+03  0.45383756538E+03  0.94583107595E+03  0.00000000000E+00 0. -1.
         22    1    1    2    0    0 -0.39353620402E+03 -0.11852915718E+04 -0.17014904656E+04  0.21106531355E+04  0.00000000000E+00 0. -1.
<mgrwt>
<rscale>  0 0.33701471E+04</rscale>
<asrwt>0</asrwt>
<pdfrwt beam="1">  1        2 0.35124791E+00 0.33701471E+04</pdfrwt>
<pdfrwt beam="2">  1       -2 0.19133625E+00 0.33701471E+04</pdfrwt>
<totfact> 0.58439782E-01</totfact>
</mgrwt>
</event>
<event>
 6    1  0.1001928E-005  0.2901153E+04  0.7818608E-02  0.8272535E-01
         -4   -1    0    0    0  501 -0.00000000000E+00  0.00000000000E+00  0.11258150695E+04  0.11258150695E+04  0.00000000000E+00 0.  1.
          4   -1    0    0  501    0  0.00000000000E+00 -0.00000000000E+00 -0.18690206550E+04  0.18690206550E+04  0.00000000000E+00 0. -1.
         23    2    1    2    0    0 -0.12008405052E+04 -0.23272498683E+03  0.43019227630E+03  0.12998308925E+04  0.91192741662E+02 0.  0.
         13    1    3    3    0    0 -0.56623948546E+03 -0.80205603973E+02  0.23811018984E+03  0.61948087647E+03  0.00000000000E+00 0. -1.
        -13    1    3    3    0    0 -0.63460101970E+03 -0.15251938286E+03  0.19208208646E+03  0.68035001601E+03  0.00000000000E+00 0.  1.
         22    1    1    2    0    0  0.12008405052E+04  0.23272498683E+03 -0.11733978618E+04  0.16950048320E+04  0.00000000000E+00 0. -1.
<mgrwt>
<rscale>  0 0.29011526E+04</rscale>
<asrwt>0</asrwt>
<pdfrwt beam="1">  1        4 0.28754164E+00 0.29011526E+04</pdfrwt>
<pdfrwt beam="2">  1       -4 0.17320232E+00 0.29011526E+04</pdfrwt>
<totfact> 0.12709006E-02</totfact>
</mgrwt>
</event>
<event>
 6    1  0.1001928E-005  0.2186892E+04  0.7818608E-02  0.8523904E-01
         -1   -1    0    0    0  501 -0.00000000000E+00  0.00000000000E+00  0.11477255244E+04  0.11477255244E+04  0.00000000000E+00 0.  1.
          1   -1    0    0  501    0  0.00000000000E+00 -0.00000000000E+00 -0.10417335609E+04  0.10417335609E+04  0.00000000000E+00 0. -1.
         23    2    1    2    0    0  0.98478294472E+01  0.78735301047E+03 -0.70364521140E+03  0.10600636285E+04  0.92717689921E+02 0.  0.
         13    1    3    3    0    0 -0.39920364006E+02  0.38340201074E+03 -0.35855788937E+03  0.52645464888E+03  0.00000000000E+00 0. -1.
        -13    1    3    3    0    0  0.49768193453E+02  0.40395099973E+03 -0.34508732203E+03  0.53360897958E+03  0.00000000000E+00 0.  1.
         22    1    1    2    0    0 -0.98478294472E+01 -0.78735301047E+03  0.80963717495E+03  0.11293954568E+04  0.00000000000E+00 0.  1.
<mgrwt>
<rscale>  0 0.21868920E+04</rscale>
<asrwt>0</asrwt>
<pdfrwt beam="1">  1        1 0.16026670E+00 0.21868920E+04</pdfrwt>
<pdfrwt beam="2">  1       -1 0.17657316E+00 0.21868920E+04</pdfrwt>
<totfact> 0.28240781E+00</totfact>
</mgrwt>
</event>
<event>
 6    1  0.1001928E-005  0.5851975E+04  0.7818608E-02  0.7709031E-01
          1   -1    0    0  501    0  0.00000000000E+00  0.00000000000E+00  0.30461264526E+04  0.30461264526E+04  0.00000000000E+00 0. -1.
         -1   -1    0    0    0  501 -0.00000000000E+00 -0.00000000000E+00 -0.28105864158E+04  0.28105864158E+04  0.00000000000E+00 0.  1.
         23    2    1    2    0    0 -0.28792592519E+04  0.74152413622E+02 -0.39389238354E+03  0.29085240021E+04  0.93425054968E+02 0.  0.
         11    1    3    3    0    0 -0.54587597080E+03  0.22334585767E+00 -0.10898421299E+03  0.55664906724E+03  0.00000000000E+00 0.  1.
        -11    1    3    3    0    0 -0.23333832811E+04  0.73929067765E+02 -0.28490817055E+03  0.23518749348E+04  0.00000000000E+00 0. -1.
         22    1    1    2    0    0  0.28792592519E+04 -0.74152413622E+02  0.62943242031E+03  0.29481888664E+04  0.00000000000E+00 0.  1.
<mgrwt>
<rscale>  0 0.58519746E+04</rscale>
<asrwt>0</asrwt>
<pdfrwt beam="1">  1        1 0.46863484E+00 0.58519746E+04</pdfrwt>
<pdfrwt beam="2">  1       -1 0.43239791E+00 0.58519746E+04</pdfrwt>
<totfact> 0.16031432E-03</totfact>
</mgrwt>
</event>
<event>
 6    1  0.1001928E-005  0.1354890E+04  0.7818608E-02  0.8987135E-01
         -2   -1    0    0    0  501 -0.00000000000E+00  0.00000000000E+00  0.16502450224E+03  0.16502450224E+03  0.00000000000E+00 0.  1.
          2   -1    0    0  501    0  0.00000000000E+00 -0.00000000000E+00 -0.27809921650E+04  0.27809921650E+04  0.00000000000E+00 0. -1.
         23    2    1    2    0    0 -0.43047737143E+03 -0.26966088494E+03 -0.34939665280E+03  0.62322268081E+03  0.91108335040E+02 0.  0.
         11    1    3    3    0    0 -0.23504020637E+03 -0.93707909828E+02 -0.16639475304E+03  0.30284036193E+03  0.00000000000E+00 0. -1.
        -11    1    3    3    0    0 -0.19543716506E+03 -0.17595297512E+03 -0.18300189976E+03  0.32038231888E+03  0.00000000000E+00 0.  1.
         22    1    1    2    0    0  0.43047737143E+03  0.26966088494E+03 -0.22665710099E+04  0.23227939864E+04  0.00000000000E+00 0. -1.
<mgrwt>
<rscale>  0 0.13548902E+04</rscale>
<asrwt>0</asrwt>
<pdfrwt beam="1">  1        2 0.42784492E+00 0.13548902E+04</pdfrwt>
<pdfrwt beam="2">  1       -2 0.25388387E-01 0.13548902E+04</pdfrwt>
<totfact> 0.32574987E+01</totfact>
</mgrwt>
</event>
<event>
 6    1  0.1001928E-005  0.1665992E+04  0.7818608E-02  0.8781002E-01
          1   -1    0    0  501    0  0.00000000000E+00  0.00000000000E+00  0.57656698598E+03  0.57656698598E+03  0.00000000000E+00 0.  1.
         -1   -1    0    0    0  501 -0.00000000000E+00 -0.00000000000E+00 -0.12034717502E+04  0.12034717502E+04  0.00000000000E+00 0. -1.
         23    2    1    2    0    0 -0.69792108088E+02  0.71343343744E+03 -0.76249044480E+03  0.10504897763E+04  0.90988371299E+02 0.  0.
         11    1    3    3    0    0 -0.21937323371E+02  0.33213827160E+03 -0.29013847019E+03  0.44156246387E+03  0.00000000000E+00 0.  1.
        -11    1    3    3    0    0 -0.47854784717E+02  0.38129516584E+03 -0.47235197461E+03  0.60892731244E+03  0.00000000000E+00 0. -1.
         22    1    1    2    0    0  0.69792108088E+02 -0.71343343744E+03  0.13558568061E+03  0.72954895984E+03  0.00000000000E+00 0.  1.
<mgrwt>
<rscale>  0 0.16659917E+04</rscale>
<asrwt>0</asrwt>
<pdfrwt beam="1">  1        1 0.88702613E-01 0.16659917E+04</pdfrwt>
<pdfrwt beam="2">  1       -1 0.18514950E+00 0.16659917E+04</pdfrwt>
<totfact> 0.66173464E+00</totfact>
</mgrwt>
</event>
<event>
 6    1  0.1001928E-005  0.2177098E+04  0.7818608E-02  0.8528021E-01
         -2   -1    0    0    0  501 -0.00000000000E+00  0.00000000000E+00  0.28199543411E+03  0.28199543411E+03  0.00000000000E+00 0. -1.
          2   -1    0    0  501    0  0.00000000000E+00 -0.00000000000E+00 -0.42019779462E+04  0.42019779462E+04  0.00000000000E+00 0.  1.
         23    2    1    2    0    0  0.10305797372E+04  0.18296356408E+03 -0.13628269941E+04  0.17208927439E+04  0.92758609105E+02 0.  0.
         13    1    3    3    0    0  0.78713564991E+03  0.11393350288E+03 -0.98231368639E+03  0.12639238715E+04  0.00000000000E+00 0. -1.
        -13    1    3    3    0    0  0.24344408725E+03  0.69030061203E+02 -0.38051330774E+03  0.45696887239E+03  0.00000000000E+00 0.  1.
         22    1    1    2    0    0 -0.10305797372E+04 -0.18296356408E+03 -0.25571555180E+04  0.27630806365E+04  0.00000000000E+00 0.  1.
<mgrwt>
<rscale>  0 0.21770977E+04</rscale>
<asrwt>0</asrwt>
<pdfrwt beam="1">  1        2 0.64645810E+00 0.21770977E+04</pdfrwt>
<pdfrwt beam="2">  1       -2 0.43383916E-01 0.21770977E+04</pdfrwt>
<totfact> 0.10785403E+00</totfact>
</mgrwt>
</event>
<event>
 6    1  0.1001928E-005  0.5767077E+03  0.7818608E-02  0.9954944E-01
          1   -1    0    0  501    0  0.00000000000E+00  0.00000000000E+00  0.50622637728E+03  0.50622637728E+03  0.00000000000E+00 0.  1.
         -1   -1    0    0    0  501 -0.00000000000E+00 -0.00000000000E+00 -0.16425052381E+03  0.16425052381E+03  0.00000000000E+00 0. -1.
         23    2    1    2    0    0 -0.11010800064E+03 -0.24884494893E+02 -0.12443431167E+03  0.19060040444E+03  0.90008923778E+02 0.  0.
         11    1    3    3    0    0 -0.42002074665E+02  0.29636592506E+02 -0.73138419921E+02  0.89396478455E+02  0.00000000000E+00 0.  1.
        -11    1    3    3    0    0 -0.68105925975E+02 -0.54521087399E+02 -0.51295891753E+02  0.10120392599E+03  0.00000000000E+00 0. -1.
         22    1    1    2    0    0  0.11010800064E+03  0.24884494893E+02  0.46641016514E+03  0.47987649665E+03  0.00000000000E+00 0.  1.
<mgrwt>
<rscale>  0 0.57670772E+03</rscale>
<asrwt>0</asrwt>
<pdfrwt beam="1">  1        1 0.77880980E-01 0.57670772E+03</pdfrwt>
<pdfrwt beam="2">  1       -1 0.25269312E-01 0.57670772E+03</pdfrwt>
<totfact> 0.60449562E+02</totfact>
</mgrwt>
</event>
<event>
 6    1  0.1001928E-005  0.3807861E+04  0.7818608E-02  0.8044470E-01
         -2   -1    0    0    0  501 -0.00000000000E+00  0.00000000000E+00  0.22076510223E+04  0.22076510223E+04  0.00000000000E+00 0.  1.
          2   -1    0    0  501    0  0.00000000000E+00 -0.00000000000E+00 -0.16419950245E+04  0.16419950245E+04  0.00000000000E+00 0. -1.
         23    2    1    2    0    0  0.75728092073E+03 -0.39931941668E+03 -0.14350054945E+04  0.16735080006E+04  0.91966676403E+02 0.  0.
         11    1    3    3    0    0  0.20340961692E+03 -0.63460378010E+02 -0.37149269161E+03  0.42826336728E+03  0.00000000000E+00 0. -1.
        -11    1    3    3    0    0  0.55387130380E+03 -0.33585903867E+03 -0.10635128029E+04  0.12452446333E+04  0.00000000000E+00 0.  1.
         22    1    1    2    0    0 -0.75728092073E+03  0.39931941668E+03  0.20006614923E+04  0.21761380462E+04  0.00000000000E+00 0.  1.
<mgrwt>
<rscale>  0 0.38078613E+04</rscale>
<asrwt>0</asrwt>
<pdfrwt beam="1">  1        2 0.25261462E+00 0.38078613E+04</pdfrwt>
<pdfrwt beam="2">  1       -2 0.33963862E+00 0.38078613E+04</pdfrwt>
<totfact> 0.15297540E-01</totfact>
</mgrwt>
</event>
<event>
 6    1  0.1001928E-005  0.2364034E+04  0.7818608E-02  0.8453093E-01
          1   -1    0    0  501    0  0.00000000000E+00  0.00000000000E+00  0.11852311256E+04  0.11852311256E+04  0.00000000000E+00 0. -1.
         -1   -1    0    0    0  501 -0.00000000000E+00 -0.00000000000E+00 -0.11788114554E+04  0.11788114554E+04  0.00000000000E+00 0.  1.
         23    2    1    2    0    0  0.49198422676E+03 -0.10059812854E+04  0.37615554406E+03  0.11847413292E+04  0.89845411517E+02 0.  0.
         13    1    3    3    0    0  0.15300820419E+03 -0.37923033851E+03  0.10365706855E+03  0.42186721615E+03  0.00000000000E+00 0.  1.
        -13    1    3    3    0    0  0.33897602256E+03 -0.62675094685E+03  0.27249847551E+03  0.76287411308E+03  0.00000000000E+00 0. -1.
         22    1    1    2    0    0 -0.49198422676E+03  0.10059812854E+04 -0.36973587391E+03  0.11793012517E+04  0.00000000000E+00 0.  1.
<mgrwt>
<rscale>  0 0.23640339E+04</rscale>
<asrwt>0</asrwt>
<pdfrwt beam="1">  1        1 0.18234325E+00 0.23640339E+04</pdfrwt>
<pdfrwt beam="2">  1       -1 0.18135561E+00 0.23640339E+04</pdfrwt>
<totfact> 0.20041789E+00</totfact>
</mgrwt>
</event>
<event>
 6    1  0.1001928E-005  0.2505362E+04  0.7818608E-02  0.8401078E-01
          2   -1    0    0  501    0  0.00000000000E+00  0.00000000000E+00  0.16226114415E+04  0.16226114415E+04  0.00000000000E+00 0. -1.
         -2   -1    0    0    0  501 -0.00000000000E+00 -0.00000000000E+00 -0.96708936500E+03  0.96708936500E+03  0.00000000000E+00 0.  1.
         23    2    1    2    0    0 -0.45907768717E+03 -0.37581993186E+03 -0.81030796408E+03  0.10083562356E+04  0.90500592031E+02 0.  0.
         13    1    3    3    0    0 -0.29574966124E+03 -0.18666921638E+03 -0.49300926758E+03  0.60445959036E+03  0.00000000000E+00 0. -1.
        -13    1    3    3    0    0 -0.16332802593E+03 -0.18915071548E+03 -0.31729869651E+03  0.40389664523E+03  0.00000000000E+00 0.  1.
         22    1    1    2    0    0  0.45907768717E+03  0.37581993186E+03  0.14658300406E+04  0.15813445709E+04  0.00000000000E+00 0. -1.
<mgrwt>
<rscale>  0 0.25053625E+04</rscale>
<asrwt>0</asrwt>
<pdfrwt beam="1">  1        2 0.24963253E+00 0.25053625E+04</pdfrwt>
<pdfrwt beam="2">  1       -2 0.14878298E+00 0.25053625E+04</pdfrwt>
<totfact> 0.29568619E+00</totfact>
</mgrwt>
</event>
<event>
 6    1  0.1001928E-005  0.3700214E+04  0.7818608E-02  0.8067914E-01
         -1   -1    0    0    0  501 -0.00000000000E+00  0.00000000000E+00  0.17348249262E+04  0.17348249262E+04  0.00000000000E+00 0.  1.
          1   -1    0    0  501    0  0.00000000000E+00 -0.00000000000E+00 -0.19730500178E+04  0.19730500178E+04  0.00000000000E+00 0. -1.
         23    2    1    2    0    0  0.17074514630E+04  0.68145597783E+03 -0.31704041203E+03  0.18677704352E+04  0.90989162558E+02 0.  0.
         13    1    3    3    0    0  0.26560663974E+03  0.10911608310E+03 -0.83209796973E+02  0.29895999227E+03  0.00000000000E+00 0.  1.
        -13    1    3    3    0    0  0.14418448232E+04  0.57233989474E+03 -0.23383061505E+03  0.15688104430E+04  0.00000000000E+00 0. -1.
         22    1    1    2    0    0 -0.17074514630E+04 -0.68145597783E+03  0.78815320431E+02  0.18401045087E+04  0.00000000000E+00 0.  1.
<mgrwt>
<rscale>  0 0.37002142E+04</rscale>
<asrwt>0</asrwt>
<pdfrwt beam="1">  1        1 0.30354616E+00 0.37002142E+04</pdfrwt>
<pdfrwt beam="2">  1       -1 0.26689614E+00 0.37002142E+04</pdfrwt>
<totfact> 0.13497412E-01</totfact>
</mgrwt>
</event>
<event>
 6    1  0.1001928E-005  0.3480915E+04  0.7818608E-02  0.8118328E-01
         -1   -1    0    0    0  501 -0.00000000000E+00  0.00000000000E+00  0.21833001627E+04  0.21833001627E+04  0.00000000000E+00 0.  1.
          1   -1    0    0  501    0  0.00000000000E+00 -0.00000000000E+00 -0.13874374728E+04  0.13874374728E+04  0.00000000000E+00 0. -1.
         23    2    1    2    0    0 -0.10542237516E+04  0.12743771244E+04  0.95017755146E+03  0.19096422590E+04  0.92040232532E+02 0.  0.
         13    1    3    3    0    0 -0.87800824823E+03  0.11117870433E+04  0.80856436515E+03  0.16311790969E+04  0.00000000000E+00 0.  1.
        -13    1    3    3    0    0 -0.17621550333E+03  0.16259008107E+03  0.14161318632E+03  0.27846316205E+03  0.00000000000E+00 0. -1.
         22    1    1    2    0    0  0.10542237516E+04 -0.12743771244E+04 -0.15431486156E+03  0.16610953766E+04  0.00000000000E+00 0. -1.
<mgrwt>
<rscale>  0 0.34809151E+04</rscale>
<asrwt>0</asrwt>
<pdfrwt beam="1">  1        1 0.21345192E+00 0.34809151E+04</pdfrwt>
<pdfrwt beam="2">  1       -1 0.33589233E+00 0.34809151E+04</pdfrwt>
<totfact> 0.12333727E-01</totfact>
</mgrwt>
</event>
<event>
 6    1  0.1001928E-005  0.2644110E+04  0.7818608E-02  0.8353371E-01
         -2   -1    0    0    0  501 -0.00000000000E+00  0.00000000000E+00  0.23386653943E+04  0.23386653943E+04  0.00000000000E+00 0.  1.
          2   -1    0    0  501    0  0.00000000000E+00 -0.00000000000E+00 -0.74736189061E+03  0.74736189061E+03  0.00000000000E+00 0. -1.
         23    2    1    2    0    0  0.30549640391E+02  0.49601224033E+03  0.22245955268E+04  0.22810302603E+04  0.85512382127E+02 0.  0.
         13    1    3    3    0    0  0.10634138048E+02  0.15674618904E+02  0.16433210278E+03  0.16542012748E+03  0.00000000000E+00 0.  1.
        -13    1    3    3    0    0  0.19915502343E+02  0.48033762142E+03  0.20602634240E+04  0.21156101329E+04  0.00000000000E+00 0. -1.
         22    1    1    2    0    0 -0.30549640391E+02 -0.49601224033E+03 -0.63329202312E+03  0.80499702461E+03  0.00000000000E+00 0. -1.
<mgrwt>
<rscale>  0 0.26441100E+04</rscale>
<asrwt>0</asrwt>
<pdfrwt beam="1">  1        2 0.11497875E+00 0.26441100E+04</pdfrwt>
<pdfrwt beam="2">  1       -2 0.35979467E+00 0.26441100E+04</pdfrwt>
<totfact> 0.44790665E-01</totfact>
</mgrwt>
</event>
<event>
 6    1  0.1001928E-005  0.4106812E+04  0.7818608E-02  0.7983339E-01
         -1   -1    0    0    0  501 -0.00000000000E+00  0.00000000000E+00  0.12241013387E+04  0.12241013387E+04  0.00000000000E+00 0.  1.
          1   -1    0    0  501    0  0.00000000000E+00 -0.00000000000E+00 -0.34445476865E+04  0.34445476865E+04  0.00000000000E+00 0. -1.
         23    2    1    2    0    0  0.75701116483E+03 -0.99525286112E+03  0.73922198739E+03  0.14556705293E+04  0.94516569224E+02 0.  0.
         11    1    3    3    0    0  0.46644252899E+03 -0.67446216908E+03  0.51313636982E+03  0.96735556255E+03  0.00000000000E+00 0. -1.
        -11    1    3    3    0    0  0.29056863584E+03 -0.32079069204E+03  0.22608561757E+03  0.48831496671E+03  0.00000000000E+00 0.  1.
         22    1    1    2    0    0 -0.75701116483E+03  0.99525286112E+03 -0.29596683352E+04  0.32129784960E+04  0.00000000000E+00 0. -1.
<mgrwt>
<rscale>  0 0.41068116E+04</rscale>
<asrwt>0</asrwt>
<pdfrwt beam="1">  1        1 0.52993040E+00 0.41068116E+04</pdfrwt>
<pdfrwt beam="2">  1       -1 0.18832329E+00 0.41068116E+04</pdfrwt>
<totfact> 0.38860200E-02</totfact>
</mgrwt>
</event>
<event>
 6    1  0.1001928E-005  0.2818053E+04  0.7818608E-02  0.8297685E-01
          2   -1    0    0  501    0  0.00000000000E+00  0.00000000000E+00  0.37540497311E+04  0.37540497311E+04  0.00000000000E+00 0. -1.
         -2   -1    0    0    0  501 -0.00000000000E+00 -0.00000000000E+00 -0.52885715507E+03  0.52885715507E+03  0.00000000000E+00 0.  1.
         23    2    1    2    0    0  0.11738125194E+04 -0.49385587498E+03  0.70295828856E+03  0.14574166178E+04  0.90462071186E+02 0.  0.
         13    1    3    3    0    0  0.59144875033E+03 -0.22235070216E+03  0.39200740733E+03  0.74358675783E+03  0.00000000000E+00 0. -1.
        -13    1    3    3    0    0  0.58236376906E+03 -0.27150517283E+03  0.31095088122E+03  0.71382985992E+03  0.00000000000E+00 0.  1.
         22    1    1    2    0    0 -0.11738125194E+04  0.49385587498E+03  0.25222342875E+04  0.28254902684E+04  0.00000000000E+00 0.  1.
<mgrwt>
<rscale>  0 0.28180533E+04</rscale>
<asrwt>0</asrwt>
<pdfrwt beam="1">  1        2 0.57754610E+00 0.28180533E+04</pdfrwt>
<pdfrwt beam="2">  1       -2 0.81362642E-01 0.28180533E+04</pdfrwt>
<totfact> 0.61515629E-01</totfact>
</mgrwt>
</event>
<event>
 6    1  0.1001928E-005  0.3287172E+04  0.7818608E-02  0.8166167E-01
          1   -1    0    0  501    0  0.00000000000E+00  0.00000000000E+00  0.67326555127E+03  0.67326555127E+03  0.00000000000E+00 0. -1.
         -1   -1    0    0    0  501 -0.00000000000E+00 -0.00000000000E+00 -0.40123461502E+04  0.40123461502E+04  0.00000000000E+00 0.  1.
         23    2    1    2    0    0  0.53013998547E+03  0.15390326336E+04 -0.13563007854E+04  0.21202490292E+04  0.78957418047E+02 0.  0.
         11    1    3    3    0    0  0.91423860861E+02  0.32325087733E+03 -0.24681768152E+03  0.41685539452E+03  0.00000000000E+00 0. -1.
        -11    1    3    3    0    0  0.43871612460E+03  0.12157817562E+04 -0.11094831039E+04  0.17033936347E+04  0.00000000000E+00 0.  1.
         22    1    1    2    0    0 -0.53013998547E+03 -0.15390326336E+04 -0.19827798135E+04  0.25653626722E+04  0.00000000000E+00 0. -1.
<mgrwt>
<rscale>  0 0.32871717E+04</rscale>
<asrwt>0</asrwt>
<pdfrwt beam="1">  1        1 0.10357932E+00 0.32871717E+04</pdfrwt>
<pdfrwt beam="2">  1       -1 0.61728402E+00 0.32871717E+04</pdfrwt>
<totfact> 0.90191213E-03</totfact>
</mgrwt>
</event>
<event>
 6    1  0.1001928E-005  0.3012347E+04  0.7818608E-02  0.8240214E-01
          2   -1    0    0  501    0  0.00000000000E+00  0.00000000000E+00  0.31121544179E+04  0.31121544179E+04  0.00000000000E+00 0. -1.
         -2   -1    0    0    0  501 -0.00000000000E+00 -0.00000000000E+00 -0.72893494320E+03  0.72893494320E+03  0.00000000000E+00 0.  1.
         23    2    1    2    0    0 -0.13341396750E+04 -0.40276992006E+03  0.46896716958E+03  0.14732814786E+04  0.92064260203E+02 0.  0.
         11    1    3    3    0    0 -0.10939592509E+04 -0.36139552112E+03  0.36770272514E+03  0.12093629973E+04  0.00000000000E+00 0.  1.
        -11    1    3    3    0    0 -0.24018042413E+03 -0.41374398934E+02  0.10126444444E+03  0.26391848122E+03  0.00000000000E+00 0. -1.
         22    1    1    2    0    0  0.13341396750E+04  0.40276992006E+03  0.19142523051E+04  0.23678078825E+04  0.00000000000E+00 0. -1.
<mgrwt>
<rscale>  0 0.30123467E+04</rscale>
<asrwt>0</asrwt>
<pdfrwt beam="1">  1        2 0.47879298E+00 0.30123467E+04</pdfrwt>
<pdfrwt beam="2">  1       -2 0.11214384E+00 0.30123467E+04</pdfrwt>
<totfact> 0.79190976E-01</totfact>
</mgrwt>
</event>
<event>
 6    1  0.1001928E-005  0.1912419E+04  0.7818608E-02  0.8648699E-01
          2   -1    0    0  501    0  0.00000000000E+00  0.00000000000E+00  0.17997111321E+04  0.17997111321E+04  0.00000000000E+00 0. -1.
         -2   -1    0    0    0  501 -0.00000000000E+00 -0.00000000000E+00 -0.50804653085E+03  0.50804653085E+03  0.00000000000E+00 0.  1.
         23    2    1    2    0    0 -0.92570309312E+03 -0.18823691617E+03  0.80866566653E+03  0.12467923835E+04  0.90508199117E+02 0.  0.
         11    1    3    3    0    0 -0.39278925750E+03 -0.11809446617E+03  0.38253799264E+03  0.56086096277E+03  0.00000000000E+00 0.  1.
        -11    1    3    3    0    0 -0.53291383562E+03 -0.70142449993E+02  0.42612767389E+03  0.68593142073E+03  0.00000000000E+00 0. -1.
         22    1    1    2    0    0  0.92570309312E+03  0.18823691617E+03  0.48299893467E+03  0.10609652794E+04  0.00000000000E+00 0.  1.
<mgrwt>
<rscale>  0 0.19124194E+04</rscale>
<asrwt>0</asrwt>
<pdfrwt beam="1">  1        2 0.27687863E+00 0.19124194E+04</pdfrwt>
<pdfrwt beam="2">  1       -2 0.78161006E-01 0.19124194E+04</pdfrwt>
<totfact> 0.11761379E+01</totfact>
</mgrwt>
</event>
<event>
 6    1  0.1001928E-005  0.2496406E+04  0.7818608E-02  0.8404267E-01
          2   -1    0    0  501    0  0.00000000000E+00  0.00000000000E+00  0.23814989445E+04  0.23814989445E+04  0.00000000000E+00 0. -1.
         -2   -1    0    0    0  501 -0.00000000000E+00 -0.00000000000E+00 -0.65421426615E+03  0.65421426615E+03  0.00000000000E+00 0.  1.
         23    2    1    2    0    0 -0.52118320120E+03  0.10329702666E+04  0.30118394319E+03  0.11992974604E+04  0.94568123210E+02 0.  0.
         11    1    3    3    0    0 -0.16247087331E+03  0.32689181168E+03  0.50023031074E+02  0.36845263584E+03  0.00000000000E+00 0.  1.
        -11    1    3    3    0    0 -0.35871232788E+03  0.70607845495E+03  0.25116091212E+03  0.83084482456E+03  0.00000000000E+00 0. -1.
         22    1    1    2    0    0  0.52118320120E+03 -0.10329702666E+04  0.14261007351E+04  0.18364157502E+04  0.00000000000E+00 0. -1.
<mgrwt>
<rscale>  0 0.24964059E+04</rscale>
<asrwt>0</asrwt>
<pdfrwt beam="1">  1        2 0.36638445E+00 0.24964059E+04</pdfrwt>
<pdfrwt beam="2">  1       -2 0.10064835E+00 0.24964059E+04</pdfrwt>
<totfact> 0.29557187E+00</totfact>
</mgrwt>
</event>
<event>
 6    1  0.1001928E-005  0.4985616E+03  0.7818608E-02  0.1014155E+00
          2   -1    0    0  501    0  0.00000000000E+00  0.00000000000E+00  0.93236354223E+03  0.93236354223E+03  0.00000000000E+00 0.  1.
         -2   -1    0    0    0  501 -0.00000000000E+00 -0.00000000000E+00 -0.66648799626E+02  0.66648799626E+02  0.00000000000E+00 0. -1.
         23    2    1    2    0    0  0.13051792476E+03  0.20204805289E+03  0.47358584584E+03  0.53898689035E+03  0.91460211164E+02 0.  0.
         13    1    3    3    0    0 -0.66287296459E+01  0.36824675882E+02  0.11597754102E+03  0.12186380443E+03  0.00000000000E+00 0.  1.
        -13    1    3    3    0    0  0.13714665440E+03  0.16522337701E+03  0.35760830483E+03  0.41712308592E+03  0.00000000000E+00 0. -1.
         22    1    1    2    0    0 -0.13051792476E+03 -0.20204805289E+03  0.39212889676E+03  0.46002545151E+03  0.00000000000E+00 0. -1.
<mgrwt>
<rscale>  0 0.49856157E+03</rscale>
<asrwt>0</asrwt>
<pdfrwt beam="1">  1        2 0.14344054E+00 0.49856157E+03</pdfrwt>
<pdfrwt beam="2">  1       -2 0.10253662E-01 0.49856157E+03</pdfrwt>
<totfact> 0.18466213E+03</totfact>
</mgrwt>
</event>
<event>
 6    1  0.1001928E-005  0.1891874E+04  0.7818608E-02  0.8658912E-01
         -2   -1    0    0    0  501 -0.00000000000E+00  0.00000000000E+00  0.18045199668E+04  0.18045199668E+04  0.00000000000E+00 0.  1.
          2   -1    0    0  501    0  0.00000000000E+00 -0.00000000000E+00 -0.49586443677E+03  0.49586443677E+03  0.00000000000E+00 0. -1.
         23    2    1    2    0    0  0.32328042184E+02  0.31439880397E+03  0.17373623214E+04  0.17677670708E+04  0.81736594069E+02 0.  0.
         11    1    3    3    0    0  0.24873211132E+02  0.70660899880E+02  0.59294046623E+03  0.59765377594E+03  0.00000000000E+00 0. -1.
        -11    1    3    3    0    0  0.74548310524E+01  0.24373790409E+03  0.11444218551E+04  0.11701132949E+04  0.00000000000E+00 0.  1.
         22    1    1    2    0    0 -0.32328042184E+02 -0.31439880397E+03 -0.42870679131E+03  0.53261733276E+03  0.00000000000E+00 0. -1.
<mgrwt>
<rscale>  0 0.18918745E+04</rscale>
<asrwt>0</asrwt>
<pdfrwt beam="1">  1        2 0.76286837E-01 0.18918745E+04</pdfrwt>
<pdfrwt beam="2">  1       -2 0.27761845E+00 0.18918745E+04</pdfrwt>
<totfact> 0.25389915E+00</totfact>
</mgrwt>
</event>
<event>
 6    1  0.1001928E-005  0.2789997E+04  0.7818608E-02  0.8306381E-01
         -1   -1    0    0    0  501 -0.00000000000E+00  0.00000000000E+00  0.25114736411E+04  0.25114736411E+04  0.00000000000E+00 0.  1.
          1   -1    0    0  501    0  0.00000000000E+00 -0.00000000000E+00 -0.77485228572E+03  0.77485228572E+03  0.00000000000E+00 0. -1.
         23    2    1    2    0    0  0.59136392572E+03 -0.56792505413E+03  0.21964402510E+04  0.23462814723E+04  0.91852115975E+02 0.  0.
         11    1    3    3    0    0  0.10047250612E+02 -0.33502096193E+02  0.10926412595E+03  0.11472570294E+03  0.00000000000E+00 0.  1.
        -11    1    3    3    0    0  0.58131667511E+03 -0.53442295793E+03  0.20871761251E+04  0.22315557694E+04  0.00000000000E+00 0. -1.
         22    1    1    2    0    0 -0.59136392572E+03  0.56792505413E+03 -0.45981889562E+03  0.94004445454E+03  0.00000000000E+00 0. -1.
<mgrwt>
<rscale>  0 0.27899972E+04</rscale>
<asrwt>0</asrwt>
<pdfrwt beam="1">  1        1 0.11920804E+00 0.27899972E+04</pdfrwt>
<pdfrwt beam="2">  1       -1 0.38638056E+00 0.27899972E+04</pdfrwt>
<totfact> 0.17850518E-01</totfact>
</mgrwt>
</event>
<event>
 6    1  0.1001928E-005  0.6165173E+03  0.7818608E-02  0.9871718E-01
         -1   -1    0    0    0  501 -0.00000000000E+00  0.00000000000E+00  0.14245071623E+03  0.14245071623E+03  0.00000000000E+00 0.  1.
          1   -1    0    0  501    0  0.00000000000E+00 -0.00000000000E+00 -0.66706155686E+03  0.66706155686E+03  0.00000000000E+00 0. -1.
         23    2    1    2    0    0 -0.16166281957E+03 -0.53579150985E+02  0.59596267650E+02  0.20098656450E+03  0.88534125276E+02 0.  0.
         11    1    3    3    0    0 -0.23034551544E+02 -0.33213229775E+02  0.44410174831E+02  0.60049752918E+02  0.00000000000E+00 0.  1.
        -11    1    3    3    0    0 -0.13862826803E+03 -0.20365921209E+02  0.15186092819E+02  0.14093681158E+03  0.00000000000E+00 0. -1.
         22    1    1    2    0    0  0.16166281957E+03  0.53579150985E+02 -0.58420710828E+03  0.60852570859E+03  0.00000000000E+00 0. -1.
<mgrwt>
<rscale>  0 0.61651730E+03</rscale>
<asrwt>0</asrwt>
<pdfrwt beam="1">  1        1 0.10262486E+00 0.61651730E+03</pdfrwt>
<pdfrwt beam="2">  1       -1 0.21915494E-01 0.61651730E+03</pdfrwt>
<totfact> 0.51900732E+02</totfact>
</mgrwt>
</event>
<event>
 6    1  0.1001928E-005  0.4089885E+04  0.7818608E-02  0.7986655E-01
         -2   -1    0    0    0  501 -0.00000000000E+00  0.00000000000E+00  0.12032506151E+04  0.12032506151E+04  0.00000000000E+00 0.  1.
          2   -1    0    0  501    0  0.00000000000E+00 -0.00000000000E+00 -0.34754103530E+04  0.34754103530E+04  0.00000000000E+00 0. -1.
         23    2    1    2    0    0  0.77832725191E+03 -0.17250178689E+04 -0.25329587128E+03  0.19114798625E+04  0.90091660750E+02 0.  0.
         13    1    3    3    0    0  0.60104879120E+03 -0.12360992882E+04 -0.19132715072E+03  0.13877345490E+04  0.00000000000E+00 0. -1.
        -13    1    3    3    0    0  0.17727846071E+03 -0.48891858066E+03 -0.61968720559E+02  0.52374531356E+03  0.00000000000E+00 0.  1.
         22    1    1    2    0    0 -0.77832725191E+03  0.17250178689E+04 -0.20188638667E+04  0.27671811056E+04  0.00000000000E+00 0. -1.
<mgrwt>
<rscale>  0 0.40898849E+04</rscale>
<asrwt>0</asrwt>
<pdfrwt beam="1">  1        2 0.53467850E+00 0.40898849E+04</pdfrwt>
<pdfrwt beam="2">  1       -2 0.18511549E+00 0.40898849E+04</pdfrwt>
<totfact> 0.11059063E-01</totfact>
</mgrwt>
</event>
<event>
 6    1  0.1001928E-005  0.2462908E+04  0.7818608E-02  0.8416320E-01
         -2   -1    0    0    0  501 -0.00000000000E+00  0.00000000000E+00  0.19964476257E+04  0.19964476257E+04  0.00000000000E+00 0.  1.
          2   -1    0    0  501    0  0.00000000000E+00 -0.00000000000E+00 -0.75958866757E+03  0.75958866757E+03  0.00000000000E+00 0. -1.
         23    2    1    2    0    0 -0.97683358357E+03  0.52840535707E+02  0.14529236703E+04  0.17541980169E+04  0.96059974815E+02 0.  0.
         13    1    3    3    0    0 -0.86290874499E+03  0.66146553692E+02  0.13226116219E+04  0.15805974728E+04  0.00000000000E+00 0. -1.
        -13    1    3    3    0    0 -0.11392483858E+03 -0.13306017985E+02  0.13031204839E+03  0.17360054412E+03  0.00000000000E+00 0.  1.
         22    1    1    2    0    0  0.97683358357E+03 -0.52840535707E+02 -0.21606471210E+03  0.10018382764E+04  0.00000000000E+00 0.  1.
<mgrwt>
<rscale>  0 0.24629080E+04</rscale>
<asrwt>0</asrwt>
<pdfrwt beam="1">  1        2 0.11685980E+00 0.24629080E+04</pdfrwt>
<pdfrwt beam="2">  1       -2 0.30714579E+00 0.24629080E+04</pdfrwt>
<totfact> 0.94835229E-01</totfact>
</mgrwt>
</event>
<event>
 6    1  0.1001928E-005  0.6281390E+04  0.7818608E-02  0.7656459E-01
         -2   -1    0    0    0  501 -0.00000000000E+00  0.00000000000E+00  0.26677362830E+04  0.26677362830E+04  0.00000000000E+00 0.  1.
          2   -1    0    0  501    0  0.00000000000E+00 -0.00000000000E+00 -0.36975038362E+04  0.36975038362E+04  0.00000000000E+00 0. -1.
         23    2    1    2    0    0 -0.14975341648E+04 -0.28773707529E+03 -0.32965573189E+04  0.36332560342E+04  0.88645667073E+02 0.  0.
         11    1    3    3    0    0 -0.97328314035E+03 -0.17118484346E+03 -0.20407215041E+04  0.22674056936E+04  0.00000000000E+00 0. -1.
        -11    1    3    3    0    0 -0.52425102446E+03 -0.11655223183E+03 -0.12558358147E+04  0.13658503406E+04  0.00000000000E+00 0.  1.
         22    1    1    2    0    0  0.14975341648E+04  0.28773707529E+03  0.22667897656E+04  0.27319840850E+04  0.00000000000E+00 0.  1.
<mgrwt>
<rscale>  0 0.62813900E+04</rscale>
<asrwt>0</asrwt>
<pdfrwt beam="1">  1        2 0.56884674E+00 0.62813900E+04</pdfrwt>
<pdfrwt beam="2">  1       -2 0.41042097E+00 0.62813900E+04</pdfrwt>
<totfact> 0.24452250E-03</totfact>
</mgrwt>
</event>
<event>
 6    1  0.1001928E-005  0.2678733E+04  0.7818608E-02  0.8341938E-01
          1   -1    0    0  501    0  0.00000000000E+00  0.00000000000E+00  0.17873693411E+04  0.17873693411E+04  0.00000000000E+00 0.  1.
         -1   -1    0    0    0  501 -0.00000000000E+00 -0.00000000000E+00 -0.10036554330E+04  0.10036554330E+04  0.00000000000E+00 0. -1.
         23    2    1    2    0    0  0.44112156042E+03  0.97771087967E+03  0.12253861191E+04  0.16310329046E+04  0.90500826274E+02 0.  0.
         13    1    3    3    0    0  0.42665056153E+03  0.90931472679E+03  0.11687648454E+04  0.15410695110E+04  0.00000000000E+00 0. -1.
        -13    1    3    3    0    0  0.14470998890E+02  0.68396152885E+02  0.56621273737E+02  0.89963393544E+02  0.00000000000E+00 0.  1.
         22    1    1    2    0    0 -0.44112156042E+03 -0.97771087967E+03 -0.44167221099E+03  0.11599918695E+04  0.00000000000E+00 0. -1.
<mgrwt>
<rscale>  0 0.26787332E+04</rscale>
<asrwt>0</asrwt>
<pdfrwt beam="1">  1        1 0.27497990E+00 0.26787332E+04</pdfrwt>
<pdfrwt beam="2">  1       -1 0.15440853E+00 0.26787332E+04</pdfrwt>
<totfact> 0.11721935E+00</totfact>
</mgrwt>
</event>
<event>
 6    1  0.1001928E-005  0.4546735E+04  0.7818608E-02  0.7902506E-01
          2   -1    0    0  501    0  0.00000000000E+00  0.00000000000E+00  0.28970919123E+04  0.28970919123E+04  0.00000000000E+00 0. -1.
         -2   -1    0    0    0  501 -0.00000000000E+00 -0.00000000000E+00 -0.17839266248E+04  0.17839266248E+04  0.00000000000E+00 0.  1.
         23    2    1    2    0    0 -0.14079402949E+04  0.13544325897E+03 -0.12743491640E+04  0.19059751129E+04  0.90191955267E+02 0.  0.
         11    1    3    3    0    0 -0.43983661603E+03  0.26857779964E+02 -0.34550979842E+03  0.55995947170E+03  0.00000000000E+00 0. -1.
        -11    1    3    3    0    0 -0.96810367889E+03  0.10858547901E+03 -0.92883936556E+03  0.13460156412E+04  0.00000000000E+00 0.  1.
         22    1    1    2    0    0  0.14079402949E+04 -0.13544325897E+03  0.23875144515E+04  0.27750434242E+04  0.00000000000E+00 0. -1.
<mgrwt>
<rscale>  0 0.45467348E+04</rscale>
<asrwt>0</asrwt>
<pdfrwt beam="1">  1        2 0.44570645E+00 0.45467348E+04</pdfrwt>
<pdfrwt beam="2">  1       -2 0.27445025E+00 0.45467348E+04</pdfrwt>
<totfact> 0.69305622E-02</totfact>
</mgrwt>
</event>
<event>
 6    1  0.1001928E-005  0.1851620E+04  0.7818608E-02  0.8679320E-01
          2   -1    0    0  501    0  0.00000000000E+00  0.00000000000E+00  0.30608330875E+04  0.30608330875E+04  0.00000000000E+00 0.  1.
         -2   -1    0    0    0  501 -0.00000000000E+00 -0.00000000000E+00 -0.28002957345E+03  0.28002957345E+03  0.00000000000E+00 0. -1.
         23    2    1    2    0    0  0.87939846892E+03 -0.26793913374E+03  0.12345377941E+04  0.15419544578E+04  0.91689358348E+02 0.  0.
         13    1    3    3    0    0  0.34014261352E+03 -0.10155288629E+03  0.40362573335E+03  0.53751624986E+03  0.00000000000E+00 0. -1.
        -13    1    3    3    0    0  0.53925585541E+03 -0.16638624746E+03  0.83091206075E+03  0.10044382080E+04  0.00000000000E+00 0.  1.
         22    1    1    2    0    0 -0.87939846892E+03  0.26793913374E+03  0.15462657200E+04  0.17989082031E+04  0.00000000000E+00 0. -1.
<mgrwt>
<rscale>  0 0.18516196E+04</rscale>
<asrwt>0</asrwt>
<pdfrwt beam="1">  1        2 0.47089738E+00 0.18516196E+04</pdfrwt>
<pdfrwt beam="2">  1       -2 0.43081475E-01 0.18516196E+04</pdfrwt>
<totfact> 0.76843699E+00</totfact>
</mgrwt>
</event>
<event>
 6    1  0.1001928E-005  0.2325720E+04  0.7818608E-02  0.8467848E-01
         -1   -1    0    0    0  501 -0.00000000000E+00  0.00000000000E+00  0.86348535812E+03  0.86348535812E+03  0.00000000000E+00 0.  1.
          1   -1    0    0  501    0  0.00000000000E+00 -0.00000000000E+00 -0.15660298204E+04  0.15660298204E+04  0.00000000000E+00 0. -1.
         23    2    1    2    0    0  0.55961641660E+03  0.30751841790E+02  0.71038387859E+03  0.90948797287E+03  0.91689194147E+02 0.  0.
         11    1    3    3    0    0  0.11714276048E+03  0.44190606041E+02  0.16068913725E+03  0.20370624641E+03  0.00000000000E+00 0. -1.
        -11    1    3    3    0    0  0.44247365612E+03 -0.13438764251E+02  0.54969474134E+03  0.70578172646E+03  0.00000000000E+00 0.  1.
         22    1    1    2    0    0 -0.55961641660E+03 -0.30751841790E+02 -0.14129283408E+04  0.15200272056E+04  0.00000000000E+00 0. -1.
<mgrwt>
<rscale>  0 0.23257204E+04</rscale>
<asrwt>0</asrwt>
<pdfrwt beam="1">  1        1 0.24092766E+00 0.23257204E+04</pdfrwt>
<pdfrwt beam="2">  1       -1 0.13284390E+00 0.23257204E+04</pdfrwt>
<totfact> 0.25493687E+00</totfact>
</mgrwt>
</event>
<event>
 6    1  0.1001928E-005  0.1709638E+04  0.7818608E-02  0.8755887E-01
          1   -1    0    0  501    0  0.00000000000E+00  0.00000000000E+00  0.14247487913E+04  0.14247487913E+04  0.00000000000E+00 0. -1.
         -1   -1    0    0    0  501 -0.00000000000E+00 -0.00000000000E+00 -0.51287299486E+03  0.51287299486E+03  0.00000000000E+00 0.  1.
         23    2    1    2    0    0 -0.18922343012E+03  0.54367000065E+03  0.11696567656E+04  0.13068812657E+04  0.91973458919E+02 0.  0.
         13    1    3    3    0    0 -0.52644767584E+02  0.23667008099E+03  0.57163593701E+03  0.62092821104E+03  0.00000000000E+00 0. -1.
        -13    1    3    3    0    0 -0.13657866253E+03  0.30699991966E+03  0.59802082864E+03  0.68595305468E+03  0.00000000000E+00 0.  1.
         22    1    1    2    0    0  0.18922343012E+03 -0.54367000065E+03 -0.25778096916E+03  0.63074052048E+03  0.00000000000E+00 0.  1.
<mgrwt>
<rscale>  0 0.17096376E+04</rscale>
<asrwt>0</asrwt>
<pdfrwt beam="1">  1        1 0.21919212E+00 0.17096376E+04</pdfrwt>
<pdfrwt beam="2">  1       -1 0.78903538E-01 0.17096376E+04</pdfrwt>
<totfact> 0.11274802E+01</totfact>
</mgrwt>
</event>
<event>
 6    1  0.1001928E-005  0.4092710E+04  0.7818608E-02  0.7986101E-01
         -1   -1    0    0    0  501 -0.00000000000E+00  0.00000000000E+00  0.28083649864E+04  0.28083649864E+04  0.00000000000E+00 0.  1.
          1   -1    0    0  501    0  0.00000000000E+00 -0.00000000000E+00 -0.14911052870E+04  0.14911052870E+04  0.00000000000E+00 0. -1.
         23    2    1    2    0    0  0.20098105344E+04  0.29964528016E+03  0.90077282705E+03  0.22252024525E+04  0.10492182999E+03 0.  0.
         13    1    3    3    0    0  0.66156607779E+03  0.56687434865E+02  0.26526735875E+03  0.71501742089E+03  0.00000000000E+00 0.  1.
        -13    1    3    3    0    0  0.13482444566E+04  0.24295784529E+03  0.63550546830E+03  0.15101850316E+04  0.00000000000E+00 0. -1.
         22    1    1    2    0    0 -0.20098105344E+04 -0.29964528016E+03  0.41648687237E+03  0.20742678209E+04  0.00000000000E+00 0.  1.
<mgrwt>
<rscale>  0 0.40927096E+04</rscale>
<asrwt>0</asrwt>
<pdfrwt beam="1">  1        1 0.22940081E+00 0.40927096E+04</pdfrwt>
<pdfrwt beam="2">  1       -1 0.43205615E+00 0.40927096E+04</pdfrwt>
<totfact> 0.22178612E-02</totfact>
</mgrwt>
</event>
<event>
 6    1  0.1001928E-005  0.1648266E+04  0.7818608E-02  0.8791433E-01
         -2   -1    0    0    0  501 -0.00000000000E+00  0.00000000000E+00  0.28513263407E+03  0.28513263407E+03  0.00000000000E+00 0.  1.
          2   -1    0    0  501    0  0.00000000000E+00 -0.00000000000E+00 -0.23820338553E+04  0.23820338553E+04  0.00000000000E+00 0. -1.
         23    2    1    2    0    0 -0.61362151101E+03 -0.26935380236E+03 -0.18211948793E+04  0.19425308453E+04  0.87134763874E+02 0.  0.
         13    1    3    3    0    0 -0.32531901114E+03 -0.12590226606E+03 -0.82949918068E+03  0.89986261749E+03  0.00000000000E+00 0. -1.
        -13    1    3    3    0    0 -0.28830249986E+03 -0.14345153629E+03 -0.99169569859E+03  0.10426682278E+04  0.00000000000E+00 0.  1.
         22    1    1    2    0    0  0.61362151101E+03  0.26935380236E+03 -0.27570634193E+03  0.72463564403E+03  0.00000000000E+00 0.  1.
<mgrwt>
<rscale>  0 0.16482665E+04</rscale>
<asrwt>0</asrwt>
<pdfrwt beam="1">  1        2 0.36646672E+00 0.16482665E+04</pdfrwt>
<pdfrwt beam="2">  1       -2 0.43866562E-01 0.16482665E+04</pdfrwt>
<totfact> 0.19191841E+01</totfact>
</mgrwt>
</event>
<event>
 6    1  0.1001928E-005  0.3347267E+04  0.7818608E-02  0.8150971E-01
         -2   -1    0    0    0  501 -0.00000000000E+00  0.00000000000E+00  0.28022468564E+04  0.28022468564E+04  0.00000000000E+00 0.  1.
          2   -1    0    0  501    0  0.00000000000E+00 -0.00000000000E+00 -0.99957257601E+03  0.99957257601E+03  0.00000000000E+00 0. -1.
         23    2    1    2    0    0  0.17625683171E+03  0.15666549150E+04  0.26823596054E+03  0.16018251027E+04  0.91755302346E+02 0.  0.
         13    1    3    3    0    0  0.60007851669E+02  0.83240484542E+03  0.11009984648E+03  0.84179614227E+03  0.00000000000E+00 0. -1.
        -13    1    3    3    0    0  0.11624898004E+03  0.73425006960E+03  0.15813611406E+03  0.76002896039E+03  0.00000000000E+00 0.  1.
         22    1    1    2    0    0 -0.17625683171E+03 -0.15666549150E+04  0.15344383198E+04  0.21999943297E+04  0.00000000000E+00 0.  1.
<mgrwt>
<rscale>  0 0.33472670E+04</rscale>
<asrwt>0</asrwt>
<pdfrwt beam="1">  1        2 0.15378040E+00 0.33472670E+04</pdfrwt>
<pdfrwt beam="2">  1       -2 0.43111490E+00 0.33472670E+04</pdfrwt>
<totfact> 0.96959632E-02</totfact>
</mgrwt>
</event>
<event>
 6    1  0.1001928E-005  0.1790509E+04  0.7818608E-02  0.8711363E-01
         -1   -1    0    0    0  501 -0.00000000000E+00  0.00000000000E+00  0.42367244715E+03  0.42367244715E+03  0.00000000000E+00 0.  1.
          1   -1    0    0  501    0  0.00000000000E+00 -0.00000000000E+00 -0.18917456710E+04  0.18917456710E+04  0.00000000000E+00 0. -1.
         23    2    1    2    0    0 -0.57746250305E+03  0.47183307140E+03 -0.10035736070E+03  0.75761964852E+03  0.88467747125E+02 0.  0.
         11    1    3    3    0    0 -0.33302498732E+03  0.30974895065E+03 -0.28773415941E+02  0.45571697804E+03  0.00000000000E+00 0. -1.
        -11    1    3    3    0    0 -0.24443751573E+03  0.16208412074E+03 -0.71583944759E+02  0.30190267048E+03  0.00000000000E+00 0.  1.
         22    1    1    2    0    0  0.57746250305E+03 -0.47183307140E+03 -0.13677158631E+04  0.15577984696E+04  0.00000000000E+00 0. -1.
<mgrwt>
<rscale>  0 0.17905089E+04</rscale>
<asrwt>0</asrwt>
<pdfrwt beam="1">  1        1 0.29103779E+00 0.17905089E+04</pdfrwt>
<pdfrwt beam="2">  1       -1 0.65180377E-01 0.17905089E+04</pdfrwt>
<totfact> 0.79537299E+00</totfact>
</mgrwt>
</event>
<event>
 6    1  0.1001928E-005  0.1771472E+04  0.7818608E-02  0.8721619E-01
          1   -1    0    0  501    0  0.00000000000E+00  0.00000000000E+00  0.52720526540E+03  0.52720526540E+03  0.00000000000E+00 0. -1.
         -1   -1    0    0    0  501 -0.00000000000E+00 -0.00000000000E+00 -0.14880885195E+04  0.14880885195E+04  0.00000000000E+00 0.  1.
         23    2    1    2    0    0  0.59601304716E+03 -0.17420212661E+03 -0.11964724542E+04  0.13511550912E+04  0.92172737141E+02 0.  0.
         11    1    3    3    0    0  0.37619597954E+03 -0.15188286662E+03 -0.73567253223E+03  0.84012254754E+03  0.00000000000E+00 0.  1.
        -11    1    3    3    0    0  0.21981706761E+03 -0.22319259996E+02 -0.46079992198E+03  0.51103254366E+03  0.00000000000E+00 0. -1.
         22    1    1    2    0    0 -0.59601304716E+03  0.17420212661E+03  0.23558920009E+03  0.66413869372E+03  0.00000000000E+00 0. -1.
<mgrwt>
<rscale>  0 0.17714718E+04</rscale>
<asrwt>0</asrwt>
<pdfrwt beam="1">  1        1 0.81108503E-01 0.17714718E+04</pdfrwt>
<pdfrwt beam="2">  1       -1 0.22893669E+00 0.17714718E+04</pdfrwt>
<totfact> 0.37359855E+00</totfact>
</mgrwt>
</event>
<event>
 6    1  0.1001928E-005  0.1131823E+04  0.7818608E-02  0.9174718E-01
          1   -1    0    0  501    0  0.00000000000E+00  0.00000000000E+00  0.17228081145E+04  0.17228081145E+04  0.00000000000E+00 0. -1.
         -1   -1    0    0    0  501 -0.00000000000E+00 -0.00000000000E+00 -0.18589184323E+03  0.18589184323E+03  0.00000000000E+00 0.  1.
         23    2    1    2    0    0 -0.35384594790E+03  0.39277802261E+03  0.10980342245E+04  0.12216053639E+04  0.84610738449E+02 0.  0.
         11    1    3    3    0    0 -0.85903339368E+02  0.14483519570E+03  0.39631512812E+03  0.43060689545E+03  0.00000000000E+00 0.  1.
        -11    1    3    3    0    0 -0.26794260853E+03  0.24794282691E+03  0.70171909635E+03  0.79099846843E+03  0.00000000000E+00 0. -1.
         22    1    1    2    0    0  0.35384594790E+03 -0.39277802261E+03  0.43888204680E+03  0.68709459385E+03  0.00000000000E+00 0.  1.
<mgrwt>
<rscale>  0 0.11318233E+04</rscale>
<asrwt>0</asrwt>
<pdfrwt beam="1">  1        1 0.26504739E+00 0.11318233E+04</pdfrwt>
<pdfrwt beam="2">  1       -1 0.28598746E-01 0.11318233E+04</pdfrwt>
<totfact> 0.50769313E+01</totfact>
</mgrwt>
</event>
<event>
 6    1  0.1001928E-005  0.3542367E+04  0.7818608E-02  0.8103822E-01
          1   -1    0    0  501    0  0.00000000000E+00  0.00000000000E+00  0.21443832100E+04  0.21443832100E+04  0.00000000000E+00 0. -1.
         -1   -1    0    0    0  501 -0.00000000000E+00 -0.00000000000E+00 -0.14629336569E+04  0.14629336569E+04  0.00000000000E+00 0.  1.
         23    2    1    2    0    0  0.89896220154E+03  0.22135460158E+03 -0.11951887703E+04  0.15147341812E+04  0.93875148409E+02 0.  0.
         11    1    3    3    0    0  0.32394196525E+03  0.57074171273E+02 -0.48918613704E+03  0.58949040242E+03  0.00000000000E+00 0.  1.
        -11    1    3    3    0    0  0.57502023629E+03  0.16428043031E+03 -0.70600263328E+03  0.92524377876E+03  0.00000000000E+00 0. -1.
         22    1    1    2    0    0 -0.89896220154E+03 -0.22135460158E+03  0.18766383234E+04  0.20925826857E+04  0.00000000000E+00 0. -1.
<mgrwt>
<rscale>  0 0.35423667E+04</rscale>
<asrwt>0</asrwt>
<pdfrwt beam="1">  1        1 0.32990511E+00 0.35423667E+04</pdfrwt>
<pdfrwt beam="2">  1       -1 0.22506672E+00 0.35423667E+04</pdfrwt>
<totfact> 0.19674310E-01</totfact>
</mgrwt>
</event>
<event>
 6    1  0.1001928E-005  0.2035122E+04  0.7818608E-02  0.8590374E-01
         -1   -1    0    0    0  501 -0.00000000000E+00  0.00000000000E+00  0.50463701979E+03  0.50463701979E+03  0.00000000000E+00 0.  1.
          1   -1    0    0  501    0  0.00000000000E+00 -0.00000000000E+00 -0.20518310300E+04  0.20518310300E+04  0.00000000000E+00 0. -1.
         23    2    1    2    0    0 -0.90529824049E+03 -0.30080092235E+03 -0.12156570239E+04  0.15465359370E+04  0.62492444409E+02 0.  0.
         11    1    3    3    0    0 -0.24533635422E+03 -0.10757446555E+03 -0.31959856983E+03  0.41701970958E+03  0.00000000000E+00 0.  1.
        -11    1    3    3    0    0 -0.65996188627E+03 -0.19322645680E+03 -0.89605845404E+03  0.11295162274E+04  0.00000000000E+00 0. -1.
         22    1    1    2    0    0  0.90529824049E+03  0.30080092235E+03 -0.33153698633E+03  0.10099321128E+04  0.00000000000E+00 0.  1.
<mgrwt>
<rscale>  0 0.20351215E+04</rscale>
<asrwt>0</asrwt>
<pdfrwt beam="1">  1        1 0.31566631E+00 0.20351215E+04</pdfrwt>
<pdfrwt beam="2">  1       -1 0.77636464E-01 0.20351215E+04</pdfrwt>
<totfact> 0.42249043E+00</totfact>
</mgrwt>
</event>
<event>
 6    1  0.1001928E-005  0.3493890E+04  0.7818608E-02  0.8115239E-01
          2   -1    0    0  501    0  0.00000000000E+00  0.00000000000E+00  0.21070361139E+04  0.21070361139E+04  0.00000000000E+00 0. -1.
         -2   -1    0    0    0  501 -0.00000000000E+00 -0.00000000000E+00 -0.14483934211E+04  0.14483934211E+04  0.00000000000E+00 0.  1.
         23    2    1    2    0    0  0.55560580993E+03 -0.14889846250E+04  0.10646330856E+04  0.19151243108E+04  0.92111288087E+02 0.  0.
         13    1    3    3    0    0  0.24749394709E+03 -0.59476396972E+03  0.47773060627E+03  0.80201244734E+03  0.00000000000E+00 0.  1.
        -13    1    3    3    0    0  0.30811186284E+03 -0.89422065532E+03  0.58690247932E+03  0.11131118635E+04  0.00000000000E+00 0. -1.
         22    1    1    2    0    0 -0.55560580993E+03  0.14889846250E+04 -0.40599039279E+03  0.16403052242E+04  0.00000000000E+00 0.  1.
<mgrwt>
<rscale>  0 0.34938902E+04</rscale>
<asrwt>0</asrwt>
<pdfrwt beam="1">  1        2 0.32415940E+00 0.34938902E+04</pdfrwt>
<pdfrwt beam="2">  1       -2 0.22282976E+00 0.34938902E+04</pdfrwt>
<totfact> 0.45405374E-01</totfact>
</mgrwt>
</event>
<event>
 6    1  0.1001928E-005  0.3396969E+04  0.7818608E-02  0.8138651E-01
          2   -1    0    0  501    0  0.00000000000E+00  0.00000000000E+00  0.25799077606E+04  0.25799077606E+04  0.00000000000E+00 0. -1.
         -2   -1    0    0    0  501 -0.00000000000E+00 -0.00000000000E+00 -0.11181986683E+04  0.11181986683E+04  0.00000000000E+00 0.  1.
         23    2    1    2    0    0  0.15597657148E+04 -0.77157139701E+02  0.14549398418E+04  0.21364188378E+04  0.92807317485E+02 0.  0.
         11    1    3    3    0    0  0.50539079373E+03 -0.51295257895E+02  0.42622103021E+03  0.66311041649E+03  0.00000000000E+00 0.  1.
        -11    1    3    3    0    0  0.10543749210E+04 -0.25861881806E+02  0.10287188115E+04  0.14733084213E+04  0.00000000000E+00 0. -1.
         22    1    1    2    0    0 -0.15597657148E+04  0.77157139701E+02  0.67692505615E+01  0.15616875910E+04  0.00000000000E+00 0.  1.
<mgrwt>
<rscale>  0 0.33969689E+04</rscale>
<asrwt>0</asrwt>
<pdfrwt beam="1">  1        2 0.39690888E+00 0.33969689E+04</pdfrwt>
<pdfrwt beam="2">  1       -2 0.17203057E+00 0.33969689E+04</pdfrwt>
<totfact> 0.53412886E-01</totfact>
</mgrwt>
</event>
<event>
 6    1  0.1001928E-005  0.3539035E+04  0.7818608E-02  0.8104601E-01
         -2   -1    0    0    0  501 -0.00000000000E+00  0.00000000000E+00  0.18095951059E+04  0.18095951059E+04  0.00000000000E+00 0.  1.
          2   -1    0    0  501    0  0.00000000000E+00 -0.00000000000E+00 -0.17303277832E+04  0.17303277832E+04  0.00000000000E+00 0. -1.
         23    2    1    2    0    0 -0.28427278131E+03  0.17437860113E+04  0.11094558537E+03  0.17728337064E+04  0.95025051132E+02 0.  0.
         13    1    3    3    0    0 -0.11826368927E+03  0.60140130512E+03 -0.21529294361E+01  0.61292288676E+03  0.00000000000E+00 0.  1.
        -13    1    3    3    0    0 -0.16600909204E+03  0.11423847061E+04  0.11309851481E+03  0.11599108196E+04  0.00000000000E+00 0. -1.
         22    1    1    2    0    0  0.28427278131E+03 -0.17437860113E+04 -0.31678262757E+02  0.17670891827E+04  0.00000000000E+00 0.  1.
<mgrwt>
<rscale>  0 0.35390353E+04</rscale>
<asrwt>0</asrwt>
<pdfrwt beam="1">  1        2 0.26620427E+00 0.35390353E+04</pdfrwt>
<pdfrwt beam="2">  1       -2 0.27839925E+00 0.35390353E+04</pdfrwt>
<totfact> 0.33278969E-01</totfact>
</mgrwt>
</event>
<event>
 6    1  0.1001928E-005  0.3389922E+04  0.7818608E-02  0.8140384E-01
         -1   -1    0    0    0  501 -0.00000000000E+00  0.00000000000E+00  0.40049927401E+04  0.40049927401E+04  0.00000000000E+00 0.  1.
          1   -1    0    0  501    0  0.00000000000E+00 -0.00000000000E+00 -0.71732767487E+03  0.71732767487E+03  0.00000000000E+00 0. -1.
         23    2    1    2    0    0 -0.17762407162E+03 -0.86212131737E+03 -0.37090833066E+03  0.95934781743E+03  0.89284760013E+02 0.  0.
         11    1    3    3    0    0 -0.97396851875E+02 -0.44375095202E+03 -0.23932532631E+03  0.51349553648E+03  0.00000000000E+00 0. -1.
        -11    1    3    3    0    0 -0.80227219748E+02 -0.41837036535E+03 -0.13158300434E+03  0.44585228094E+03  0.00000000000E+00 0.  1.
         22    1    1    2    0    0  0.17762407162E+03  0.86212131737E+03  0.36585733959E+04  0.37629725975E+04  0.00000000000E+00 0.  1.
<mgrwt>
<rscale>  0 0.33899216E+04</rscale>
<asrwt>0</asrwt>
<pdfrwt beam="1">  1        1 0.11035811E+00 0.33899216E+04</pdfrwt>
<pdfrwt beam="2">  1       -1 0.61615272E+00 0.33899216E+04</pdfrwt>
<totfact> 0.82083446E-03</totfact>
</mgrwt>
</event>
<event>
 6    1  0.1001928E-005  0.4984502E+04  0.7818608E-02  0.7830902E-01
         -2   -1    0    0    0  501 -0.00000000000E+00  0.00000000000E+00  0.29757437489E+04  0.29757437489E+04  0.00000000000E+00 0.  1.
          2   -1    0    0  501    0  0.00000000000E+00 -0.00000000000E+00 -0.20873155558E+04  0.20873155558E+04  0.00000000000E+00 0. -1.
         23    2    1    2    0    0 -0.45878745448E+03  0.24429252359E+04  0.61572651455E+03  0.25625121961E+04  0.94762743991E+02 0.  0.
         11    1    3    3    0    0 -0.22297252441E+03  0.93890910984E+03  0.24458407659E+03  0.99553424537E+03  0.00000000000E+00 0.  1.
        -11    1    3    3    0    0 -0.23581493007E+03  0.15040161261E+04  0.37114243796E+03  0.15669779507E+04  0.00000000000E+00 0. -1.
         22    1    1    2    0    0  0.45878745448E+03 -0.24429252359E+04  0.27270167850E+03  0.25005471086E+04  0.00000000000E+00 0.  1.
<mgrwt>
<rscale>  0 0.49845025E+04</rscale>
<asrwt>0</asrwt>
<pdfrwt beam="1">  1        2 0.32112547E+00 0.49845025E+04</pdfrwt>
<pdfrwt beam="2">  1       -2 0.45780673E+00 0.49845025E+04</pdfrwt>
<totfact> 0.13462664E-02</totfact>
</mgrwt>
</event>
<event>
 6    1  0.1001928E-005  0.1085261E+04  0.7818608E-02  0.9219678E-01
          2   -1    0    0  501    0  0.00000000000E+00  0.00000000000E+00  0.21131836174E+04  0.21131836174E+04  0.00000000000E+00 0. -1.
         -2   -1    0    0    0  501 -0.00000000000E+00 -0.00000000000E+00 -0.13933846674E+03  0.13933846674E+03  0.00000000000E+00 0.  1.
         23    2    1    2    0    0 -0.27044137855E+03  0.26125531122E+03  0.17946737623E+04  0.18359944581E+04  0.92891658451E+02 0.  0.
         11    1    3    3    0    0 -0.21811770462E+03  0.15935731939E+03  0.11571482383E+04  0.11882601288E+04  0.00000000000E+00 0. -1.
        -11    1    3    3    0    0 -0.52323673931E+02  0.10189799183E+03  0.63752552394E+03  0.64773432923E+03  0.00000000000E+00 0.  1.
         22    1    1    2    0    0  0.27044137855E+03 -0.26125531122E+03  0.17917138842E+03  0.41652762610E+03  0.00000000000E+00 0.  1.
<mgrwt>
<rscale>  0 0.10852608E+04</rscale>
<asrwt>0</asrwt>
<pdfrwt beam="1">  1        2 0.32510515E+00 0.10852608E+04</pdfrwt>
<pdfrwt beam="2">  1       -2 0.21436689E-01 0.10852608E+04</pdfrwt>
<totfact> 0.10893571E+02</totfact>
</mgrwt>
</event>
<event>
 6    1  0.1001928E-005  0.1800009E+04  0.7818608E-02  0.8706295E-01
         -1   -1    0    0    0  501 -0.00000000000E+00  0.00000000000E+00  0.12261156148E+04  0.12261156148E+04  0.00000000000E+00 0.  1.
          1   -1    0    0  501    0  0.00000000000E+00 -0.00000000000E+00 -0.66062960048E+03  0.66062960048E+03  0.00000000000E+00 0. -1.
         23    2    1    2    0    0  0.19634376930E+02 -0.40976339713E+03  0.11204405796E+04  0.11966248491E+04  0.90732501311E+02 0.  0.
         13    1    3    3    0    0 -0.27587662647E+02 -0.63853466335E+02  0.22610475264E+03  0.23656226127E+03  0.00000000000E+00 0. -1.
        -13    1    3    3    0    0  0.47222039577E+02 -0.34590993080E+03  0.89433582693E+03  0.96006258785E+03  0.00000000000E+00 0.  1.
         22    1    1    2    0    0 -0.19634376930E+02  0.40976339713E+03 -0.55495456521E+03  0.69012036620E+03  0.00000000000E+00 0. -1.
<mgrwt>
<rscale>  0 0.18000092E+04</rscale>
<asrwt>0</asrwt>
<pdfrwt beam="1">  1        1 0.10163532E+00 0.18000092E+04</pdfrwt>
<pdfrwt beam="2">  1       -1 0.18863317E+00 0.18000092E+04</pdfrwt>
<totfact> 0.50672322E+00</totfact>
</mgrwt>
</event>
<event>
 6    1  0.1001928E-005  0.2631802E+04  0.7818608E-02  0.8357478E-01
          2   -1    0    0  501    0  0.00000000000E+00  0.00000000000E+00  0.16459090560E+04  0.16459090560E+04  0.00000000000E+00 0. -1.
         -2   -1    0    0    0  501 -0.00000000000E+00 -0.00000000000E+00 -0.10520598958E+04  0.10520598958E+04  0.00000000000E+00 0.  1.
         23    2    1    2    0    0 -0.12041144329E+04  0.17936134299E+03 -0.21041931484E+03  0.12388905308E+04  0.92257251341E+02 0.  0.
         11    1    3    3    0    0 -0.90535748160E+03  0.97935880610E+02 -0.17383338881E+03  0.92708233359E+03  0.00000000000E+00 0.  1.
        -11    1    3    3    0    0 -0.29875695126E+03  0.81425462376E+02 -0.36585926027E+02  0.31180819719E+03  0.00000000000E+00 0. -1.
         22    1    1    2    0    0  0.12041144329E+04 -0.17936134299E+03  0.80426847500E+03  0.14590784210E+04  0.00000000000E+00 0. -1.
<mgrwt>
<rscale>  0 0.26318016E+04</rscale>
<asrwt>0</asrwt>
<pdfrwt beam="1">  1        2 0.25321678E+00 0.26318016E+04</pdfrwt>
<pdfrwt beam="2">  1       -2 0.16185537E+00 0.26318016E+04</pdfrwt>
<totfact> 0.22640266E+00</totfact>
</mgrwt>
</event>
<event>
 6    1  0.1001928E-005  0.3424745E+04  0.7818608E-02  0.8131860E-01
         -1   -1    0    0    0  501 -0.00000000000E+00  0.00000000000E+00  0.16353629175E+04  0.16353629175E+04  0.00000000000E+00 0.  1.
          1   -1    0    0  501    0  0.00000000000E+00 -0.00000000000E+00 -0.17930088703E+04  0.17930088703E+04  0.00000000000E+00 0. -1.
         23    2    1    2    0    0 -0.70258060155E+02  0.38752434349E+03 -0.17458530321E+04  0.17920609865E+04  0.91479275158E+02 0.  0.
         11    1    3    3    0    0  0.13263687666E+02  0.15049004531E+03 -0.57273191873E+03  0.59232172836E+03  0.00000000000E+00 0.  1.
        -11    1    3    3    0    0 -0.83521747821E+02  0.23703429818E+03 -0.11731211133E+04  0.11997392581E+04  0.00000000000E+00 0. -1.
         22    1    1    2    0    0  0.70258060155E+02 -0.38752434349E+03  0.15882070793E+04  0.16363108014E+04  0.00000000000E+00 0.  1.
<mgrwt>
<rscale>  0 0.34247454E+04</rscale>
<asrwt>0</asrwt>
<pdfrwt beam="1">  1        1 0.27584752E+00 0.34247454E+04</pdfrwt>
<pdfrwt beam="2">  1       -1 0.25159429E+00 0.34247454E+04</pdfrwt>
<totfact> 0.23018186E-01</totfact>
</mgrwt>
</event>
<event>
 6    1  0.1266388E-005  0.3089102E+04  0.7818608E-02  0.8218735E-01
         -2   -1    0    0    0  501 -0.00000000000E+00  0.00000000000E+00  0.11021436418E+04  0.11021436418E+04  0.00000000000E+00 0.  1.
          2   -1    0    0  501    0  0.00000000000E+00 -0.00000000000E+00 -0.21645427453E+04  0.21645427453E+04  0.00000000000E+00 0. -1.
         23    2    1    2    0    0 -0.76220104469E+03  0.33072189144E+03 -0.19068530423E+04  0.20820219381E+04  0.91648370321E+02 0.  0.
         11    1    3    3    0    0 -0.32205083540E+03  0.14309863039E+03 -0.69793561872E+03  0.78186193569E+03  0.00000000000E+00 0. -1.
        -11    1    3    3    0    0 -0.44015020929E+03  0.18762326105E+03 -0.12089174236E+04  0.13001600024E+04  0.00000000000E+00 0.  1.
         22    1    1    2    0    0  0.76220104469E+03 -0.33072189144E+03  0.84445393884E+03  0.11846644490E+04  0.00000000000E+00 0.  1.
<mgrwt>
<rscale>  0 0.30891015E+04</rscale>
<asrwt>0</asrwt>
<pdfrwt beam="1">  1        2 0.33300657E+00 0.30891015E+04</pdfrwt>
<pdfrwt beam="2">  1       -2 0.16956056E+00 0.30891015E+04</pdfrwt>
<totfact> 0.98627852E-01</totfact>
</mgrwt>
</event>
<event>
 6    1  0.1001928E-005  0.2538383E+04  0.7818608E-02  0.8389437E-01
         -2   -1    0    0    0  501 -0.00000000000E+00  0.00000000000E+00  0.10073026849E+04  0.10073026849E+04  0.00000000000E+00 0.  1.
          2   -1    0    0  501    0  0.00000000000E+00 -0.00000000000E+00 -0.15991694071E+04  0.15991694071E+04  0.00000000000E+00 0. -1.
         23    2    1    2    0    0  0.86006981981E+03  0.92189047936E+03 -0.43135709192E+03  0.13355017964E+04  0.88847940532E+02 0.  0.
         11    1    3    3    0    0  0.61142966376E+03  0.60291284138E+03 -0.27106427336E+03  0.90045875436E+03  0.00000000000E+00 0.  1.
        -11    1    3    3    0    0  0.24864015605E+03  0.31897763798E+03 -0.16029281857E+03  0.43504304203E+03  0.00000000000E+00 0. -1.
         22    1    1    2    0    0 -0.86006981981E+03 -0.92189047936E+03 -0.16050963024E+03  0.12709702956E+04  0.00000000000E+00 0.  1.
<mgrwt>
<rscale>  0 0.25383835E+04</rscale>
<asrwt>0</asrwt>
<pdfrwt beam="1">  1        2 0.24602606E+00 0.25383835E+04</pdfrwt>
<pdfrwt beam="2">  1       -2 0.15496964E+00 0.25383835E+04</pdfrwt>
<totfact> 0.27266566E+00</totfact>
</mgrwt>
</event>
<event>
 6    1  0.1001928E-005  0.3116442E+04  0.7818608E-02  0.8211240E-01
          2   -1    0    0  501    0  0.00000000000E+00  0.00000000000E+00  0.29116906665E+04  0.29116906665E+04  0.00000000000E+00 0. -1.
         -2   -1    0    0    0  501 -0.00000000000E+00 -0.00000000000E+00 -0.83389795471E+03  0.83389795471E+03  0.00000000000E+00 0.  1.
         23    2    1    2    0    0  0.12634158255E+04 -0.89441165141E+03  0.12404965697E+04  0.19856861865E+04  0.89028880595E+02 0.  0.
         11    1    3    3    0    0  0.38675783882E+03 -0.32010880270E+03  0.37948714638E+03  0.62933438308E+03  0.00000000000E+00 0. -1.
        -11    1    3    3    0    0  0.87665798664E+03 -0.57430284871E+03  0.86100942336E+03  0.13563518034E+04  0.00000000000E+00 0.  1.
         22    1    1    2    0    0 -0.12634158255E+04  0.89441165141E+03  0.83729614209E+03  0.17599024347E+04  0.00000000000E+00 0.  1.
<mgrwt>
<rscale>  0 0.31164421E+04</rscale>
<asrwt>0</asrwt>
<pdfrwt beam="1">  1        2 0.44795240E+00 0.31164421E+04</pdfrwt>
<pdfrwt beam="2">  1       -2 0.12829199E+00 0.31164421E+04</pdfrwt>
<totfact> 0.75194601E-01</totfact>
</mgrwt>
</event>
<event>
 6    1  0.1001928E-005  0.1273992E+04  0.7818608E-02  0.9050448E-01
         -1   -1    0    0    0  501 -0.00000000000E+00  0.00000000000E+00  0.72127745276E+03  0.72127745276E+03  0.00000000000E+00 0.  1.
          1   -1    0    0  501    0  0.00000000000E+00 -0.00000000000E+00 -0.56256259361E+03  0.56256259361E+03  0.00000000000E+00 0. -1.
         23    2    1    2    0    0  0.19971320681E+03  0.11453882008E+03 -0.51524504967E+03  0.57164171376E+03  0.91061964708E+02 0.  0.
         13    1    3    3    0    0  0.12211845280E+03  0.87264248254E+02 -0.22892113755E+03  0.27373865777E+03  0.00000000000E+00 0.  1.
        -13    1    3    3    0    0  0.77594754015E+02  0.27274571830E+02 -0.28632391211E+03  0.29790305599E+03  0.00000000000E+00 0. -1.
         22    1    1    2    0    0 -0.19971320681E+03 -0.11453882008E+03  0.67395990882E+03  0.71219833262E+03  0.00000000000E+00 0.  1.
<mgrwt>
<rscale>  0 0.12739917E+04</rscale>
<asrwt>0</asrwt>
<pdfrwt beam="1">  1        1 0.86548091E-01 0.12739917E+04</pdfrwt>
<pdfrwt beam="2">  1       -1 0.11096576E+00 0.12739917E+04</pdfrwt>
<totfact> 0.27658120E+01</totfact>
</mgrwt>
</event>
<event>
 6    1  0.1001928E-005  0.1535237E+04  0.7818608E-02  0.8861353E-01
          2   -1    0    0  501    0  0.00000000000E+00  0.00000000000E+00  0.90104955782E+03  0.90104955782E+03  0.00000000000E+00 0. -1.
         -2   -1    0    0    0  501 -0.00000000000E+00 -0.00000000000E+00 -0.65394654255E+03  0.65394654255E+03  0.00000000000E+00 0.  1.
         23    2    1    2    0    0 -0.57558768228E+03  0.30921009380E+03 -0.27873143953E+03  0.71629833840E+03  0.92087089848E+02 0.  0.
         11    1    3    3    0    0 -0.28124976859E+03  0.19612644719E+03 -0.11989633618E+03  0.36323841626E+03  0.00000000000E+00 0.  1.
        -11    1    3    3    0    0 -0.29433791369E+03  0.11308364660E+03 -0.15883510334E+03  0.35305992213E+03  0.00000000000E+00 0. -1.
         22    1    1    2    0    0  0.57558768228E+03 -0.30921009380E+03  0.52583445479E+03  0.83869776197E+03  0.00000000000E+00 0. -1.
<mgrwt>
<rscale>  0 0.15352371E+04</rscale>
<asrwt>0</asrwt>
<pdfrwt beam="1">  1        2 0.13862301E+00 0.15352371E+04</pdfrwt>
<pdfrwt beam="2">  1       -2 0.10060716E+00 0.15352371E+04</pdfrwt>
<totfact> 0.22972822E+01</totfact>
</mgrwt>
</event>
<event>
 6    1  0.1001928E-005  0.2343741E+04  0.7818608E-02  0.8460872E-01
         -1   -1    0    0    0  501 -0.00000000000E+00  0.00000000000E+00  0.15170560283E+04  0.15170560283E+04  0.00000000000E+00 0.  1.
          1   -1    0    0  501    0  0.00000000000E+00 -0.00000000000E+00 -0.90522706829E+03  0.90522706829E+03  0.00000000000E+00 0. -1.
         23    2    1    2    0    0  0.13108434039E+03  0.10199793222E+04 -0.27034032591E+03  0.10673795683E+04  0.93136077894E+02 0.  0.
         13    1    3    3    0    0  0.18790656566E+02  0.13736545034E+03 -0.42367588974E+01  0.13870942955E+03  0.00000000000E+00 0. -1.
        -13    1    3    3    0    0  0.11229368382E+03  0.88261387185E+03 -0.26610356701E+03  0.92867013874E+03  0.00000000000E+00 0.  1.
         22    1    1    2    0    0 -0.13108434039E+03 -0.10199793222E+04  0.88216928592E+03  0.13549035283E+04  0.00000000000E+00 0.  1.
<mgrwt>
<rscale>  0 0.23437408E+04</rscale>
<asrwt>0</asrwt>
<pdfrwt beam="1">  1        1 0.13926570E+00 0.23437408E+04</pdfrwt>
<pdfrwt beam="2">  1       -1 0.23339323E+00 0.23437408E+04</pdfrwt>
<totfact> 0.14541267E+00</totfact>
</mgrwt>
</event>
<event>
 6    1  0.1273355E-005  0.3182791E+04  0.7818608E-02  0.8193377E-01
          1   -1    0    0  501    0  0.00000000000E+00  0.00000000000E+00  0.11530149997E+04  0.11530149997E+04  0.00000000000E+00 0. -1.
         -1   -1    0    0    0  501 -0.00000000000E+00 -0.00000000000E+00 -0.21964500054E+04  0.21964500054E+04  0.00000000000E+00 0.  1.
         23    2    1    2    0    0  0.62722854850E+03 -0.13578703801E+03 -0.20531469997E+04  0.21530653717E+04  0.91783008459E+02 0.  0.
         13    1    3    3    0    0  0.43727040618E+03 -0.53940552381E+02 -0.14480187132E+04  0.15135630760E+04  0.00000000000E+00 0.  1.
        -13    1    3    3    0    0  0.18995814233E+03 -0.81846485632E+02 -0.60512828653E+03  0.63950229570E+03  0.00000000000E+00 0. -1.
         22    1    1    2    0    0 -0.62722854850E+03  0.13578703801E+03  0.10097119941E+04  0.11963996334E+04  0.00000000000E+00 0. -1.
<mgrwt>
<rscale>  0 0.31827911E+04</rscale>
<asrwt>0</asrwt>
<pdfrwt beam="1">  1        1 0.17738693E+00 0.31827911E+04</pdfrwt>
<pdfrwt beam="2">  1       -1 0.33791538E+00 0.31827911E+04</pdfrwt>
<totfact> 0.18102664E-01</totfact>
</mgrwt>
</event>
<event>
 6    1  0.1001928E-005  0.3870312E+04  0.7818608E-02  0.8031232E-01
         -2   -1    0    0    0  501 -0.00000000000E+00  0.00000000000E+00  0.97943885550E+03  0.97943885550E+03  0.00000000000E+00 0.  1.
          2   -1    0    0  501    0  0.00000000000E+00 -0.00000000000E+00 -0.38234430478E+04  0.38234430478E+04  0.00000000000E+00 0. -1.
         23    2    1    2    0    0  0.13275035856E+04 -0.12070211080E+04 -0.23190963726E+04  0.29334718509E+04  0.88788453506E+02 0.  0.
         11    1    3    3    0    0  0.24940136273E+03 -0.18377487266E+03 -0.38290986302E+03  0.49253853327E+03  0.00000000000E+00 0.  1.
        -11    1    3    3    0    0  0.10781022229E+04 -0.10232462354E+04 -0.19361865096E+04  0.24409333176E+04  0.00000000000E+00 0. -1.
         22    1    1    2    0    0 -0.13275035856E+04  0.12070211080E+04 -0.52490781977E+03  0.18694100525E+04  0.00000000000E+00 0.  1.
<mgrwt>
<rscale>  0 0.38703120E+04</rscale>
<asrwt>0</asrwt>
<pdfrwt beam="1">  1        2 0.58822202E+00 0.38703120E+04</pdfrwt>
<pdfrwt beam="2">  1       -2 0.15068290E+00 0.38703120E+04</pdfrwt>
<totfact> 0.11090743E-01</totfact>
</mgrwt>
</event>
<event>
 6    1  0.1001928E-005  0.2602603E+04  0.7818608E-02  0.8367318E-01
          2   -1    0    0  501    0  0.00000000000E+00  0.00000000000E+00  0.76365538530E+03  0.76365538530E+03  0.00000000000E+00 0.  1.
         -2   -1    0    0    0  501 -0.00000000000E+00 -0.00000000000E+00 -0.22174727227E+04  0.22174727227E+04  0.00000000000E+00 0. -1.
         23    2    1    2    0    0  0.58181421739E+03 -0.17906678402E+03 -0.20431424919E+04  0.21338519816E+04  0.91215900330E+02 0.  0.
         13    1    3    3    0    0  0.65696486323E+02 -0.27845213161E+02 -0.35535434205E+03  0.36244736531E+03  0.00000000000E+00 0.  1.
        -13    1    3    3    0    0  0.51611773106E+03 -0.15122157085E+03 -0.16877881498E+04  0.17714046163E+04  0.00000000000E+00 0. -1.
         22    1    1    2    0    0 -0.58181421739E+03  0.17906678402E+03  0.58932515449E+03  0.84727612642E+03  0.00000000000E+00 0.  1.
<mgrwt>
<rscale>  0 0.26026025E+04</rscale>
<asrwt>0</asrwt>
<pdfrwt beam="1">  1        2 0.11748544E+00 0.26026025E+04</pdfrwt>
<pdfrwt beam="2">  1       -2 0.34114965E+00 0.26026025E+04</pdfrwt>
<totfact> 0.57301571E-01</totfact>
</mgrwt>
</event>
<event>
 6    1  0.1001928E-005  0.1705890E+04  0.7818608E-02  0.8758012E-01
          1   -1    0    0  501    0  0.00000000000E+00  0.00000000000E+00  0.57990069035E+03  0.57990069035E+03  0.00000000000E+00 0. -1.
         -1   -1    0    0    0  501 -0.00000000000E+00 -0.00000000000E+00 -0.12545510911E+04  0.12545510911E+04  0.00000000000E+00 0.  1.
         23    2    1    2    0    0  0.82465240144E+03 -0.48586893295E+02 -0.55437618572E+03  0.99965949818E+03  0.97846244790E+02 0.  0.
         13    1    3    3    0    0  0.72104113537E+03 -0.15373237464E+02 -0.50332882852E+03  0.87947516448E+03  0.00000000000E+00 0. -1.
        -13    1    3    3    0    0  0.10361126606E+03 -0.33213655831E+02 -0.51047357200E+02  0.12018433370E+03  0.00000000000E+00 0.  1.
         22    1    1    2    0    0 -0.82465240144E+03  0.48586893295E+02 -0.12027421503E+03  0.83479228326E+03  0.00000000000E+00 0. -1.
<mgrwt>
<rscale>  0 0.17058898E+04</rscale>
<asrwt>0</asrwt>
<pdfrwt beam="1">  1        1 0.89215492E-01 0.17058898E+04</pdfrwt>
<pdfrwt beam="2">  1       -1 0.19300786E+00 0.17058898E+04</pdfrwt>
<totfact> 0.57582462E+00</totfact>
</mgrwt>
</event>
<event>
 6    1  0.1530070E-005  0.2914611E+04  0.7818608E-02  0.8268543E-01
         -2   -1    0    0    0  501 -0.00000000000E+00  0.00000000000E+00  0.11787102174E+04  0.11787102174E+04  0.00000000000E+00 0. -1.
          2   -1    0    0  501    0  0.00000000000E+00 -0.00000000000E+00 -0.18017487339E+04  0.18017487339E+04  0.00000000000E+00 0.  1.
         23    2    1    2    0    0 -0.76264139952E+03  0.31324727438E+02 -0.15795876268E+04  0.17566986222E+04  0.91048535001E+02 0.  0.
         13    1    3    3    0    0 -0.29250560878E+03  0.55872548024E+02 -0.62755045050E+03  0.69462280463E+03  0.00000000000E+00 0. -1.
        -13    1    3    3    0    0 -0.47013579074E+03 -0.24547820586E+02 -0.95203717631E+03  0.10620758176E+04  0.00000000000E+00 0.  1.
         22    1    1    2    0    0  0.76264139952E+03 -0.31324727438E+02  0.95654911030E+03  0.12237603292E+04  0.00000000000E+00 0. -1.
<mgrwt>
<rscale>  0 0.29146112E+04</rscale>
<asrwt>0</asrwt>
<pdfrwt beam="1">  1        2 0.27719211E+00 0.29146112E+04</pdfrwt>
<pdfrwt beam="2">  1       -2 0.18134003E+00 0.29146112E+04</pdfrwt>
<totfact> 0.13175756E+00</totfact>
</mgrwt>
</event>
<event>
 6    1  0.1001928E-005  0.1203717E+04  0.7818608E-02  0.9109610E-01
          1   -1    0    0  501    0  0.00000000000E+00  0.00000000000E+00  0.13173712663E+04  0.13173712663E+04  0.00000000000E+00 0. -1.
         -1   -1    0    0    0  501 -0.00000000000E+00 -0.00000000000E+00 -0.27496689347E+03  0.27496689347E+03  0.00000000000E+00 0.  1.
         23    2    1    2    0    0  0.29270327223E+03 -0.29236173375E+03 -0.48089624233E+02  0.42600726909E+03  0.89548827009E+02 0.  0.
         11    1    3    3    0    0  0.71297956387E+02 -0.77486724611E+02  0.26513870024E+02  0.10858442052E+03  0.00000000000E+00 0.  1.
        -11    1    3    3    0    0  0.22140531584E+03 -0.21487500914E+03 -0.74603494256E+02  0.31742284857E+03  0.00000000000E+00 0. -1.
         22    1    1    2    0    0 -0.29270327223E+03  0.29236173375E+03  0.10904939970E+04  0.11663308906E+04  0.00000000000E+00 0. -1.
<mgrwt>
<rscale>  0 0.12037167E+04</rscale>
<asrwt>0</asrwt>
<pdfrwt beam="1">  1        1 0.20267250E+00 0.12037167E+04</pdfrwt>
<pdfrwt beam="2">  1       -1 0.42302600E-01 0.12037167E+04</pdfrwt>
<totfact> 0.47770477E+01</totfact>
</mgrwt>
</event>
<event>
 6    1  0.1001928E-005  0.4248314E+04  0.7818608E-02  0.7956245E-01
         -2   -1    0    0    0  501 -0.00000000000E+00  0.00000000000E+00  0.27006178705E+04  0.27006178705E+04  0.00000000000E+00 0.  1.
          2   -1    0    0  501    0  0.00000000000E+00 -0.00000000000E+00 -0.16707445850E+04  0.16707445850E+04  0.00000000000E+00 0. -1.
         23    2    1    2    0    0  0.10164100853E+04 -0.11294438436E+03  0.24299806936E+04  0.26375381710E+04  0.77172123905E+02 0.  0.
         11    1    3    3    0    0  0.23137344602E+03 -0.46692026789E+02  0.49823734348E+03  0.55132047606E+03  0.00000000000E+00 0. -1.
        -11    1    3    3    0    0  0.78503663929E+03 -0.66252357572E+02  0.19317433501E+04  0.20862176949E+04  0.00000000000E+00 0.  1.
         22    1    1    2    0    0 -0.10164100853E+04  0.11294438436E+03 -0.14001074080E+04  0.17338242845E+04  0.00000000000E+00 0. -1.
<mgrwt>
<rscale>  0 0.42483139E+04</rscale>
<asrwt>0</asrwt>
<pdfrwt beam="1">  1        2 0.25703763E+00 0.42483139E+04</pdfrwt>
<pdfrwt beam="2">  1       -2 0.41547967E+00 0.42483139E+04</pdfrwt>
<totfact> 0.46235187E-02</totfact>
</mgrwt>
</event>
<event>
 6    1  0.1001928E-005  0.4123589E+04  0.7818608E-02  0.7980068E-01
         -1   -1    0    0    0  501 -0.00000000000E+00  0.00000000000E+00  0.19977156607E+04  0.19977156607E+04  0.00000000000E+00 0.  1.
          1   -1    0    0  501    0  0.00000000000E+00 -0.00000000000E+00 -0.21279288931E+04  0.21279288931E+04  0.00000000000E+00 0. -1.
         23    2    1    2    0    0  0.13127946831E+04 -0.10307020992E+04  0.11441680117E+04  0.20256863989E+04  0.92240177243E+02 0.  0.
         13    1    3    3    0    0  0.38819631911E+03 -0.25419558365E+03  0.30430342547E+03  0.55489850574E+03  0.00000000000E+00 0.  1.
        -13    1    3    3    0    0  0.92459836403E+03 -0.77650651551E+03  0.83986458619E+03  0.14707878931E+04  0.00000000000E+00 0. -1.
         22    1    1    2    0    0 -0.13127946831E+04  0.10307020992E+04 -0.12743812440E+04  0.20999581549E+04  0.00000000000E+00 0. -1.
<mgrwt>
<rscale>  0 0.41235892E+04</rscale>
<asrwt>0</asrwt>
<pdfrwt beam="1">  1        1 0.32737368E+00 0.41235892E+04</pdfrwt>
<pdfrwt beam="2">  1       -1 0.30734087E+00 0.41235892E+04</pdfrwt>
<totfact> 0.55927801E-02</totfact>
</mgrwt>
</event>
<event>
 6    1  0.1001928E-005  0.1926959E+04  0.7818608E-02  0.8641552E-01
          3   -1    0    0  501    0  0.00000000000E+00  0.00000000000E+00  0.24410388980E+04  0.24410388980E+04  0.00000000000E+00 0. -1.
         -3   -1    0    0    0  501 -0.00000000000E+00 -0.00000000000E+00 -0.38028601899E+03  0.38028601899E+03  0.00000000000E+00 0.  1.
         23    2    1    2    0    0  0.85684939493E+03 -0.56641205546E+02  0.39974573858E+03  0.95147363083E+03  0.90035009289E+02 0.  0.
         13    1    3    3    0    0  0.45198526665E+03  0.13079571586E+02  0.19447004837E+03  0.49221982506E+03  0.00000000000E+00 0.  1.
        -13    1    3    3    0    0  0.40486412828E+03 -0.69720777132E+02  0.20527569020E+03  0.45925380578E+03  0.00000000000E+00 0. -1.
         22    1    1    2    0    0 -0.85684939493E+03  0.56641205546E+02  0.16610071404E+04  0.18698512861E+04  0.00000000000E+00 0. -1.
<mgrwt>
<rscale>  0 0.19269592E+04</rscale>
<asrwt>0</asrwt>
<pdfrwt beam="1">  1        3 0.37554444E+00 0.19269592E+04</pdfrwt>
<pdfrwt beam="2">  1       -3 0.58505543E-01 0.19269592E+04</pdfrwt>
<totfact> 0.10546980E-01</totfact>
</mgrwt>
</event>
<event>
 6    1  0.1001928E-005  0.1947783E+04  0.7818608E-02  0.8631430E-01
         -1   -1    0    0    0  501 -0.00000000000E+00  0.00000000000E+00  0.54615929537E+03  0.54615929537E+03  0.00000000000E+00 0. -1.
          1   -1    0    0  501    0  0.00000000000E+00 -0.00000000000E+00 -0.17366088374E+04  0.17366088374E+04  0.00000000000E+00 0.  1.
         23    2    1    2    0    0  0.52685771042E+03 -0.63683609140E+03 -0.11954521208E+04  0.14562306079E+04  0.91447010773E+02 0.  0.
         13    1    3    3    0    0  0.25177845027E+03 -0.37575026786E+03 -0.65272001533E+03  0.79411842331E+03  0.00000000000E+00 0.  1.
        -13    1    3    3    0    0  0.27507926016E+03 -0.26108582354E+03 -0.54273210549E+03  0.66211218456E+03  0.00000000000E+00 0. -1.
         22    1    1    2    0    0 -0.52685771042E+03  0.63683609140E+03  0.50025787441E+01  0.82653752494E+03  0.00000000000E+00 0. -1.
<mgrwt>
<rscale>  0 0.19477834E+04</rscale>
<asrwt>0</asrwt>
<pdfrwt beam="1">  1        1 0.26717059E+00 0.19477834E+04</pdfrwt>
<pdfrwt beam="2">  1       -1 0.84024506E-01 0.19477834E+04</pdfrwt>
<totfact> 0.58852385E+00</totfact>
</mgrwt>
</event>
<event>
 6    1  0.1001928E-005  0.5628012E+04  0.7818608E-02  0.7738316E-01
          2   -1    0    0  501    0  0.00000000000E+00  0.00000000000E+00  0.22899422034E+04  0.22899422034E+04  0.00000000000E+00 0. -1.
         -2   -1    0    0    0  501 -0.00000000000E+00 -0.00000000000E+00 -0.34580039301E+04  0.34580039301E+04  0.00000000000E+00 0.  1.
         23    2    1    2    0    0 -0.11452683904E+04  0.26768009718E+03  0.20258943385E+04  0.23443234068E+04  0.91170414208E+02 0.  0.
         13    1    3    3    0    0 -0.19424394604E+03  0.10953608264E+02  0.32668132720E+03  0.38022543530E+03  0.00000000000E+00 0.  1.
        -13    1    3    3    0    0 -0.95102444432E+03  0.25672648891E+03  0.16992130113E+04  0.19640979715E+04  0.00000000000E+00 0. -1.
         22    1    1    2    0    0  0.11452683904E+04 -0.26768009718E+03 -0.31939560651E+04  0.34036227268E+04  0.00000000000E+00 0.  1.
<mgrwt>
<rscale>  0 0.56280118E+04</rscale>
<asrwt>0</asrwt>
<pdfrwt beam="1">  1        2 0.35229880E+00 0.56280118E+04</pdfrwt>
<pdfrwt beam="2">  1       -2 0.53200060E+00 0.56280118E+04</pdfrwt>
<totfact> 0.34412291E-03</totfact>
</mgrwt>
</event>
<event>
 6    1  0.1001928E-005  0.7711630E+03  0.7818608E-02  0.9602722E-01
          1   -1    0    0  501    0  0.00000000000E+00  0.00000000000E+00  0.28615039844E+04  0.28615039844E+04  0.00000000000E+00 0. -1.
         -1   -1    0    0    0  501 -0.00000000000E+00 -0.00000000000E+00 -0.51956279947E+02  0.51956279947E+02  0.00000000000E+00 0.  1.
         23    2    1    2    0    0  0.63071285374E+02 -0.35299801051E+03  0.94502367500E+03  0.10147671773E+04  0.89983861391E+02 0.  0.
         13    1    3    3    0    0  0.53784626777E+02 -0.17880379527E+03  0.37943201828E+03  0.42288561075E+03  0.00000000000E+00 0.  1.
        -13    1    3    3    0    0  0.92866585966E+01 -0.17419421525E+03  0.56559165672E+03  0.59188156653E+03  0.00000000000E+00 0. -1.
         22    1    1    2    0    0 -0.63071285374E+02  0.35299801051E+03  0.18645240295E+04  0.18986930871E+04  0.00000000000E+00 0.  1.
<mgrwt>
<rscale>  0 0.77116302E+03</rscale>
<asrwt>0</asrwt>
<pdfrwt beam="1">  1        1 0.44023126E+00 0.77116302E+03</pdfrwt>
<pdfrwt beam="2">  1       -1 0.79932761E-02 0.77116302E+03</pdfrwt>
<totfact> 0.71037925E+01</totfact>
</mgrwt>
</event>
<event>
 6    1  0.1001928E-005  0.1247386E+04  0.7818608E-02  0.9072362E-01
          1   -1    0    0  501    0  0.00000000000E+00  0.00000000000E+00  0.42033379464E+03  0.42033379464E+03  0.00000000000E+00 0. -1.
         -1   -1    0    0    0  501 -0.00000000000E+00 -0.00000000000E+00 -0.92543764412E+03  0.92543764412E+03  0.00000000000E+00 0.  1.
         23    2    1    2    0    0 -0.91260123471E+02  0.54342957337E+03 -0.56154129624E+03  0.79184969632E+03  0.89739639182E+02 0.  0.
         13    1    3    3    0    0 -0.77668636033E+02  0.30352328655E+03 -0.26632928733E+03  0.41120565633E+03  0.00000000000E+00 0.  1.
        -13    1    3    3    0    0 -0.13591487437E+02  0.23990628681E+03 -0.29521200891E+03  0.38064404000E+03  0.00000000000E+00 0. -1.
         22    1    1    2    0    0  0.91260123471E+02 -0.54342957337E+03  0.56437446764E+02  0.55392174244E+03  0.00000000000E+00 0. -1.
<mgrwt>
<rscale>  0 0.12473856E+04</rscale>
<asrwt>0</asrwt>
<pdfrwt beam="1">  1        1 0.64666737E-01 0.12473856E+04</pdfrwt>
<pdfrwt beam="2">  1       -1 0.14237502E+00 0.12473856E+04</pdfrwt>
<totfact> 0.22210357E+01</totfact>
</mgrwt>
</event>
<event>
 6    1  0.1001928E-005  0.2728058E+04  0.7818608E-02  0.8325958E-01
         -3   -1    0    0    0  501 -0.00000000000E+00  0.00000000000E+00  0.59886453069E+03  0.59886453069E+03  0.00000000000E+00 0.  1.
          3   -1    0    0  501    0  0.00000000000E+00 -0.00000000000E+00 -0.31068374835E+04  0.31068374835E+04  0.00000000000E+00 0. -1.
         23    2    1    2    0    0  0.29413239196E+03  0.39542323817E+03 -0.29808670225E+04  0.30226923492E+04  0.90705186334E+02 0.  0.
         13    1    3    3    0    0  0.21948825073E+03  0.22376776131E+03 -0.19291556543E+04  0.19544535404E+04  0.00000000000E+00 0. -1.
        -13    1    3    3    0    0  0.74644141226E+02  0.17165547686E+03 -0.10517113683E+04  0.10682388088E+04  0.00000000000E+00 0.  1.
         22    1    1    2    0    0 -0.29413239196E+03 -0.39542323817E+03  0.47289406971E+03  0.68300966497E+03  0.00000000000E+00 0.  1.
<mgrwt>
<rscale>  0 0.27280577E+04</rscale>
<asrwt>0</asrwt>
<pdfrwt beam="1">  1        3 0.47797499E+00 0.27280577E+04</pdfrwt>
<pdfrwt beam="2">  1       -3 0.92133006E-01 0.27280577E+04</pdfrwt>
<totfact> 0.10597569E-02</totfact>
</mgrwt>
</event>
<event>
 6    1  0.1001928E-005  0.1520591E+04  0.7818608E-02  0.8870875E-01
         -1   -1    0    0    0  501 -0.00000000000E+00  0.00000000000E+00  0.41679424952E+03  0.41679424952E+03  0.00000000000E+00 0.  1.
          1   -1    0    0  501    0  0.00000000000E+00 -0.00000000000E+00 -0.13868926639E+04  0.13868926639E+04  0.00000000000E+00 0. -1.
         23    2    1    2    0    0  0.60197263335E+03  0.25419549613E+03 -0.31420853828E+02  0.65996406053E+03  0.87056818169E+02 0.  0.
         11    1    3    3    0    0  0.18841263266E+03  0.12250772100E+03  0.92061129498E+00  0.22474053790E+03  0.00000000000E+00 0.  1.
        -11    1    3    3    0    0  0.41356000069E+03  0.13168777513E+03 -0.32341465123E+02  0.43522352264E+03  0.00000000000E+00 0. -1.
         22    1    1    2    0    0 -0.60197263335E+03 -0.25419549613E+03 -0.93867756057E+03  0.11437228529E+04  0.00000000000E+00 0. -1.
<mgrwt>
<rscale>  0 0.15205905E+04</rscale>
<asrwt>0</asrwt>
<pdfrwt beam="1">  1        1 0.21336810E+00 0.15205905E+04</pdfrwt>
<pdfrwt beam="2">  1       -1 0.64122192E-01 0.15205905E+04</pdfrwt>
<totfact> 0.18691837E+01</totfact>
</mgrwt>
</event>
<event>
 6    1  0.1001928E-005  0.1694258E+04  0.7818608E-02  0.8764646E-01
          1   -1    0    0  501    0  0.00000000000E+00  0.00000000000E+00  0.78051890518E+03  0.78051890518E+03  0.00000000000E+00 0.  1.
         -1   -1    0    0    0  501 -0.00000000000E+00 -0.00000000000E+00 -0.91942385278E+03  0.91942385278E+03  0.00000000000E+00 0. -1.
         23    2    1    2    0    0  0.33111113366E+03  0.77301936777E+03 -0.15052246003E+03  0.85891452277E+03  0.88789755439E+02 0.  0.
         13    1    3    3    0    0  0.19670772963E+03  0.38586161616E+03 -0.11154206124E+03  0.44724126503E+03  0.00000000000E+00 0.  1.
        -13    1    3    3    0    0  0.13440340403E+03  0.38715775161E+03 -0.38980398788E+02  0.41167325774E+03  0.00000000000E+00 0. -1.
         22    1    1    2    0    0 -0.33111113366E+03 -0.77301936777E+03  0.11617512427E+02  0.84102823518E+03  0.00000000000E+00 0.  1.
<mgrwt>
<rscale>  0 0.16942582E+04</rscale>
<asrwt>0</asrwt>
<pdfrwt beam="1">  1        1 0.12007983E+00 0.16942582E+04</pdfrwt>
<pdfrwt beam="2">  1       -1 0.14144982E+00 0.16942582E+04</pdfrwt>
<totfact> 0.89345323E+00</totfact>
</mgrwt>
</event>
<event>
 6    1  0.1001928E-005  0.3176835E+04  0.7818608E-02  0.8194962E-01
          2   -1    0    0  501    0  0.00000000000E+00  0.00000000000E+00  0.14566071755E+04  0.14566071755E+04  0.00000000000E+00 0. -1.
         -2   -1    0    0    0  501 -0.00000000000E+00 -0.00000000000E+00 -0.17321553336E+04  0.17321553336E+04  0.00000000000E+00 0.  1.
         23    2    1    2    0    0  0.36422003265E+03 -0.22221561818E+03 -0.16722928376E+04  0.17283065143E+04  0.91891564078E+02 0.  0.
         11    1    3    3    0    0  0.61140968306E+02 -0.71389383700E+02 -0.27621427316E+03  0.29176872144E+03  0.00000000000E+00 0.  1.
        -11    1    3    3    0    0  0.30307906434E+03 -0.15082623449E+03 -0.13960785645E+04  0.14365377929E+04  0.00000000000E+00 0. -1.
         22    1    1    2    0    0 -0.36422003265E+03  0.22221561818E+03  0.13967446795E+04  0.14604559949E+04  0.00000000000E+00 0. -1.
<mgrwt>
<rscale>  0 0.31768348E+04</rscale>
<asrwt>0</asrwt>
<pdfrwt beam="1">  1        2 0.22409341E+00 0.31768348E+04</pdfrwt>
<pdfrwt beam="2">  1       -2 0.26648544E+00 0.31768348E+04</pdfrwt>
<totfact> 0.57713524E-01</totfact>
</mgrwt>
</event>
<event>
 6    1  0.1001928E-005  0.2561616E+04  0.7818608E-02  0.8381358E-01
          2   -1    0    0  501    0  0.00000000000E+00  0.00000000000E+00  0.16208592438E+04  0.16208592438E+04  0.00000000000E+00 0. -1.
         -2   -1    0    0    0  501 -0.00000000000E+00 -0.00000000000E+00 -0.10120983831E+04  0.10120983831E+04  0.00000000000E+00 0.  1.
         23    2    1    2    0    0  0.46692157992E+03 -0.11835050839E+04  0.44158344438E+03  0.13497396665E+04  0.90006576038E+02 0.  0.
         13    1    3    3    0    0  0.13910491326E+03 -0.42475153021E+03  0.11938714462E+03  0.46262007048E+03  0.00000000000E+00 0. -1.
        -13    1    3    3    0    0  0.32781666665E+03 -0.75875355366E+03  0.32219629976E+03  0.88711959606E+03  0.00000000000E+00 0.  1.
         22    1    1    2    0    0 -0.46692157992E+03  0.11835050839E+04  0.16717741631E+03  0.12832179604E+04  0.00000000000E+00 0. -1.
<mgrwt>
<rscale>  0 0.25616159E+04</rscale>
<asrwt>0</asrwt>
<pdfrwt beam="1">  1        2 0.24936296E+00 0.25616159E+04</pdfrwt>
<pdfrwt beam="2">  1       -2 0.15570744E+00 0.25616159E+04</pdfrwt>
<totfact> 0.26127889E+00</totfact>
</mgrwt>
</event>
<event>
 6    1  0.1001928E-005  0.2276250E+04  0.7818608E-02  0.8487345E-01
          2   -1    0    0  501    0  0.00000000000E+00  0.00000000000E+00  0.99164058605E+03  0.99164058605E+03  0.00000000000E+00 0. -1.
         -2   -1    0    0    0  501 -0.00000000000E+00 -0.00000000000E+00 -0.13062480751E+04  0.13062480751E+04  0.00000000000E+00 0.  1.
         23    2    1    2    0    0  0.45155042692E+03 -0.10100674697E+04  0.10418216745E+03  0.11148760417E+04  0.89222099620E+02 0.  0.
         13    1    3    3    0    0  0.30174656018E+03 -0.57850931687E+03  0.41738031087E+02  0.65380890138E+03  0.00000000000E+00 0.  1.
        -13    1    3    3    0    0  0.14980386674E+03 -0.43155815281E+03  0.62444136361E+02  0.46106714035E+03  0.00000000000E+00 0. -1.
         22    1    1    2    0    0 -0.45155042692E+03  0.10100674697E+04 -0.41878965650E+03  0.11830126194E+04  0.00000000000E+00 0.  1.
<mgrwt>
<rscale>  0 0.22762501E+04</rscale>
<asrwt>0</asrwt>
<pdfrwt beam="1">  1        2 0.15256009E+00 0.22762501E+04</pdfrwt>
<pdfrwt beam="2">  1       -2 0.20096124E+00 0.22762501E+04</pdfrwt>
<totfact> 0.30359395E+00</totfact>
</mgrwt>
</event>
<event>
 6    1  0.1001928E-005  0.3369599E+04  0.7818608E-02  0.8145408E-01
          2   -1    0    0  501    0  0.00000000000E+00  0.00000000000E+00  0.38220061015E+04  0.38220061015E+04  0.00000000000E+00 0.  1.
         -2   -1    0    0    0  501 -0.00000000000E+00 -0.00000000000E+00 -0.74268575568E+03  0.74268575568E+03  0.00000000000E+00 0. -1.
         23    2    1    2    0    0  0.91483554398E+03 -0.14360703661E+03 -0.36389827505E+03  0.99912016043E+03  0.90951013759E+02 0.  0.
         13    1    3    3    0    0  0.52290022413E+03 -0.78685680321E+02 -0.15933774574E+03  0.55227221359E+03  0.00000000000E+00 0. -1.
        -13    1    3    3    0    0  0.39193531985E+03 -0.64921356291E+02 -0.20456052931E+03  0.44684794685E+03  0.00000000000E+00 0.  1.
         22    1    1    2    0    0 -0.91483554398E+03  0.14360703661E+03  0.34432186209E+04  0.35655716968E+04  0.00000000000E+00 0.  1.
<mgrwt>
<rscale>  0 0.33695991E+04</rscale>
<asrwt>0</asrwt>
<pdfrwt beam="1">  1        2 0.58800093E+00 0.33695991E+04</pdfrwt>
<pdfrwt beam="2">  1       -2 0.11425935E+00 0.33695991E+04</pdfrwt>
<totfact> 0.23458265E-01</totfact>
</mgrwt>
</event>
<event>
 6    1  0.1001928E-005  0.1239694E+04  0.7818608E-02  0.9078805E-01
          2   -1    0    0  501    0  0.00000000000E+00  0.00000000000E+00  0.19632820632E+04  0.19632820632E+04  0.00000000000E+00 0. -1.
         -2   -1    0    0    0  501 -0.00000000000E+00 -0.00000000000E+00 -0.19569797650E+03  0.19569797650E+03  0.00000000000E+00 0.  1.
         23    2    1    2    0    0  0.52793362723E+03 -0.12893070871E+03  0.13954470630E+04  0.15003276224E+04  0.91506428483E+02 0.  0.
         13    1    3    3    0    0  0.79310312276E+01  0.71653710233E+01  0.56762204020E+02  0.57759774960E+02  0.00000000000E+00 0.  1.
        -13    1    3    3    0    0  0.52000259600E+03 -0.13609607973E+03  0.13386848590E+04  0.14425678474E+04  0.00000000000E+00 0. -1.
         22    1    1    2    0    0 -0.52793362723E+03  0.12893070871E+03  0.37213702365E+03  0.65865241727E+03  0.00000000000E+00 0.  1.
<mgrwt>
<rscale>  0 0.12396940E+04</rscale>
<asrwt>0</asrwt>
<pdfrwt beam="1">  1        2 0.30204338E+00 0.12396940E+04</pdfrwt>
<pdfrwt beam="2">  1       -2 0.30107382E-01 0.12396940E+04</pdfrwt>
<totfact> 0.70269774E+01</totfact>
</mgrwt>
</event>
<event>
 6    1  0.1001928E-005  0.1172342E+04  0.7818608E-02  0.9137416E-01
         -2   -1    0    0    0  501 -0.00000000000E+00  0.00000000000E+00  0.28640050874E+03  0.28640050874E+03  0.00000000000E+00 0.  1.
          2   -1    0    0  501    0  0.00000000000E+00 -0.00000000000E+00 -0.11997061748E+04  0.11997061748E+04  0.00000000000E+00 0. -1.
         23    2    1    2    0    0 -0.33758892745E+03 -0.42108024052E+03 -0.18147087321E+03  0.57678989775E+03  0.92087216413E+02 0.  0.
         13    1    3    3    0    0 -0.56963517157E+02 -0.13461033538E+03 -0.57161203380E+02  0.15694644899E+03  0.00000000000E+00 0. -1.
        -13    1    3    3    0    0 -0.28062541030E+03 -0.28646990514E+03 -0.12430966983E+03  0.41984344876E+03  0.00000000000E+00 0.  1.
         22    1    1    2    0    0  0.33758892745E+03  0.42108024052E+03 -0.73183479289E+03  0.90931678582E+03  0.00000000000E+00 0. -1.
<mgrwt>
<rscale>  0 0.11723420E+04</rscale>
<asrwt>0</asrwt>
<pdfrwt beam="1">  1        2 0.18457018E+00 0.11723420E+04</pdfrwt>
<pdfrwt beam="2">  1       -2 0.44061617E-01 0.11723420E+04</pdfrwt>
<totfact> 0.91443949E+01</totfact>
</mgrwt>
</event>
<event>
 6    1  0.1001928E-005  0.6882554E+03  0.7818608E-02  0.9737530E-01
          2   -1    0    0  501    0  0.00000000000E+00  0.00000000000E+00  0.14524289457E+03  0.14524289457E+03  0.00000000000E+00 0. -1.
         -2   -1    0    0    0  501 -0.00000000000E+00 -0.00000000000E+00 -0.81535060934E+03  0.81535060934E+03  0.00000000000E+00 0.  1.
         23    2    1    2    0    0  0.75107079622E+01  0.28314435443E+03 -0.85764593898E+02  0.31122148489E+03  0.96312568800E+02 0.  0.
         11    1    3    3    0    0 -0.44176844969E+02  0.12099551740E+03 -0.42228328100E+02  0.13555346014E+03  0.00000000000E+00 0. -1.
        -11    1    3    3    0    0  0.51687552931E+02  0.16214883703E+03 -0.43536265798E+02  0.17566802475E+03  0.00000000000E+00 0.  1.
         22    1    1    2    0    0 -0.75107079622E+01 -0.28314435443E+03 -0.58434312087E+03  0.64937201903E+03  0.00000000000E+00 0.  1.
<mgrwt>
<rscale>  0 0.68825543E+03</rscale>
<asrwt>0</asrwt>
<pdfrwt beam="1">  1        2 0.22345061E-01 0.68825543E+03</pdfrwt>
<pdfrwt beam="2">  1       -2 0.12543855E+00 0.68825543E+03</pdfrwt>
<totfact> 0.11999816E+02</totfact>
</mgrwt>
</event>
<event>
 6    1  0.1001928E-005  0.2249672E+04  0.7818608E-02  0.8498033E-01
          1   -1    0    0  501    0  0.00000000000E+00  0.00000000000E+00  0.83191599482E+03  0.83191599482E+03  0.00000000000E+00 0. -1.
         -1   -1    0    0    0  501 -0.00000000000E+00 -0.00000000000E+00 -0.15208941866E+04  0.15208941866E+04  0.00000000000E+00 0.  1.
         23    2    1    2    0    0 -0.54054384160E+03  0.81818034700E+03  0.22708585082E+03  0.10108787170E+04  0.93279536927E+02 0.  0.
         11    1    3    3    0    0 -0.69913252204E+02  0.93214036949E+02  0.58027436660E+02  0.13016874787E+03  0.00000000000E+00 0. -1.
        -11    1    3    3    0    0 -0.47063058940E+03  0.72496631006E+03  0.16905841416E+03  0.88070996917E+03  0.00000000000E+00 0.  1.
         22    1    1    2    0    0  0.54054384160E+03 -0.81818034700E+03 -0.91606404259E+03  0.13419314644E+04  0.00000000000E+00 0. -1.
<mgrwt>
<rscale>  0 0.22496722E+04</rscale>
<asrwt>0</asrwt>
<pdfrwt beam="1">  1        1 0.12798708E+00 0.22496722E+04</pdfrwt>
<pdfrwt beam="2">  1       -1 0.23398372E+00 0.22496722E+04</pdfrwt>
<totfact> 0.16730603E+00</totfact>
</mgrwt>
</event>
<event>
 6    1  0.1450383E-005  0.2802669E+04  0.7818608E-02  0.8302440E-01
          2   -1    0    0  501    0  0.00000000000E+00  0.00000000000E+00  0.21015861625E+04  0.21015861625E+04  0.00000000000E+00 0. -1.
         -2   -1    0    0    0  501 -0.00000000000E+00 -0.00000000000E+00 -0.93440751306E+03  0.93440751306E+03  0.00000000000E+00 0.  1.
         23    2    1    2    0    0  0.10385912136E+03  0.77249210567E+03  0.18438193510E+04  0.20038244019E+04  0.90064776929E+02 0.  0.
         13    1    3    3    0    0  0.86583222959E+02  0.34104864627E+03  0.87771743128E+03  0.94562081343E+03  0.00000000000E+00 0. -1.
        -13    1    3    3    0    0  0.17275898405E+02  0.43144345940E+03  0.96610191973E+03  0.10582035885E+04  0.00000000000E+00 0.  1.
         22    1    1    2    0    0 -0.10385912136E+03 -0.77249210567E+03 -0.67664070159E+03  0.10321692736E+04  0.00000000000E+00 0.  1.
<mgrwt>
<rscale>  0 0.28026687E+04</rscale>
<asrwt>0</asrwt>
<pdfrwt beam="1">  1        2 0.32332095E+00 0.28026687E+04</pdfrwt>
<pdfrwt beam="2">  1       -2 0.14375500E+00 0.28026687E+04</pdfrwt>
<totfact> 0.17098878E+00</totfact>
</mgrwt>
</event>
<event>
 6    1  0.1001928E-005  0.1470436E+04  0.7818608E-02  0.8904354E-01
         -2   -1    0    0    0  501 -0.00000000000E+00  0.00000000000E+00  0.27057852496E+03  0.27057852496E+03  0.00000000000E+00 0.  1.
          2   -1    0    0  501    0  0.00000000000E+00 -0.00000000000E+00 -0.19977390243E+04  0.19977390243E+04  0.00000000000E+00 0. -1.
         23    2    1    2    0    0 -0.12942227163E+03  0.49843521507E+03 -0.16703876247E+04  0.17502336301E+04  0.89079488030E+02 0.  0.
         11    1    3    3    0    0 -0.11661502036E+03  0.43499892442E+03 -0.13426670509E+04  0.14161842878E+04  0.00000000000E+00 0.  1.
        -11    1    3    3    0    0 -0.12807251276E+02  0.63436290649E+02 -0.32772057373E+03  0.33404934231E+03  0.00000000000E+00 0. -1.
         22    1    1    2    0    0  0.12942227163E+03 -0.49843521507E+03 -0.56772874667E+02  0.51808391918E+03  0.00000000000E+00 0.  1.
<mgrwt>
<rscale>  0 0.14704357E+04</rscale>
<asrwt>0</asrwt>
<pdfrwt beam="1">  1        2 0.30734447E+00 0.14704357E+04</pdfrwt>
<pdfrwt beam="2">  1       -2 0.41627464E-01 0.14704357E+04</pdfrwt>
<totfact> 0.35493143E+01</totfact>
</mgrwt>
</event>
<event>
 6    1  0.1001928E-005  0.1139603E+04  0.7818608E-02  0.9167429E-01
          1   -1    0    0  501    0  0.00000000000E+00  0.00000000000E+00  0.56183874071E+03  0.56183874071E+03  0.00000000000E+00 0. -1.
         -1   -1    0    0    0  501 -0.00000000000E+00 -0.00000000000E+00 -0.57787682438E+03  0.57787682438E+03  0.00000000000E+00 0.  1.
         23    2    1    2    0    0 -0.40295868184E+03 -0.93617143078E+02 -0.39455608657E+03  0.57898769235E+03  0.91718993117E+02 0.  0.
         13    1    3    3    0    0 -0.31418957478E+03 -0.70904315694E+02 -0.35454586847E+03  0.47900447152E+03  0.00000000000E+00 0.  1.
        -13    1    3    3    0    0 -0.88769107060E+02 -0.22712827384E+02 -0.40010218095E+02  0.99983220832E+02  0.00000000000E+00 0. -1.
         22    1    1    2    0    0  0.40295868184E+03  0.93617143078E+02  0.37851800290E+03  0.56072787274E+03  0.00000000000E+00 0. -1.
<mgrwt>
<rscale>  0 0.11396027E+04</rscale>
<asrwt>0</asrwt>
<pdfrwt beam="1">  1        1 0.86436730E-01 0.11396027E+04</pdfrwt>
<pdfrwt beam="2">  1       -1 0.88904126E-01 0.11396027E+04</pdfrwt>
<totfact> 0.46448690E+01</totfact>
</mgrwt>
</event>
<event>
 6    1  0.1001928E-005  0.1680809E+04  0.7818608E-02  0.8772386E-01
         -2   -1    0    0    0  501 -0.00000000000E+00  0.00000000000E+00  0.24899911484E+04  0.24899911484E+04  0.00000000000E+00 0.  1.
          2   -1    0    0  501    0  0.00000000000E+00 -0.00000000000E+00 -0.28364757305E+03  0.28364757305E+03  0.00000000000E+00 0. -1.
         23    2    1    2    0    0  0.45078033123E+03 -0.31686430710E+03  0.21481628205E+04  0.22195711296E+04  0.91030761621E+02 0.  0.
         13    1    3    3    0    0  0.18599968659E+03 -0.16018811569E+03  0.11077612211E+04  0.11346325568E+04  0.00000000000E+00 0.  1.
        -13    1    3    3    0    0  0.26478064464E+03 -0.15667619140E+03  0.10404015994E+04  0.10849385728E+04  0.00000000000E+00 0. -1.
         22    1    1    2    0    0 -0.45078033123E+03  0.31686430710E+03  0.58180754801E+02  0.55406759187E+03  0.00000000000E+00 0. -1.
<mgrwt>
<rscale>  0 0.16808093E+04</rscale>
<asrwt>0</asrwt>
<pdfrwt beam="1">  1        2 0.43638090E-01 0.16808093E+04</pdfrwt>
<pdfrwt beam="2">  1       -2 0.38307555E+00 0.16808093E+04</pdfrwt>
<totfact> 0.10717312E+00</totfact>
</mgrwt>
</event>
<event>
 6    1  0.1001928E-005  0.2141814E+04  0.7818608E-02  0.8543044E-01
          2   -1    0    0  501    0  0.00000000000E+00  0.00000000000E+00  0.16927657934E+04  0.16927657934E+04  0.00000000000E+00 0. -1.
         -2   -1    0    0    0  501 -0.00000000000E+00 -0.00000000000E+00 -0.67749604232E+03  0.67749604232E+03  0.00000000000E+00 0.  1.
         23    2    1    2    0    0 -0.39108102738E+03  0.65503526231E+03 -0.32012052064E+03  0.83231426098E+03  0.90853268745E+02 0.  0.
         13    1    3    3    0    0 -0.24293493353E+03  0.45824335980E+03 -0.25264745859E+03  0.57691862257E+03  0.00000000000E+00 0. -1.
        -13    1    3    3    0    0 -0.14814609385E+03  0.19679190251E+03 -0.67473062047E+02  0.25539563841E+03  0.00000000000E+00 0.  1.
         22    1    1    2    0    0  0.39108102738E+03 -0.65503526231E+03  0.13353902717E+04  0.15379475748E+04  0.00000000000E+00 0. -1.
<mgrwt>
<rscale>  0 0.21418143E+04</rscale>
<asrwt>0</asrwt>
<pdfrwt beam="1">  1        2 0.26042551E+00 0.21418143E+04</pdfrwt>
<pdfrwt beam="2">  1       -2 0.10423016E+00 0.21418143E+04</pdfrwt>
<totfact> 0.68019409E+00</totfact>
</mgrwt>
</event>
<event>
 6    1  0.1001928E-005  0.2327847E+04  0.7818608E-02  0.8467022E-01
         -1   -1    0    0    0  501 -0.00000000000E+00  0.00000000000E+00  0.12391470934E+04  0.12391470934E+04  0.00000000000E+00 0.  1.
          1   -1    0    0  501    0  0.00000000000E+00 -0.00000000000E+00 -0.10932662145E+04  0.10932662145E+04  0.00000000000E+00 0. -1.
         23    2    1    2    0    0  0.77272235363E+03 -0.42786990511E+03  0.82985558643E+03  0.12152768382E+04  0.89805387830E+02 0.  0.
         13    1    3    3    0    0  0.48051913226E+02 -0.46677312723E+02  0.42554634830E+02  0.79364065126E+02  0.00000000000E+00 0. -1.
        -13    1    3    3    0    0  0.72467044040E+03 -0.38119259238E+03  0.78730095160E+03  0.11359127731E+04  0.00000000000E+00 0.  1.
         22    1    1    2    0    0 -0.77272235363E+03  0.42786990511E+03 -0.68397470746E+03  0.11171364697E+04  0.00000000000E+00 0. -1.
<mgrwt>
<rscale>  0 0.23278468E+04</rscale>
<asrwt>0</asrwt>
<pdfrwt beam="1">  1        1 0.16819480E+00 0.23278468E+04</pdfrwt>
<pdfrwt beam="2">  1       -1 0.19063801E+00 0.23278468E+04</pdfrwt>
<totfact> 0.20229826E+00</totfact>
</mgrwt>
</event>
<event>
 6    1  0.1001928E-005  0.3165825E+04  0.7818608E-02  0.8197902E-01
          2   -1    0    0  501    0  0.00000000000E+00  0.00000000000E+00  0.17422847782E+04  0.17422847782E+04  0.00000000000E+00 0.  1.
         -2   -1    0    0    0  501 -0.00000000000E+00 -0.00000000000E+00 -0.14381182118E+04  0.14381182118E+04  0.00000000000E+00 0. -1.
         23    2    1    2    0    0 -0.14429390094E+04  0.62591173312E+03 -0.14659849833E+02  0.15755700497E+04  0.91474520750E+02 0.  0.
         11    1    3    3    0    0 -0.75716921353E+03  0.37758386865E+03 -0.14790416614E+02  0.84622311018E+03  0.00000000000E+00 0. -1.
        -11    1    3    3    0    0 -0.68576979587E+03  0.24832786447E+03  0.13056678052E+00  0.72934693956E+03  0.00000000000E+00 0.  1.
         22    1    1    2    0    0  0.14429390094E+04 -0.62591173312E+03  0.31882641629E+03  0.16048329403E+04  0.00000000000E+00 0.  1.
<mgrwt>
<rscale>  0 0.31658247E+04</rscale>
<asrwt>0</asrwt>
<pdfrwt beam="1">  1        2 0.26804381E+00 0.31658247E+04</pdfrwt>
<pdfrwt beam="2">  1       -2 0.22124895E+00 0.31658247E+04</pdfrwt>
<totfact> 0.76140164E-01</totfact>
</mgrwt>
</event>
<event>
 6    1  0.1001928E-005  0.1583295E+04  0.7818608E-02  0.8830877E-01
          2   -1    0    0  501    0  0.00000000000E+00  0.00000000000E+00  0.15626525686E+04  0.15626525686E+04  0.00000000000E+00 0. -1.
         -2   -1    0    0    0  501 -0.00000000000E+00 -0.00000000000E+00 -0.40105247108E+03  0.40105247108E+03  0.00000000000E+00 0.  1.
         23    2    1    2    0    0 -0.14082584799E+02 -0.67018728634E+03  0.10990204031E+04  0.12904550593E+04  0.89883789509E+02 0.  0.
         13    1    3    3    0    0  0.16801098625E+02 -0.59242654275E+03  0.96248969230E+03  0.11303264543E+04  0.00000000000E+00 0. -1.
        -13    1    3    3    0    0 -0.30883683424E+02 -0.77760743594E+02  0.13653071081E+03  0.16012860500E+03  0.00000000000E+00 0.  1.
         22    1    1    2    0    0  0.14082584799E+02  0.67018728634E+03  0.62579694427E+02  0.67324998041E+03  0.00000000000E+00 0.  1.
<mgrwt>
<rscale>  0 0.15832949E+04</rscale>
<asrwt>0</asrwt>
<pdfrwt beam="1">  1        2 0.24040808E+00 0.15832949E+04</pdfrwt>
<pdfrwt beam="2">  1       -2 0.61700381E-01 0.15832949E+04</pdfrwt>
<totfact> 0.27422154E+01</totfact>
</mgrwt>
</event>
<event>
 6    1  0.1001928E-005  0.2847177E+04  0.7818608E-02  0.8288770E-01
          1   -1    0    0  501    0  0.00000000000E+00  0.00000000000E+00  0.84637251466E+03  0.84637251466E+03  0.00000000000E+00 0. -1.
         -1   -1    0    0    0  501 -0.00000000000E+00 -0.00000000000E+00 -0.23944585338E+04  0.23944585338E+04  0.00000000000E+00 0.  1.
         23    2    1    2    0    0 -0.10042701523E+04 -0.22632660457E+03 -0.18917804907E+04  0.21555162737E+04  0.87376829746E+02 0.  0.
         11    1    3    3    0    0 -0.51421857851E+03 -0.15784969481E+03 -0.10169308709E+04  0.11504284718E+04  0.00000000000E+00 0. -1.
        -11    1    3    3    0    0 -0.49005157374E+03 -0.68476909765E+02 -0.87484961981E+03  0.10050878018E+04  0.00000000000E+00 0.  1.
         22    1    1    2    0    0  0.10042701523E+04  0.22632660457E+03  0.34369447155E+03  0.10853147748E+04  0.00000000000E+00 0. -1.
<mgrwt>
<rscale>  0 0.28471768E+04</rscale>
<asrwt>0</asrwt>
<pdfrwt beam="1">  1        1 0.13021116E+00 0.28471768E+04</pdfrwt>
<pdfrwt beam="2">  1       -1 0.36837823E+00 0.28471768E+04</pdfrwt>
<totfact> 0.20370536E-01</totfact>
</mgrwt>
</event>
<event>
 6    1  0.1001928E-005  0.2939957E+04  0.7818608E-02  0.8261087E-01
          2   -1    0    0  501    0  0.00000000000E+00  0.00000000000E+00  0.26013195063E+04  0.26013195063E+04  0.00000000000E+00 0. -1.
         -2   -1    0    0    0  501 -0.00000000000E+00 -0.00000000000E+00 -0.83066953753E+03  0.83066953753E+03  0.00000000000E+00 0.  1.
         23    2    1    2    0    0  0.32595688350E+03 -0.10943140298E+04 -0.19203373718E+03  0.11613286960E+04  0.89645401908E+02 0.  0.
         13    1    3    3    0    0  0.82127911643E+02 -0.17474212147E+03 -0.49870328110E+02  0.19941627945E+03  0.00000000000E+00 0. -1.
        -13    1    3    3    0    0  0.24382897185E+03 -0.91957190836E+03 -0.14216340906E+03  0.96191241651E+03  0.00000000000E+00 0.  1.
         22    1    1    2    0    0 -0.32595688350E+03  0.10943140298E+04  0.19626837059E+04  0.22706603479E+04  0.00000000000E+00 0. -1.
<mgrwt>
<rscale>  0 0.29399571E+04</rscale>
<asrwt>0</asrwt>
<pdfrwt beam="1">  1        2 0.40020300E+00 0.29399571E+04</pdfrwt>
<pdfrwt beam="2">  1       -2 0.12779532E+00 0.29399571E+04</pdfrwt>
<totfact> 0.11847747E+00</totfact>
</mgrwt>
</event>
<event>
 6    1  0.1001928E-005  0.3248331E+04  0.7818608E-02  0.8176168E-01
         -2   -1    0    0    0  501 -0.00000000000E+00  0.00000000000E+00  0.41841923882E+04  0.41841923882E+04  0.00000000000E+00 0.  1.
          2   -1    0    0  501    0  0.00000000000E+00 -0.00000000000E+00 -0.63044753211E+03  0.63044753211E+03  0.00000000000E+00 0. -1.
         23    2    1    2    0    0  0.15150015131E+04  0.13987047106E+02  0.91595350288E+03  0.17727049366E+04  0.89926360849E+02 0.  0.
         11    1    3    3    0    0  0.28237400228E+03 -0.12474358533E+02  0.13468700440E+03  0.31309946652E+03  0.00000000000E+00 0. -1.
        -11    1    3    3    0    0  0.12326275109E+04  0.26461405639E+02  0.78126649848E+03  0.14596054700E+04  0.00000000000E+00 0.  1.
         22    1    1    2    0    0 -0.15150015131E+04 -0.13987047106E+02  0.26377913532E+04  0.30419349837E+04  0.00000000000E+00 0.  1.
<mgrwt>
<rscale>  0 0.32483311E+04</rscale>
<asrwt>0</asrwt>
<pdfrwt beam="1">  1        2 0.96991930E-01 0.32483311E+04</pdfrwt>
<pdfrwt beam="2">  1       -2 0.64372189E+00 0.32483311E+04</pdfrwt>
<totfact> 0.13677194E-02</totfact>
</mgrwt>
</event>
<event>
 6    1  0.1001928E-005  0.5806314E+03  0.7818608E-02  0.9946425E-01
         -3   -1    0    0    0  501 -0.00000000000E+00  0.00000000000E+00  0.49111040920E+03  0.49111040920E+03  0.00000000000E+00 0.  1.
          3   -1    0    0  501    0  0.00000000000E+00 -0.00000000000E+00 -0.17161765957E+03  0.17161765957E+03  0.00000000000E+00 0. -1.
         23    2    1    2    0    0 -0.20595267288E+03  0.48736676030E+02 -0.50804583447E+02  0.23621677708E+03  0.91790484367E+02 0.  0.
         11    1    3    3    0    0 -0.34995859557E+02  0.19492395467E+02 -0.48311502589E+02  0.62758783844E+02  0.00000000000E+00 0.  1.
        -11    1    3    3    0    0 -0.17095681332E+03  0.29244280564E+02 -0.24930808580E+01  0.17345799324E+03  0.00000000000E+00 0. -1.
         22    1    1    2    0    0  0.20595267288E+03 -0.48736676030E+02  0.37029733307E+03  0.42651129169E+03  0.00000000000E+00 0.  1.
<mgrwt>
<rscale>  0 0.58063145E+03</rscale>
<asrwt>0</asrwt>
<pdfrwt beam="1">  1        3 0.26402717E-01 0.58063145E+03</pdfrwt>
<pdfrwt beam="2">  1       -3 0.75555447E-01 0.58063145E+03</pdfrwt>
<totfact> 0.59740315E+01</totfact>
</mgrwt>
</event>
<event>
 6    1  0.1001928E-005  0.1919276E+04  0.7818608E-02  0.8645320E-01
          1   -1    0    0  501    0  0.00000000000E+00  0.00000000000E+00  0.31012862852E+04  0.31012862852E+04  0.00000000000E+00 0. -1.
         -1   -1    0    0    0  501 -0.00000000000E+00 -0.00000000000E+00 -0.29694306458E+03  0.29694306458E+03  0.00000000000E+00 0.  1.
         23    2    1    2    0    0  0.59472693183E+03 -0.35178416769E+03  0.23150367546E+03  0.73421817315E+03  0.89611103916E+02 0.  0.
         13    1    3    3    0    0  0.37207758550E+03 -0.17266261319E+03  0.15392212863E+03  0.43811657045E+03  0.00000000000E+00 0. -1.
        -13    1    3    3    0    0  0.22264934633E+03 -0.17912155451E+03  0.77581546836E+02  0.29610160270E+03  0.00000000000E+00 0.  1.
         22    1    1    2    0    0 -0.59472693183E+03  0.35178416769E+03  0.25728395452E+04  0.26640111767E+04  0.00000000000E+00 0. -1.
<mgrwt>
<rscale>  0 0.19192764E+04</rscale>
<asrwt>0</asrwt>
<pdfrwt beam="1">  1        1 0.47712094E+00 0.19192764E+04</pdfrwt>
<pdfrwt beam="2">  1       -1 0.45683551E-01 0.19192764E+04</pdfrwt>
<totfact> 0.22457665E+00</totfact>
</mgrwt>
</event>
<event>
 6    1  0.1001928E-005  0.4538275E+04  0.7818608E-02  0.7903970E-01
          1   -1    0    0  501    0  0.00000000000E+00  0.00000000000E+00  0.25897277102E+04  0.25897277102E+04  0.00000000000E+00 0. -1.
         -1   -1    0    0    0  501 -0.00000000000E+00 -0.00000000000E+00 -0.19882337370E+04  0.19882337370E+04  0.00000000000E+00 0.  1.
         23    2    1    2    0    0 -0.16143090722E+04  0.97965459697E+03 -0.96677502274E+03  0.21233363123E+04  0.90477845263E+02 0.  0.
         11    1    3    3    0    0 -0.12501509469E+04  0.72941259640E+03 -0.77291517646E+03  0.16408284480E+04  0.00000000000E+00 0.  1.
        -11    1    3    3    0    0 -0.36415812530E+03  0.25024200057E+03 -0.19385984628E+03  0.48250786426E+03  0.00000000000E+00 0. -1.
         22    1    1    2    0    0  0.16143090722E+04 -0.97965459697E+03  0.15682689959E+04  0.24546251350E+04  0.00000000000E+00 0. -1.
<mgrwt>
<rscale>  0 0.45382746E+04</rscale>
<asrwt>0</asrwt>
<pdfrwt beam="1">  1        1 0.39841965E+00 0.45382746E+04</pdfrwt>
<pdfrwt beam="2">  1       -1 0.30588211E+00 0.45382746E+04</pdfrwt>
<totfact> 0.26580039E-02</totfact>
</mgrwt>
</event>
<event>
 6    1  0.1001928E-005  0.1768700E+04  0.7818608E-02  0.8723124E-01
         -1   -1    0    0    0  501 -0.00000000000E+00  0.00000000000E+00  0.78680280678E+03  0.78680280678E+03  0.00000000000E+00 0.  1.
          1   -1    0    0  501    0  0.00000000000E+00 -0.00000000000E+00 -0.99399148432E+03  0.99399148432E+03  0.00000000000E+00 0. -1.
         23    2    1    2    0    0 -0.12183473316E+03  0.11428668228E+03  0.76808841837E+03  0.79131434601E+03  0.91178000725E+02 0.  0.
         13    1    3    3    0    0 -0.90561815829E+02  0.57285043103E+02  0.29659935889E+03  0.31536359705E+03  0.00000000000E+00 0.  1.
        -13    1    3    3    0    0 -0.31272917332E+02  0.57001639174E+02  0.47148905948E+03  0.47595074896E+03  0.00000000000E+00 0. -1.
         22    1    1    2    0    0  0.12183473316E+03 -0.11428668228E+03 -0.97527709590E+03  0.98947994509E+03  0.00000000000E+00 0. -1.
<mgrwt>
<rscale>  0 0.17687004E+04</rscale>
<asrwt>0</asrwt>
<pdfrwt beam="1">  1        1 0.15292177E+00 0.17687004E+04</pdfrwt>
<pdfrwt beam="2">  1       -1 0.12104659E+00 0.17687004E+04</pdfrwt>
<totfact> 0.87716059E+00</totfact>
</mgrwt>
</event>
<event>
 6    1  0.1001928E-005  0.2494701E+04  0.7818608E-02  0.8404876E-01
          2   -1    0    0  501    0  0.00000000000E+00  0.00000000000E+00  0.31302510433E+04  0.31302510433E+04  0.00000000000E+00 0.  1.
         -2   -1    0    0    0  501 -0.00000000000E+00 -0.00000000000E+00 -0.49704746119E+03  0.49704746119E+03  0.00000000000E+00 0. -1.
         23    2    1    2    0    0 -0.14254563205E+02 -0.12247339689E+04  0.99060478796E+03  0.15783213730E+04  0.98102106976E+02 0.  0.
         13    1    3    3    0    0  0.37312968376E+02 -0.33398386593E+03  0.25243958354E+03  0.42031324467E+03  0.00000000000E+00 0.  1.
        -13    1    3    3    0    0 -0.51567531581E+02 -0.89075010292E+03  0.73816520442E+03  0.11580081283E+04  0.00000000000E+00 0. -1.
         22    1    1    2    0    0  0.14254563205E+02  0.12247339689E+04  0.16425987942E+04  0.20489771316E+04  0.00000000000E+00 0. -1.
<mgrwt>
<rscale>  0 0.24947011E+04</rscale>
<asrwt>0</asrwt>
<pdfrwt beam="1">  1        2 0.48157707E+00 0.24947011E+04</pdfrwt>
<pdfrwt beam="2">  1       -2 0.76468842E-01 0.24947011E+04</pdfrwt>
<totfact> 0.19645700E+00</totfact>
</mgrwt>
</event>
<event>
 6    1  0.1001928E-005  0.1954780E+04  0.7818608E-02  0.8628059E-01
          2   -1    0    0  501    0  0.00000000000E+00  0.00000000000E+00  0.24478314520E+04  0.24478314520E+04  0.00000000000E+00 0. -1.
         -2   -1    0    0    0  501 -0.00000000000E+00 -0.00000000000E+00 -0.39026036696E+03  0.39026036696E+03  0.00000000000E+00 0.  1.
         23    2    1    2    0    0 -0.75427999989E+02 -0.82994839200E+03  0.17666009687E+04  0.19553872675E+04  0.90314266948E+02 0.  0.
         13    1    3    3    0    0 -0.30870643346E+02 -0.25862340956E+03  0.45953060873E+03  0.52821155322E+03  0.00000000000E+00 0.  1.
        -13    1    3    3    0    0 -0.44557356643E+02 -0.57132498244E+03  0.13070703599E+04  0.14271757143E+04  0.00000000000E+00 0. -1.
         22    1    1    2    0    0  0.75427999989E+02  0.82994839200E+03  0.29097011640E+03  0.88270455148E+03  0.00000000000E+00 0.  1.
<mgrwt>
<rscale>  0 0.19547804E+04</rscale>
<asrwt>0</asrwt>
<pdfrwt beam="1">  1        2 0.37658944E+00 0.19547804E+04</pdfrwt>
<pdfrwt beam="2">  1       -2 0.60040058E-01 0.19547804E+04</pdfrwt>
<totfact> 0.90037999E+00</totfact>
</mgrwt>
</event>
<event>
 6    1  0.1001928E-005  0.1668046E+04  0.7818608E-02  0.8779802E-01
          2   -1    0    0  501    0  0.00000000000E+00  0.00000000000E+00  0.20928162213E+04  0.20928162213E+04  0.00000000000E+00 0. -1.
         -2   -1    0    0    0  501 -0.00000000000E+00 -0.00000000000E+00 -0.33237246410E+03  0.33237246410E+03  0.00000000000E+00 0.  1.
         23    2    1    2    0    0  0.40128414746E+03  0.72214105291E+03  0.10200139860E+04  0.13157956471E+04  0.91504022155E+02 0.  0.
         11    1    3    3    0    0  0.23326831610E+03  0.37627832218E+03  0.60958671336E+03  0.75338930451E+03  0.00000000000E+00 0. -1.
        -11    1    3    3    0    0  0.16801583136E+03  0.34586273073E+03  0.41042727261E+03  0.56240634260E+03  0.00000000000E+00 0.  1.
         22    1    1    2    0    0 -0.40128414746E+03 -0.72214105291E+03  0.74042977122E+03  0.11093930383E+04  0.00000000000E+00 0.  1.
<mgrwt>
<rscale>  0 0.16680461E+04</rscale>
<asrwt>0</asrwt>
<pdfrwt beam="1">  1        2 0.32197172E+00 0.16680461E+04</pdfrwt>
<pdfrwt beam="2">  1       -2 0.51134227E-01 0.16680461E+04</pdfrwt>
<totfact> 0.20453731E+01</totfact>
</mgrwt>
</event>
<event>
 6    1  0.1001928E-005  0.2038878E+04  0.7818608E-02  0.8588657E-01
         -1   -1    0    0    0  501 -0.00000000000E+00  0.00000000000E+00  0.10769358541E+04  0.10769358541E+04  0.00000000000E+00 0.  1.
          1   -1    0    0  501    0  0.00000000000E+00 -0.00000000000E+00 -0.96501157547E+03  0.96501157547E+03  0.00000000000E+00 0. -1.
         23    2    1    2    0    0  0.22186363763E+03  0.46120556846E+03 -0.82449356651E+03  0.97479587952E+03  0.92213423280E+02 0.  0.
         13    1    3    3    0    0  0.39640514071E+02  0.58196078576E+02 -0.17860684861E+03  0.19198583356E+03  0.00000000000E+00 0. -1.
        -13    1    3    3    0    0  0.18222312356E+03  0.40300948988E+03 -0.64588671789E+03  0.78281004595E+03  0.00000000000E+00 0.  1.
         22    1    1    2    0    0 -0.22186363763E+03 -0.46120556846E+03  0.93641784515E+03  0.10671515501E+04  0.00000000000E+00 0.  1.
<mgrwt>
<rscale>  0 0.20388777E+04</rscale>
<asrwt>0</asrwt>
<pdfrwt beam="1">  1        1 0.14846332E+00 0.20388777E+04</pdfrwt>
<pdfrwt beam="2">  1       -1 0.16568244E+00 0.20388777E+04</pdfrwt>
<totfact> 0.39485290E+00</totfact>
</mgrwt>
</event>
<event>
 6    1  0.1001928E-005  0.2492959E+04  0.7818608E-02  0.8405498E-01
          2   -1    0    0  501    0  0.00000000000E+00  0.00000000000E+00  0.11899717651E+04  0.11899717651E+04  0.00000000000E+00 0. -1.
         -2   -1    0    0    0  501 -0.00000000000E+00 -0.00000000000E+00 -0.13056706353E+04  0.13056706353E+04  0.00000000000E+00 0.  1.
         23    2    1    2    0    0  0.19046474297E+03 -0.11079160040E+03  0.11689723053E+04  0.11922116863E+04  0.79503820941E+02 0.  0.
         11    1    3    3    0    0  0.15583221586E+03 -0.75716115369E+02  0.72045594785E+03  0.74099485992E+03  0.00000000000E+00 0. -1.
        -11    1    3    3    0    0  0.34632527105E+02 -0.35075485029E+02  0.44851635741E+03  0.45121682642E+03  0.00000000000E+00 0.  1.
         22    1    1    2    0    0 -0.19046474297E+03  0.11079160040E+03 -0.12846711755E+04  0.13034307140E+04  0.00000000000E+00 0.  1.
<mgrwt>
<rscale>  0 0.24929590E+04</rscale>
<asrwt>0</asrwt>
<pdfrwt beam="1">  1        2 0.18307258E+00 0.24929590E+04</pdfrwt>
<pdfrwt beam="2">  1       -2 0.20087240E+00 0.24929590E+04</pdfrwt>
<totfact> 0.22494408E+00</totfact>
</mgrwt>
</event>
<event>
 6    1  0.1001928E-005  0.1937478E+04  0.7818608E-02  0.8636423E-01
         -1   -1    0    0    0  501 -0.00000000000E+00  0.00000000000E+00  0.10064640076E+04  0.10064640076E+04  0.00000000000E+00 0.  1.
          1   -1    0    0  501    0  0.00000000000E+00 -0.00000000000E+00 -0.93242803857E+03  0.93242803857E+03  0.00000000000E+00 0. -1.
         23    2    1    2    0    0 -0.11528942468E+03  0.39275372575E+03  0.91337524856E+03  0.10050625293E+04  0.91373970779E+02 0.  0.
         13    1    3    3    0    0 -0.24420423931E+02  0.20448009192E+03  0.38062955083E+03  0.43276705057E+03  0.00000000000E+00 0.  1.
        -13    1    3    3    0    0 -0.90869000752E+02  0.18827363383E+03  0.53274569773E+03  0.57229547870E+03  0.00000000000E+00 0. -1.
         22    1    1    2    0    0  0.11528942468E+03 -0.39275372575E+03 -0.83933927951E+03  0.93382951692E+03  0.00000000000E+00 0. -1.
<mgrwt>
<rscale>  0 0.19374780E+04</rscale>
<asrwt>0</asrwt>
<pdfrwt beam="1">  1        1 0.14345047E+00 0.19374780E+04</pdfrwt>
<pdfrwt beam="2">  1       -1 0.15484062E+00 0.19374780E+04</pdfrwt>
<totfact> 0.51109692E+00</totfact>
</mgrwt>
</event>
<event>
 6    1  0.1001928E-005  0.1909482E+04  0.7818608E-02  0.8650151E-01
         -2   -1    0    0    0  501 -0.00000000000E+00  0.00000000000E+00  0.78825684031E+03  0.78825684031E+03  0.00000000000E+00 0.  1.
          2   -1    0    0  501    0  0.00000000000E+00 -0.00000000000E+00 -0.11563881194E+04  0.11563881194E+04  0.00000000000E+00 0. -1.
         23    2    1    2    0    0 -0.76654395689E+03  0.47611322816E+03  0.12613890320E+03  0.91577351148E+03  0.91960086727E+02 0.  0.
         11    1    3    3    0    0 -0.42949067589E+03  0.28261350885E+03  0.11567397189E+03  0.52698491803E+03  0.00000000000E+00 0. -1.
        -11    1    3    3    0    0 -0.33705328100E+03  0.19349971932E+03  0.10464931307E+02  0.38878859345E+03  0.00000000000E+00 0.  1.
         22    1    1    2    0    0  0.76654395689E+03 -0.47611322816E+03 -0.49427018228E+03  0.10288714482E+04  0.00000000000E+00 0. -1.
<mgrwt>
<rscale>  0 0.19094825E+04</rscale>
<asrwt>0</asrwt>
<pdfrwt beam="1">  1        2 0.17790587E+00 0.19094825E+04</pdfrwt>
<pdfrwt beam="2">  1       -2 0.12127028E+00 0.19094825E+04</pdfrwt>
<totfact> 0.97418925E+00</totfact>
</mgrwt>
</event>
<event>
 6    1  0.1001928E-005  0.2021001E+04  0.7818608E-02  0.8596865E-01
          2   -1    0    0  501    0  0.00000000000E+00  0.00000000000E+00  0.85722447933E+03  0.85722447933E+03  0.00000000000E+00 0. -1.
         -2   -1    0    0    0  501 -0.00000000000E+00 -0.00000000000E+00 -0.11911828938E+04  0.11911828938E+04  0.00000000000E+00 0.  1.
         23    2    1    2    0    0  0.81571040468E+03  0.26360137787E+03  0.37103139143E+03  0.93850657707E+03  0.90890874413E+02 0.  0.
         13    1    3    3    0    0  0.46334095007E+03  0.19461461128E+03  0.23112571486E+03  0.55315348594E+03  0.00000000000E+00 0. -1.
        -13    1    3    3    0    0  0.35236945460E+03  0.68986766594E+02  0.13990567658E+03  0.38535309113E+03  0.00000000000E+00 0.  1.
         22    1    1    2    0    0 -0.81571040468E+03 -0.26360137787E+03 -0.70498980593E+03  0.11099007961E+04  0.00000000000E+00 0.  1.
<mgrwt>
<rscale>  0 0.20210009E+04</rscale>
<asrwt>0</asrwt>
<pdfrwt beam="1">  1        2 0.13188069E+00 0.20210009E+04</pdfrwt>
<pdfrwt beam="2">  1       -2 0.18325891E+00 0.20210009E+04</pdfrwt>
<totfact> 0.50085613E+00</totfact>
</mgrwt>
</event>
<event>
 6    1  0.1001928E-005  0.2300989E+04  0.7818608E-02  0.8477531E-01
          2   -1    0    0  501    0  0.00000000000E+00  0.00000000000E+00  0.10458886873E+04  0.10458886873E+04  0.00000000000E+00 0. -1.
         -2   -1    0    0    0  501 -0.00000000000E+00 -0.00000000000E+00 -0.12655620417E+04  0.12655620417E+04  0.00000000000E+00 0.  1.
         23    2    1    2    0    0 -0.32937135679E+02  0.90418987801E+03 -0.82167408017E+03  0.12246899162E+04  0.77928855312E+02 0.  0.
         13    1    3    3    0    0 -0.34720588204E+02  0.57979716169E+03 -0.47952178065E+03  0.75320077407E+03  0.00000000000E+00 0. -1.
        -13    1    3    3    0    0  0.17834525241E+01  0.32439271632E+03 -0.34215229951E+03  0.47148914215E+03  0.00000000000E+00 0.  1.
         22    1    1    2    0    0  0.32937135679E+02 -0.90418987801E+03  0.60200072576E+03  0.10867608128E+04  0.00000000000E+00 0. -1.
<mgrwt>
<rscale>  0 0.23009885E+04</rscale>
<asrwt>0</asrwt>
<pdfrwt beam="1">  1        2 0.16090595E+00 0.23009885E+04</pdfrwt>
<pdfrwt beam="2">  1       -2 0.19470185E+00 0.23009885E+04</pdfrwt>
<totfact> 0.30772720E+00</totfact>
</mgrwt>
</event>
<event>
 6    1  0.1001928E-005  0.1411247E+04  0.7818608E-02  0.8945717E-01
         -3   -1    0    0    0  501 -0.00000000000E+00  0.00000000000E+00  0.82332575835E+03  0.82332575835E+03  0.00000000000E+00 0.  1.
          3   -1    0    0  501    0  0.00000000000E+00 -0.00000000000E+00 -0.60474788067E+03  0.60474788067E+03  0.00000000000E+00 0. -1.
         23    2    1    2    0    0 -0.18325688102E+03  0.28369752128E+03 -0.51377140205E+03  0.62159807488E+03  0.91409764818E+02 0.  0.
         11    1    3    3    0    0 -0.93527991811E+01  0.15352818122E+02 -0.84080406239E+02  0.85980803614E+02  0.00000000000E+00 0. -1.
        -11    1    3    3    0    0 -0.17390408184E+03  0.26834470316E+03 -0.42969099581E+03  0.53561727127E+03  0.00000000000E+00 0.  1.
         22    1    1    2    0    0  0.18325688102E+03 -0.28369752128E+03  0.73234927974E+03  0.80647556414E+03  0.00000000000E+00 0.  1.
<mgrwt>
<rscale>  0 0.14112470E+04</rscale>
<asrwt>0</asrwt>
<pdfrwt beam="1">  1        3 0.93038136E-01 0.14112470E+04</pdfrwt>
<pdfrwt beam="2">  1       -3 0.12666550E+00 0.14112470E+04</pdfrwt>
<totfact> 0.13041032E+00</totfact>
</mgrwt>
</event>
<event>
 6    1  0.1001928E-005  0.2208048E+04  0.7818608E-02  0.8515086E-01
          1   -1    0    0  501    0  0.00000000000E+00  0.00000000000E+00  0.18063209353E+04  0.18063209353E+04  0.00000000000E+00 0. -1.
         -1   -1    0    0    0  501 -0.00000000000E+00 -0.00000000000E+00 -0.67477998598E+03  0.67477998598E+03  0.00000000000E+00 0.  1.
         23    2    1    2    0    0  0.64071939073E+03  0.74554980259E+03  0.68789638919E+01  0.98737054827E+03  0.92127268755E+02 0.  0.
         11    1    3    3    0    0  0.55749138341E+03  0.64834120967E+03 -0.25201865445E+02  0.85544029643E+03  0.00000000000E+00 0. -1.
        -11    1    3    3    0    0  0.83228007318E+02  0.97208592916E+02  0.32080829337E+02  0.13193025184E+03  0.00000000000E+00 0.  1.
         22    1    1    2    0    0 -0.64071939073E+03 -0.74554980259E+03  0.11246619854E+04  0.14937303730E+04  0.00000000000E+00 0. -1.
<mgrwt>
<rscale>  0 0.22080482E+04</rscale>
<asrwt>0</asrwt>
<pdfrwt beam="1">  1        1 0.27789553E+00 0.22080482E+04</pdfrwt>
<pdfrwt beam="2">  1       -1 0.10381231E+00 0.22080482E+04</pdfrwt>
<totfact> 0.32124934E+00</totfact>
</mgrwt>
</event>
<event>
 6    1  0.1001928E-005  0.3135805E+04  0.7818608E-02  0.8205980E-01
          1   -1    0    0  501    0  0.00000000000E+00  0.00000000000E+00  0.11907787642E+04  0.11907787642E+04  0.00000000000E+00 0. -1.
         -1   -1    0    0    0  501 -0.00000000000E+00 -0.00000000000E+00 -0.20644625858E+04  0.20644625858E+04  0.00000000000E+00 0.  1.
         23    2    1    2    0    0 -0.28253892580E+03 -0.13380273877E+04 -0.12305799643E+04  0.18419047336E+04  0.90224521443E+02 0.  0.
         13    1    3    3    0    0 -0.68589575138E+02 -0.19057607705E+03 -0.16099804283E+03  0.25873565807E+03  0.00000000000E+00 0. -1.
        -13    1    3    3    0    0 -0.21394935066E+03 -0.11474513106E+04 -0.10695819214E+04  0.15831690755E+04  0.00000000000E+00 0.  1.
         22    1    1    2    0    0  0.28253892580E+03  0.13380273877E+04  0.35689614261E+03  0.14133366165E+04  0.00000000000E+00 0. -1.
<mgrwt>
<rscale>  0 0.31358050E+04</rscale>
<asrwt>0</asrwt>
<pdfrwt beam="1">  1        1 0.18319674E+00 0.31358050E+04</pdfrwt>
<pdfrwt beam="2">  1       -1 0.31760962E+00 0.31358050E+04</pdfrwt>
<totfact> 0.23158945E-01</totfact>
</mgrwt>
</event>
<event>
 6    1  0.1001928E-005  0.2858232E+04  0.7818608E-02  0.8285414E-01
         -1   -1    0    0    0  501 -0.00000000000E+00  0.00000000000E+00  0.92673130171E+03  0.92673130171E+03  0.00000000000E+00 0.  1.
          1   -1    0    0  501    0  0.00000000000E+00 -0.00000000000E+00 -0.22038451542E+04  0.22038451542E+04  0.00000000000E+00 0. -1.
         23    2    1    2    0    0  0.62755942121E+03 -0.52654736164E+03  0.64130717489E+03  0.10445701785E+04  0.93643013682E+02 0.  0.
         11    1    3    3    0    0  0.49542196605E+03 -0.36867377174E+03  0.45705488713E+03  0.76828539246E+03  0.00000000000E+00 0. -1.
        -11    1    3    3    0    0  0.13213745516E+03 -0.15787358991E+03  0.18425228776E+03  0.27628478602E+03  0.00000000000E+00 0.  1.
         22    1    1    2    0    0 -0.62755942121E+03  0.52654736164E+03 -0.19184210274E+04  0.20860062774E+04  0.00000000000E+00 0. -1.
<mgrwt>
<rscale>  0 0.28582318E+04</rscale>
<asrwt>0</asrwt>
<pdfrwt beam="1">  1        1 0.33905309E+00 0.28582318E+04</pdfrwt>
<pdfrwt beam="2">  1       -1 0.14257405E+00 0.28582318E+04</pdfrwt>
<totfact> 0.74514547E-01</totfact>
</mgrwt>
</event>
<event>
 6    1  0.1001928E-005  0.1872542E+04  0.7818608E-02  0.8668646E-01
          1   -1    0    0  501    0  0.00000000000E+00  0.00000000000E+00  0.19227384639E+04  0.19227384639E+04  0.00000000000E+00 0. -1.
         -1   -1    0    0    0  501 -0.00000000000E+00 -0.00000000000E+00 -0.45591392936E+03  0.45591392936E+03  0.00000000000E+00 0.  1.
         23    2    1    2    0    0  0.70746628132E+03  0.28897446874E+03  0.14173980552E+04  0.16128470919E+04  0.90794890068E+02 0.  0.
         11    1    3    3    0    0  0.36135277413E+03  0.18231423284E+03  0.68076903125E+03  0.79199796766E+03  0.00000000000E+00 0. -1.
        -11    1    3    3    0    0  0.34611350719E+03  0.10666023590E+03  0.73662902397E+03  0.82084912422E+03  0.00000000000E+00 0.  1.
         22    1    1    2    0    0 -0.70746628132E+03 -0.28897446874E+03  0.49426479336E+02  0.76580530139E+03  0.00000000000E+00 0.  1.
<mgrwt>
<rscale>  0 0.18725419E+04</rscale>
<asrwt>0</asrwt>
<pdfrwt beam="1">  1        1 0.29580591E+00 0.18725419E+04</pdfrwt>
<pdfrwt beam="2">  1       -1 0.70140605E-01 0.18725419E+04</pdfrwt>
<totfact> 0.64790476E+00</totfact>
</mgrwt>
</event>
<event>
 6    1  0.1001928E-005  0.1682517E+04  0.7818608E-02  0.8771399E-01
          2   -1    0    0  501    0  0.00000000000E+00  0.00000000000E+00  0.28493089895E+04  0.28493089895E+04  0.00000000000E+00 0. -1.
         -2   -1    0    0    0  501 -0.00000000000E+00 -0.00000000000E+00 -0.24838172332E+03  0.24838172332E+03  0.00000000000E+00 0.  1.
         23    2    1    2    0    0 -0.70405767445E+03  0.19603434633E+03  0.20622617066E+04  0.21897880424E+04  0.90120198804E+02 0.  0.
         11    1    3    3    0    0 -0.31652409936E+03  0.11324357174E+03  0.83489871126E+03  0.90003748260E+03  0.00000000000E+00 0. -1.
        -11    1    3    3    0    0 -0.38753357509E+03  0.82790774589E+02  0.12273629953E+04  0.12897505598E+04  0.00000000000E+00 0.  1.
         22    1    1    2    0    0  0.70405767445E+03 -0.19603434633E+03  0.53866555959E+03  0.90790267043E+03  0.00000000000E+00 0.  1.
<mgrwt>
<rscale>  0 0.16825175E+04</rscale>
<asrwt>0</asrwt>
<pdfrwt beam="1">  1        2 0.43835521E+00 0.16825175E+04</pdfrwt>
<pdfrwt beam="2">  1       -2 0.38212575E-01 0.16825175E+04</pdfrwt>
<totfact> 0.13348763E+01</totfact>
</mgrwt>
</event>
<event>
 6    1  0.1001928E-005  0.3464052E+04  0.7818608E-02  0.8122362E-01
         -1   -1    0    0    0  501 -0.00000000000E+00  0.00000000000E+00  0.12898892595E+04  0.12898892595E+04  0.00000000000E+00 0.  1.
          1   -1    0    0  501    0  0.00000000000E+00 -0.00000000000E+00 -0.23257145459E+04  0.23257145459E+04  0.00000000000E+00 0. -1.
         23    2    1    2    0    0 -0.34483980102E+03 -0.16824124557E+04 -0.74280904817E+03  0.18733969649E+04  0.91786417827E+02 0.  0.
         13    1    3    3    0    0 -0.26905369443E+03 -0.13127824222E+04 -0.62044109143E+03  0.14767310949E+04  0.00000000000E+00 0.  1.
        -13    1    3    3    0    0 -0.75786106587E+02 -0.36963003348E+03 -0.12236795674E+03  0.39666587002E+03  0.00000000000E+00 0. -1.
         22    1    1    2    0    0  0.34483980102E+03  0.16824124557E+04 -0.29301623822E+03  0.17422068406E+04  0.00000000000E+00 0. -1.
<mgrwt>
<rscale>  0 0.34640521E+04</rscale>
<asrwt>0</asrwt>
<pdfrwt beam="1">  1        1 0.35780224E+00 0.34640521E+04</pdfrwt>
<pdfrwt beam="2">  1       -1 0.19844450E+00 0.34640521E+04</pdfrwt>
<totfact> 0.22560124E-01</totfact>
</mgrwt>
</event>
<event>
 6    1  0.1001928E-005  0.2540241E+04  0.7818608E-02  0.8388788E-01
          2   -1    0    0  501    0  0.00000000000E+00  0.00000000000E+00  0.12514046610E+04  0.12514046610E+04  0.00000000000E+00 0. -1.
         -2   -1    0    0    0  501 -0.00000000000E+00 -0.00000000000E+00 -0.12891163277E+04  0.12891163277E+04  0.00000000000E+00 0.  1.
         23    2    1    2    0    0 -0.11030899415E+04 -0.59509928026E+03 -0.21400081053E+03  0.12748083694E+04  0.91593992029E+02 0.  0.
         13    1    3    3    0    0 -0.38595036275E+03 -0.22293898174E+03 -0.33736158742E+02  0.44698724869E+03  0.00000000000E+00 0. -1.
        -13    1    3    3    0    0 -0.71713957879E+03 -0.37216029852E+03 -0.18026465179E+03  0.82782112075E+03  0.00000000000E+00 0.  1.
         22    1    1    2    0    0  0.11030899415E+04  0.59509928026E+03  0.17628914385E+03  0.12657126193E+04  0.00000000000E+00 0. -1.
<mgrwt>
<rscale>  0 0.25402411E+04</rscale>
<asrwt>0</asrwt>
<pdfrwt beam="1">  1        2 0.19252379E+00 0.25402411E+04</pdfrwt>
<pdfrwt beam="2">  1       -2 0.19832559E+00 0.25402411E+04</pdfrwt>
<totfact> 0.21408726E+00</totfact>
</mgrwt>
</event>
<event>
 6    1  0.1001928E-005  0.8784470E+03  0.7818608E-02  0.9452932E-01
         -1   -1    0    0    0  501 -0.00000000000E+00  0.00000000000E+00  0.63417969090E+03  0.63417969090E+03  0.00000000000E+00 0.  1.
          1   -1    0    0  501    0  0.00000000000E+00 -0.00000000000E+00 -0.30419971427E+03  0.30419971427E+03  0.00000000000E+00 0. -1.
         23    2    1    2    0    0  0.10029922815E+03 -0.25454797937E+03 -0.18814308755E+03  0.35245610080E+03  0.11820690601E+03 0.  0.
         11    1    3    3    0    0  0.65896200594E+02 -0.39009626786E+02 -0.72471531103E+02  0.10543331094E+03  0.00000000000E+00 0.  1.
        -11    1    3    3    0    0  0.34403027556E+02 -0.21553835259E+03 -0.11567155645E+03  0.24702278986E+03  0.00000000000E+00 0. -1.
         22    1    1    2    0    0 -0.10029922815E+03  0.25454797937E+03  0.51812306418E+03  0.58592330437E+03  0.00000000000E+00 0.  1.
<mgrwt>
<rscale>  0 0.87844700E+03</rscale>
<asrwt>0</asrwt>
<pdfrwt beam="1">  1        1 0.46799956E-01 0.87844700E+03</pdfrwt>
<pdfrwt beam="2">  1       -1 0.97566106E-01 0.87844700E+03</pdfrwt>
<totfact> 0.87624938E+01</totfact>
</mgrwt>
</event>
<event>
 6    1  0.1001928E-005  0.1421438E+04  0.7818608E-02  0.8938445E-01
          1   -1    0    0  501    0  0.00000000000E+00  0.00000000000E+00  0.12919183072E+04  0.12919183072E+04  0.00000000000E+00 0. -1.
         -1   -1    0    0    0  501 -0.00000000000E+00 -0.00000000000E+00 -0.39098550271E+03  0.39098550271E+03  0.00000000000E+00 0.  1.
         23    2    1    2    0    0  0.68370754474E+03  0.10414972601E+03  0.63050424965E+03  0.94031726585E+03  0.91420891850E+02 0.  0.
         13    1    3    3    0    0  0.44659939426E+03  0.87404230091E+02  0.46533724005E+03  0.65086808600E+03  0.00000000000E+00 0. -1.
        -13    1    3    3    0    0  0.23710815048E+03  0.16745495915E+02  0.16516700960E+03  0.28944917985E+03  0.00000000000E+00 0.  1.
         22    1    1    2    0    0 -0.68370754474E+03 -0.10414972601E+03  0.27042855485E+03  0.74258654408E+03  0.00000000000E+00 0.  1.
<mgrwt>
<rscale>  0 0.14214378E+04</rscale>
<asrwt>0</asrwt>
<pdfrwt beam="1">  1        1 0.19875666E+00 0.14214378E+04</pdfrwt>
<pdfrwt beam="2">  1       -1 0.60151617E-01 0.14214378E+04</pdfrwt>
<totfact> 0.25006202E+01</totfact>
</mgrwt>
</event>
<event>
 6    1  0.1001928E-005  0.1156353E+04  0.7818608E-02  0.9151942E-01
          2   -1    0    0  501    0  0.00000000000E+00  0.00000000000E+00  0.21861794055E+04  0.21861794055E+04  0.00000000000E+00 0. -1.
         -2   -1    0    0    0  501 -0.00000000000E+00 -0.00000000000E+00 -0.15290980415E+03  0.15290980415E+03  0.00000000000E+00 0.  1.
         23    2    1    2    0    0  0.22960676066E+03  0.11183687406E+03  0.20641004885E+04  0.20818397305E+04  0.91209023506E+02 0.  0.
         11    1    3    3    0    0  0.13439927141E+03  0.27356386956E+02  0.12993763893E+04  0.13065950165E+04  0.00000000000E+00 0.  1.
        -11    1    3    3    0    0  0.95207489245E+02  0.84480487102E+02  0.76472409915E+03  0.77524471396E+03  0.00000000000E+00 0. -1.
         22    1    1    2    0    0 -0.22960676066E+03 -0.11183687406E+03 -0.30830887101E+02  0.25724947918E+03  0.00000000000E+00 0.  1.
<mgrwt>
<rscale>  0 0.11563533E+04</rscale>
<asrwt>0</asrwt>
<pdfrwt beam="1">  1        2 0.33633527E+00 0.11563533E+04</pdfrwt>
<pdfrwt beam="2">  1       -2 0.23524587E-01 0.11563533E+04</pdfrwt>
<totfact> 0.83581985E+01</totfact>
</mgrwt>
</event>
<event>
 6    1  0.1001928E-005  0.3334220E+04  0.7818608E-02  0.8154242E-01
         -2   -1    0    0    0  501 -0.00000000000E+00  0.00000000000E+00  0.17581868048E+04  0.17581868048E+04  0.00000000000E+00 0.  1.
          2   -1    0    0  501    0  0.00000000000E+00 -0.00000000000E+00 -0.15807508434E+04  0.15807508434E+04  0.00000000000E+00 0. -1.
         23    2    1    2    0    0 -0.34943836155E+03  0.10088084779E+04 -0.11917980068E+04  0.16026763277E+04  0.91581704319E+02 0.  0.
         11    1    3    3    0    0 -0.86430892771E+02  0.32785469181E+03 -0.42993921943E+03  0.54754609903E+03  0.00000000000E+00 0.  1.
        -11    1    3    3    0    0 -0.26300746878E+03  0.68095378609E+03 -0.76185878741E+03  0.10551302286E+04  0.00000000000E+00 0. -1.
         22    1    1    2    0    0  0.34943836155E+03 -0.10088084779E+04  0.13692339682E+04  0.17362613206E+04  0.00000000000E+00 0.  1.
<mgrwt>
<rscale>  0 0.33342197E+04</rscale>
<asrwt>0</asrwt>
<pdfrwt beam="1">  1        2 0.24319244E+00 0.33342197E+04</pdfrwt>
<pdfrwt beam="2">  1       -2 0.27049028E+00 0.33342197E+04</pdfrwt>
<totfact> 0.45832019E-01</totfact>
</mgrwt>
</event>
<event>
 6    1  0.1001928E-005  0.1463044E+04  0.7818608E-02  0.8909407E-01
          2   -1    0    0  501    0  0.00000000000E+00  0.00000000000E+00  0.14709443967E+04  0.14709443967E+04  0.00000000000E+00 0. -1.
         -2   -1    0    0    0  501 -0.00000000000E+00 -0.00000000000E+00 -0.36379627123E+03  0.36379627123E+03  0.00000000000E+00 0.  1.
         23    2    1    2    0    0  0.49121237872E+03 -0.40236549852E+03  0.10031032053E+04  0.11913022942E+04  0.98982423861E+02 0.  0.
         11    1    3    3    0    0  0.17408129718E+03 -0.89482509586E+02  0.27072841613E+03  0.33407378355E+03  0.00000000000E+00 0.  1.
        -11    1    3    3    0    0  0.31713108154E+03 -0.31288298894E+03  0.73237478913E+03  0.85722851061E+03  0.00000000000E+00 0. -1.
         22    1    1    2    0    0 -0.49121237872E+03  0.40236549852E+03  0.10404492019E+03  0.64343837376E+03  0.00000000000E+00 0. -1.
<mgrwt>
<rscale>  0 0.14630435E+04</rscale>
<asrwt>0</asrwt>
<pdfrwt beam="1">  1        2 0.22629913E+00 0.14630435E+04</pdfrwt>
<pdfrwt beam="2">  1       -2 0.55968658E-01 0.14630435E+04</pdfrwt>
<totfact> 0.38285765E+01</totfact>
</mgrwt>
</event>
<event>
 6    1  0.1001928E-005  0.2542843E+04  0.7818608E-02  0.8387879E-01
          1   -1    0    0  501    0  0.00000000000E+00  0.00000000000E+00  0.12209727672E+04  0.12209727672E+04  0.00000000000E+00 0.  1.
         -1   -1    0    0    0  501 -0.00000000000E+00 -0.00000000000E+00 -0.13239551511E+04  0.13239551511E+04  0.00000000000E+00 0. -1.
         23    2    1    2    0    0  0.78104113470E+02 -0.63862934841E+03 -0.11472157445E+04  0.13183998882E+04  0.90147676504E+02 0.  0.
         13    1    3    3    0    0 -0.18586958897E+02 -0.67762741853E+02 -0.11016771155E+03  0.13066823980E+03  0.00000000000E+00 0.  1.
        -13    1    3    3    0    0  0.96691072367E+02 -0.57086660656E+03 -0.10370480329E+04  0.11877316484E+04  0.00000000000E+00 0. -1.
         22    1    1    2    0    0 -0.78104113470E+02  0.63862934841E+03  0.10442333606E+04  0.12265280301E+04  0.00000000000E+00 0.  1.
<mgrwt>
<rscale>  0 0.25428434E+04</rscale>
<asrwt>0</asrwt>
<pdfrwt beam="1">  1        1 0.18784196E+00 0.25428434E+04</pdfrwt>
<pdfrwt beam="2">  1       -1 0.20368541E+00 0.25428434E+04</pdfrwt>
<totfact> 0.12962236E+00</totfact>
</mgrwt>
</event>
<event>
 6    1  0.1001928E-005  0.2942081E+04  0.7818608E-02  0.8260466E-01
         -2   -1    0    0    0  501 -0.00000000000E+00  0.00000000000E+00  0.14704696326E+04  0.14704696326E+04  0.00000000000E+00 0.  1.
          2   -1    0    0  501    0  0.00000000000E+00 -0.00000000000E+00 -0.14716113797E+04  0.14716113797E+04  0.00000000000E+00 0. -1.
         23    2    1    2    0    0  0.12284452966E+04  0.77153188737E+03 -0.23582230478E+03  0.14725864515E+04  0.92517012765E+02 0.  0.
         13    1    3    3    0    0  0.66805986082E+03  0.46718274106E+03 -0.11004527669E+03  0.82260175912E+03  0.00000000000E+00 0. -1.
        -13    1    3    3    0    0  0.56038543580E+03  0.30434914631E+03 -0.12577702809E+03  0.64998469236E+03  0.00000000000E+00 0.  1.
         22    1    1    2    0    0 -0.12284452966E+04 -0.77153188737E+03  0.23468055763E+03  0.14694945608E+04  0.00000000000E+00 0.  1.
<mgrwt>
<rscale>  0 0.29420808E+04</rscale>
<asrwt>0</asrwt>
<pdfrwt beam="1">  1        2 0.22640175E+00 0.29420808E+04</pdfrwt>
<pdfrwt beam="2">  1       -2 0.22622610E+00 0.29420808E+04</pdfrwt>
<totfact> 0.10229692E+00</totfact>
</mgrwt>
</event>
<event>
 6    1  0.1001928E-005  0.3231368E+04  0.7818608E-02  0.8180582E-01
          2   -1    0    0  501    0  0.00000000000E+00  0.00000000000E+00  0.17709490960E+04  0.17709490960E+04  0.00000000000E+00 0. -1.
         -2   -1    0    0    0  501 -0.00000000000E+00 -0.00000000000E+00 -0.14740315985E+04  0.14740315985E+04  0.00000000000E+00 0.  1.
         23    2    1    2    0    0  0.14802351098E+04  0.95907762841E+01 -0.49853134094E+03  0.15645263458E+04  0.89561294905E+02 0.  0.
         13    1    3    3    0    0  0.13571269745E+04  0.10416497906E+02 -0.43017282361E+03  0.14237102186E+04  0.00000000000E+00 0. -1.
        -13    1    3    3    0    0  0.12310813533E+03 -0.82572162232E+00 -0.68358517328E+02  0.14081612725E+03  0.00000000000E+00 0.  1.
         22    1    1    2    0    0 -0.14802351098E+04 -0.95907762841E+01  0.79544883846E+03  0.16804543487E+04  0.00000000000E+00 0.  1.
<mgrwt>
<rscale>  0 0.32313681E+04</rscale>
<asrwt>0</asrwt>
<pdfrwt beam="1">  1        2 0.27245371E+00 0.32313681E+04</pdfrwt>
<pdfrwt beam="2">  1       -2 0.22677409E+00 0.32313681E+04</pdfrwt>
<totfact> 0.67378774E-01</totfact>
</mgrwt>
</event>
<event>
 6    1  0.1001928E-005  0.3238533E+04  0.7818608E-02  0.8178714E-01
          2   -1    0    0  501    0  0.00000000000E+00  0.00000000000E+00  0.21912972497E+04  0.21912972497E+04  0.00000000000E+00 0. -1.
         -2   -1    0    0    0  501 -0.00000000000E+00 -0.00000000000E+00 -0.11965624425E+04  0.11965624425E+04  0.00000000000E+00 0.  1.
         23    2    1    2    0    0 -0.60903972529E+03  0.37214726715E+03  0.20167688000E+04  0.21412737714E+04  0.90961507468E+02 0.  0.
         11    1    3    3    0    0 -0.49954069801E+03  0.30453813196E+03  0.15382104920E+04  0.16457144043E+04  0.00000000000E+00 0. -1.
        -11    1    3    3    0    0 -0.10949902728E+03  0.67609135186E+02  0.47855830804E+03  0.49555936711E+03  0.00000000000E+00 0.  1.
         22    1    1    2    0    0  0.60903972529E+03 -0.37214726715E+03 -0.10220339928E+04  0.12465859208E+04  0.00000000000E+00 0.  1.
<mgrwt>
<rscale>  0 0.32385330E+04</rscale>
<asrwt>0</asrwt>
<pdfrwt beam="1">  1        2 0.33712265E+00 0.32385330E+04</pdfrwt>
<pdfrwt beam="2">  1       -2 0.18408653E+00 0.32385330E+04</pdfrwt>
<totfact> 0.74510699E-01</totfact>
</mgrwt>
</event>
<event>
 6    1  0.1001928E-005  0.1359317E+04  0.7818608E-02  0.8983805E-01
         -2   -1    0    0    0  501 -0.00000000000E+00  0.00000000000E+00  0.54985122897E+03  0.54985122897E+03  0.00000000000E+00 0.  1.
          2   -1    0    0  501    0  0.00000000000E+00 -0.00000000000E+00 -0.84011027943E+03  0.84011027943E+03  0.00000000000E+00 0. -1.
         23    2    1    2    0    0  0.22410383821E+03 -0.10614925670E+03  0.49782426335E+03  0.56378628212E+03  0.92389283633E+02 0.  0.
         11    1    3    3    0    0  0.17063162775E+03 -0.42491895889E+02  0.38850193224E+03  0.42644397635E+03  0.00000000000E+00 0.  1.
        -11    1    3    3    0    0  0.53472210456E+02 -0.63657360816E+02  0.10932233111E+03  0.13734230578E+03  0.00000000000E+00 0. -1.
         22    1    1    2    0    0 -0.22410383821E+03  0.10614925670E+03 -0.78808331381E+03  0.82617522628E+03  0.00000000000E+00 0. -1.
<mgrwt>
<rscale>  0 0.13593170E+04</rscale>
<asrwt>0</asrwt>
<pdfrwt beam="1">  1        2 0.12924774E+00 0.13593170E+04</pdfrwt>
<pdfrwt beam="2">  1       -2 0.84592496E-01 0.13593170E+04</pdfrwt>
<totfact> 0.38361780E+01</totfact>
</mgrwt>
</event>
<event>
 6    1  0.1001928E-005  0.8973048E+03  0.7818608E-02  0.9428957E-01
         -1   -1    0    0    0  501 -0.00000000000E+00  0.00000000000E+00  0.31006782125E+03  0.31006782125E+03  0.00000000000E+00 0.  1.
          1   -1    0    0  501    0  0.00000000000E+00 -0.00000000000E+00 -0.64917723636E+03  0.64917723636E+03  0.00000000000E+00 0. -1.
         23    2    1    2    0    0  0.30720678507E+03  0.31404934556E+03 -0.10451202283E+03  0.46120998184E+03  0.93749048995E+02 0.  0.
         13    1    3    3    0    0  0.13096002066E+03  0.19783917371E+03 -0.69404485081E+02  0.24720001662E+03  0.00000000000E+00 0.  1.
        -13    1    3    3    0    0  0.17624676441E+03  0.11621017185E+03 -0.35107537751E+02  0.21400996522E+03  0.00000000000E+00 0. -1.
         22    1    1    2    0    0 -0.30720678507E+03 -0.31404934556E+03 -0.23459739227E+03  0.49803507578E+03  0.00000000000E+00 0. -1.
<mgrwt>
<rscale>  0 0.89730479E+03</rscale>
<asrwt>0</asrwt>
<pdfrwt beam="1">  1        1 0.99873421E-01 0.89730479E+03</pdfrwt>
<pdfrwt beam="2">  1       -1 0.47702742E-01 0.89730479E+03</pdfrwt>
<totfact> 0.13492225E+02</totfact>
</mgrwt>
</event>
<event>
 6    1  0.1001928E-005  0.2266013E+04  0.7818608E-02  0.8491443E-01
         -2   -1    0    0    0  501 -0.00000000000E+00  0.00000000000E+00  0.16319171340E+04  0.16319171340E+04  0.00000000000E+00 0.  1.
          2   -1    0    0  501    0  0.00000000000E+00 -0.00000000000E+00 -0.78662328882E+03  0.78662328882E+03  0.00000000000E+00 0. -1.
         23    2    1    2    0    0 -0.68008867837E+03 -0.60124553364E+03  0.11437442068E+04  0.14629832971E+04  0.90291276753E+02 0.  0.
         13    1    3    3    0    0 -0.55802956804E+03 -0.45921439587E+03  0.94847338042E+03  0.11924246783E+04  0.00000000000E+00 0. -1.
        -13    1    3    3    0    0 -0.12205911033E+03 -0.14203113777E+03  0.19527082641E+03  0.27055861871E+03  0.00000000000E+00 0.  1.
         22    1    1    2    0    0  0.68008867837E+03  0.60124553364E+03 -0.29845036167E+03  0.95555712574E+03  0.00000000000E+00 0. -1.
<mgrwt>
<rscale>  0 0.22660133E+04</rscale>
<asrwt>0</asrwt>
<pdfrwt beam="1">  1        2 0.12101897E+00 0.22660133E+04</pdfrwt>
<pdfrwt beam="2">  1       -2 0.25106417E+00 0.22660133E+04</pdfrwt>
<totfact> 0.20268513E+00</totfact>
</mgrwt>
</event>
<event>
 6    1  0.1001928E-005  0.1274232E+04  0.7818608E-02  0.9050253E-01
         -1   -1    0    0    0  501 -0.00000000000E+00  0.00000000000E+00  0.52578690722E+03  0.52578690722E+03  0.00000000000E+00 0.  1.
          1   -1    0    0  501    0  0.00000000000E+00 -0.00000000000E+00 -0.77201762209E+03  0.77201762209E+03  0.00000000000E+00 0. -1.
         23    2    1    2    0    0  0.58742860715E+03  0.23779669284E+03 -0.11439501495E+03  0.65050221401E+03  0.91909060335E+02 0.  0.
         11    1    3    3    0    0  0.15569962688E+03  0.10812185168E+03 -0.31390801849E+02  0.19214081051E+03  0.00000000000E+00 0. -1.
        -11    1    3    3    0    0  0.43172898027E+03  0.12967484116E+03 -0.83004213104E+02  0.45836140351E+03  0.00000000000E+00 0.  1.
         22    1    1    2    0    0 -0.58742860715E+03 -0.23779669284E+03 -0.13183569991E+03  0.64730231530E+03  0.00000000000E+00 0.  1.
<mgrwt>
<rscale>  0 0.12742319E+04</rscale>
<asrwt>0</asrwt>
<pdfrwt beam="1">  1        1 0.11877194E+00 0.12742319E+04</pdfrwt>
<pdfrwt beam="2">  1       -1 0.80890294E-01 0.12742319E+04</pdfrwt>
<totfact> 0.35111856E+01</totfact>
</mgrwt>
</event>
<event>
 6    1  0.1001928E-005  0.1576611E+04  0.7818608E-02  0.8835047E-01
          1   -1    0    0  501    0  0.00000000000E+00  0.00000000000E+00  0.57989106041E+03  0.57989106041E+03  0.00000000000E+00 0. -1.
         -1   -1    0    0    0  501 -0.00000000000E+00 -0.00000000000E+00 -0.10716251018E+04  0.10716251018E+04  0.00000000000E+00 0.  1.
         23    2    1    2    0    0 -0.23915904259E+03  0.74551121500E+03 -0.31499126613E+03  0.84888173240E+03  0.91633391981E+02 0.  0.
         11    1    3    3    0    0 -0.34123368262E+02  0.12632174731E+03 -0.90415038388E+02  0.15904863178E+03  0.00000000000E+00 0. -1.
        -11    1    3    3    0    0 -0.20503567433E+03  0.61918946769E+03 -0.22457622775E+03  0.68983310062E+03  0.00000000000E+00 0.  1.
         22    1    1    2    0    0  0.23915904259E+03 -0.74551121500E+03 -0.17674277528E+03  0.80263442983E+03  0.00000000000E+00 0.  1.
<mgrwt>
<rscale>  0 0.15766113E+04</rscale>
<asrwt>0</asrwt>
<pdfrwt beam="1">  1        1 0.89214011E-01 0.15766113E+04</pdfrwt>
<pdfrwt beam="2">  1       -1 0.16486540E+00 0.15766113E+04</pdfrwt>
<totfact> 0.92889970E+00</totfact>
</mgrwt>
</event>
<event>
 6    1  0.1001928E-005  0.1914818E+04  0.7818608E-02  0.8647516E-01
         -1   -1    0    0    0  501 -0.00000000000E+00  0.00000000000E+00  0.36018823488E+03  0.36018823488E+03  0.00000000000E+00 0.  1.
          1   -1    0    0  501    0  0.00000000000E+00 -0.00000000000E+00 -0.25448689120E+04  0.25448689120E+04  0.00000000000E+00 0. -1.
         23    2    1    2    0    0  0.37350338460E+02 -0.89707880175E+03 -0.15894384312E+04  0.18278112345E+04  0.91836583728E+02 0.  0.
         11    1    3    3    0    0  0.46492828537E+02 -0.82957118214E+03 -0.14204587688E+04  0.16456163111E+04  0.00000000000E+00 0. -1.
        -11    1    3    3    0    0 -0.91424900779E+01 -0.67507619610E+02 -0.16897966241E+03  0.18219492347E+03  0.00000000000E+00 0.  1.
         22    1    1    2    0    0 -0.37350338460E+02  0.89707880175E+03 -0.59524224589E+03  0.10772459123E+04  0.00000000000E+00 0.  1.
<mgrwt>
<rscale>  0 0.19148178E+04</rscale>
<asrwt>0</asrwt>
<pdfrwt beam="1">  1        1 0.39151829E+00 0.19148178E+04</pdfrwt>
<pdfrwt beam="2">  1       -1 0.55413575E-01 0.19148178E+04</pdfrwt>
<totfact> 0.38825173E+00</totfact>
</mgrwt>
</event>
<event>
 6    1  0.1001928E-005  0.2994772E+04  0.7818608E-02  0.8245225E-01
          2   -1    0    0  501    0  0.00000000000E+00  0.00000000000E+00  0.20102175214E+04  0.20102175214E+04  0.00000000000E+00 0. -1.
         -2   -1    0    0    0  501 -0.00000000000E+00 -0.00000000000E+00 -0.11153845392E+04  0.11153845392E+04  0.00000000000E+00 0.  1.
         23    2    1    2    0    0 -0.16180925812E+03 -0.60659648386E+03  0.18650384910E+04  0.19699895565E+04  0.91371492969E+02 0.  0.
         11    1    3    3    0    0 -0.58421510655E+02 -0.34357878176E+03  0.92904896788E+03  0.99226580960E+03  0.00000000000E+00 0. -1.
        -11    1    3    3    0    0 -0.10338774746E+03 -0.26301770210E+03  0.93598952309E+03  0.97772374691E+03  0.00000000000E+00 0.  1.
         22    1    1    2    0    0  0.16180925812E+03  0.60659648386E+03 -0.97020550885E+03  0.11556125041E+04  0.00000000000E+00 0.  1.
<mgrwt>
<rscale>  0 0.29947725E+04</rscale>
<asrwt>0</asrwt>
<pdfrwt beam="1">  1        2 0.30926423E+00 0.29947725E+04</pdfrwt>
<pdfrwt beam="2">  1       -2 0.17159762E+00 0.29947725E+04</pdfrwt>
<totfact> 0.11726755E+00</totfact>
</mgrwt>
</event>
<event>
 6    1  0.1001928E-005  0.8189993E+03  0.7818608E-02  0.9532916E-01
          2   -1    0    0  501    0  0.00000000000E+00  0.00000000000E+00  0.62646561915E+03  0.62646561915E+03  0.00000000000E+00 0. -1.
         -2   -1    0    0    0  501 -0.00000000000E+00 -0.00000000000E+00 -0.26767624466E+03  0.26767624466E+03  0.00000000000E+00 0.  1.
         23    2    1    2    0    0 -0.12748303292E+03 -0.25692950550E+03 -0.12843840352E+03  0.32876092838E+03  0.96553767659E+02 0.  0.
         11    1    3    3    0    0 -0.86113188763E+02 -0.22624018381E+03 -0.72453963207E+02  0.25268493986E+03  0.00000000000E+00 0. -1.
        -11    1    3    3    0    0 -0.41369844153E+02 -0.30689321695E+02 -0.55984440315E+02  0.76075988516E+02  0.00000000000E+00 0.  1.
         22    1    1    2    0    0  0.12748303292E+03  0.25692950550E+03  0.48722777801E+03  0.56538093543E+03  0.00000000000E+00 0. -1.
<mgrwt>
<rscale>  0 0.81899930E+03</rscale>
<asrwt>0</asrwt>
<pdfrwt beam="1">  1        2 0.96379325E-01 0.81899930E+03</pdfrwt>
<pdfrwt beam="2">  1       -2 0.41180961E-01 0.81899930E+03</pdfrwt>
<totfact> 0.26426516E+02</totfact>
</mgrwt>
</event>
<event>
 6    1  0.1001928E-005  0.2744789E+04  0.7818608E-02  0.8320617E-01
          2   -1    0    0  501    0  0.00000000000E+00  0.00000000000E+00  0.10607333874E+04  0.10607333874E+04  0.00000000000E+00 0. -1.
         -2   -1    0    0    0  501 -0.00000000000E+00 -0.00000000000E+00 -0.17756273869E+04  0.17756273869E+04  0.00000000000E+00 0.  1.
         23    2    1    2    0    0 -0.54074562424E+02  0.13144265780E+04 -0.75621000379E+03  0.15201737437E+04  0.91833293794E+02 0.  0.
         13    1    3    3    0    0  0.83609182204E+01  0.29106015819E+03 -0.13079637676E+03  0.31920778940E+03  0.00000000000E+00 0. -1.
        -13    1    3    3    0    0 -0.62435480644E+02  0.10233664198E+04 -0.62541362703E+03  0.12009659543E+04  0.00000000000E+00 0.  1.
         22    1    1    2    0    0  0.54074562424E+02 -0.13144265780E+04  0.41316004275E+02  0.13161870306E+04  0.00000000000E+00 0. -1.
<mgrwt>
<rscale>  0 0.27447894E+04</rscale>
<asrwt>0</asrwt>
<pdfrwt beam="1">  1        2 0.16318975E+00 0.27447894E+04</pdfrwt>
<pdfrwt beam="2">  1       -2 0.27317344E+00 0.27447894E+04</pdfrwt>
<totfact> 0.93375809E-01</totfact>
</mgrwt>
</event>
<event>
 6    1  0.1001928E-005  0.8887644E+03  0.7818608E-02  0.9439736E-01
          1   -1    0    0  501    0  0.00000000000E+00  0.00000000000E+00  0.28855528255E+03  0.28855528255E+03  0.00000000000E+00 0. -1.
         -1   -1    0    0    0  501 -0.00000000000E+00 -0.00000000000E+00 -0.68435946093E+03  0.68435946093E+03  0.00000000000E+00 0.  1.
         23    2    1    2    0    0  0.76710536715E+02  0.43128004679E+03 -0.16083216015E+03  0.47582437488E+03  0.93031536558E+02 0.  0.
         13    1    3    3    0    0 -0.16093170826E+02  0.16063005719E+03 -0.65914455695E+02  0.17437236275E+03  0.00000000000E+00 0. -1.
        -13    1    3    3    0    0  0.92803707541E+02  0.27064998960E+03 -0.94917704453E+02  0.30145201214E+03  0.00000000000E+00 0.  1.
         22    1    1    2    0    0 -0.76710536715E+02 -0.43128004679E+03 -0.23497201823E+03  0.49709036860E+03  0.00000000000E+00 0.  1.
<mgrwt>
<rscale>  0 0.88876440E+03</rscale>
<asrwt>0</asrwt>
<pdfrwt beam="1">  1        1 0.44393121E-01 0.88876440E+03</pdfrwt>
<pdfrwt beam="2">  1       -1 0.10528607E+00 0.88876440E+03</pdfrwt>
<totfact> 0.78739514E+01</totfact>
</mgrwt>
</event>
<event>
 6    1  0.1001928E-005  0.2674990E+04  0.7818608E-02  0.8343166E-01
         -1   -1    0    0    0  501 -0.00000000000E+00  0.00000000000E+00  0.52630567692E+03  0.52630567692E+03  0.00000000000E+00 0.  1.
          1   -1    0    0  501    0  0.00000000000E+00 -0.00000000000E+00 -0.33989622432E+04  0.33989622432E+04  0.00000000000E+00 0. -1.
         23    2    1    2    0    0 -0.96087733263E+02 -0.11613142601E+04 -0.47897979755E+03  0.12630184697E+04  0.88940121003E+02 0.  0.
         11    1    3    3    0    0 -0.44269058938E+02 -0.24279930144E+03 -0.13114402985E+03  0.27948167547E+03  0.00000000000E+00 0.  1.
        -11    1    3    3    0    0 -0.51818674325E+02 -0.91851495865E+03 -0.34783576769E+03  0.98353679421E+03  0.00000000000E+00 0. -1.
         22    1    1    2    0    0  0.96087733263E+02  0.11613142601E+04 -0.23936767687E+04  0.26622494504E+04  0.00000000000E+00 0. -1.
<mgrwt>
<rscale>  0 0.26749902E+04</rscale>
<asrwt>0</asrwt>
<pdfrwt beam="1">  1        1 0.52291727E+00 0.26749902E+04</pdfrwt>
<pdfrwt beam="2">  1       -1 0.80970104E-01 0.26749902E+04</pdfrwt>
<totfact> 0.39872154E-01</totfact>
</mgrwt>
</event>
<event>
 6    1  0.1780732E-005  0.4232661E+04  0.7818608E-02  0.7959188E-01
         -1   -1    0    0    0  501 -0.00000000000E+00  0.00000000000E+00  0.17218799303E+04  0.17218799303E+04  0.00000000000E+00 0.  1.
          1   -1    0    0  501    0  0.00000000000E+00 -0.00000000000E+00 -0.26011418652E+04  0.26011418652E+04  0.00000000000E+00 0. -1.
         23    2    1    2    0    0 -0.47376743143E+03  0.77722245780E+03 -0.23900747832E+04  0.25591947659E+04  0.92141480750E+02 0.  0.
         11    1    3    3    0    0 -0.27259529606E+03  0.35925826025E+03 -0.11636392797E+04  0.12479707794E+04  0.00000000000E+00 0. -1.
        -11    1    3    3    0    0 -0.20117213537E+03  0.41796419754E+03 -0.12264355035E+04  0.13112239865E+04  0.00000000000E+00 0.  1.
         22    1    1    2    0    0  0.47376743143E+03 -0.77722245780E+03  0.15108128482E+04  0.17638270296E+04  0.00000000000E+00 0.  1.
<mgrwt>
<rscale>  0 0.42326606E+04</rscale>
<asrwt>0</asrwt>
<pdfrwt beam="1">  1        1 0.40017567E+00 0.42326606E+04</pdfrwt>
<pdfrwt beam="2">  1       -1 0.26490461E+00 0.42326606E+04</pdfrwt>
<totfact> 0.49315908E-02</totfact>
</mgrwt>
</event>
<event>
 6    1  0.1001928E-005  0.6271106E+03  0.7818608E-02  0.9850704E-01
         -2   -1    0    0    0  501 -0.00000000000E+00  0.00000000000E+00  0.47829755651E+03  0.47829755651E+03  0.00000000000E+00 0.  1.
          2   -1    0    0  501    0  0.00000000000E+00 -0.00000000000E+00 -0.20555596012E+03  0.20555596012E+03  0.00000000000E+00 0. -1.
         23    2    1    2    0    0  0.52996819166E+02 -0.30083760473E+03  0.17388993624E+03  0.36278720265E+03  0.89804884156E+02 0.  0.
         11    1    3    3    0    0 -0.11341858022E+02 -0.18723565466E+03  0.95258923771E+02  0.21038082298E+03  0.00000000000E+00 0.  1.
        -11    1    3    3    0    0  0.64338677188E+02 -0.11360195007E+03  0.78631012465E+02  0.15240637967E+03  0.00000000000E+00 0. -1.
         22    1    1    2    0    0 -0.52996819166E+02  0.30083760473E+03  0.98851660149E+02  0.32106631399E+03  0.00000000000E+00 0. -1.
<mgrwt>
<rscale>  0 0.62711056E+03</rscale>
<asrwt>0</asrwt>
<pdfrwt beam="1">  1        2 0.31623994E-01 0.62711056E+03</pdfrwt>
<pdfrwt beam="2">  1       -2 0.73584239E-01 0.62711056E+03</pdfrwt>
<totfact> 0.28224032E+02</totfact>
</mgrwt>
</event>
<event>
 6    1  0.1001928E-005  0.3134399E+04  0.7818608E-02  0.8206360E-01
         -2   -1    0    0    0  501 -0.00000000000E+00  0.00000000000E+00  0.23815119816E+04  0.23815119816E+04  0.00000000000E+00 0.  1.
          2   -1    0    0  501    0  0.00000000000E+00 -0.00000000000E+00 -0.10313252984E+04  0.10313252984E+04  0.00000000000E+00 0. -1.
         23    2    1    2    0    0 -0.11412806185E+04  0.10415802663E+04  0.39921332692E+03  0.15985161326E+04  0.92041535440E+02 0.  0.
         11    1    3    3    0    0 -0.84749172199E+03  0.74700675680E+03  0.32854378113E+03  0.11765212831E+04  0.00000000000E+00 0. -1.
        -11    1    3    3    0    0 -0.29378889656E+03  0.29457350950E+03  0.70669545780E+02  0.42199484943E+03  0.00000000000E+00 0.  1.
         22    1    1    2    0    0  0.11412806185E+04 -0.10415802663E+04  0.95097335629E+03  0.18143211474E+04  0.00000000000E+00 0.  1.
<mgrwt>
<rscale>  0 0.31343985E+04</rscale>
<asrwt>0</asrwt>
<pdfrwt beam="1">  1        2 0.15866543E+00 0.31343985E+04</pdfrwt>
<pdfrwt beam="2">  1       -2 0.36638646E+00 0.31343985E+04</pdfrwt>
<totfact> 0.24922742E-01</totfact>
</mgrwt>
</event>
<event>
 6    1  0.1001928E-005  0.2854639E+04  0.7818608E-02  0.8286503E-01
         -1   -1    0    0    0  501 -0.00000000000E+00  0.00000000000E+00  0.58490530264E+03  0.58490530264E+03  0.00000000000E+00 0.  1.
          1   -1    0    0  501    0  0.00000000000E+00 -0.00000000000E+00 -0.34830266646E+04  0.34830266646E+04  0.00000000000E+00 0. -1.
         23    2    1    2    0    0  0.61284577696E+03 -0.50365747496E+03 -0.31389225880E+04  0.32389349655E+04  0.92811094475E+02 0.  0.
         13    1    3    3    0    0  0.37778301743E+03 -0.33647260599E+03 -0.21561679918E+04  0.22147221568E+04  0.00000000000E+00 0.  1.
        -13    1    3    3    0    0  0.23506275953E+03 -0.16718486897E+03 -0.98275459610E+03  0.10242128087E+04  0.00000000000E+00 0. -1.
         22    1    1    2    0    0 -0.61284577696E+03  0.50365747496E+03  0.24080122599E+03  0.82899700172E+03  0.00000000000E+00 0.  1.
<mgrwt>
<rscale>  0 0.28546389E+04</rscale>
<asrwt>0</asrwt>
<pdfrwt beam="1">  1        1 0.53585028E+00 0.28546389E+04</pdfrwt>
<pdfrwt beam="2">  1       -1 0.89985427E-01 0.28546389E+04</pdfrwt>
<totfact> 0.26820461E-01</totfact>
</mgrwt>
</event>
<event>
 6    1  0.1001928E-005  0.8343846E+03  0.7818608E-02  0.9511538E-01
          3   -1    0    0  501    0  0.00000000000E+00  0.00000000000E+00  0.18900342539E+03  0.18900342539E+03  0.00000000000E+00 0. -1.
         -3   -1    0    0    0  501 -0.00000000000E+00 -0.00000000000E+00 -0.92087960336E+03  0.92087960336E+03  0.00000000000E+00 0.  1.
         23    2    1    2    0    0  0.15974518434E+03  0.17473488255E+03 -0.81925889050E+03  0.85752110304E+03  0.90036156040E+02 0.  0.
         13    1    3    3    0    0  0.10210281130E+02  0.69935226075E+02 -0.23265462083E+03  0.24315295244E+03  0.00000000000E+00 0.  1.
        -13    1    3    3    0    0  0.14953490321E+03  0.10479965648E+03 -0.58660426967E+03  0.61436815059E+03  0.00000000000E+00 0. -1.
         22    1    1    2    0    0 -0.15974518434E+03 -0.17473488255E+03  0.87382712536E+02  0.25236192571E+03  0.00000000000E+00 0. -1.
<mgrwt>
<rscale>  0 0.83438456E+03</rscale>
<asrwt>0</asrwt>
<pdfrwt beam="1">  1        3 0.29077450E-01 0.83438456E+03</pdfrwt>
<pdfrwt beam="2">  1       -3 0.14167379E+00 0.83438456E+03</pdfrwt>
<totfact> 0.11324770E+01</totfact>
</mgrwt>
</event>
<event>
 6    1  0.1001928E-005  0.2060019E+04  0.7818608E-02  0.8579063E-01
         -1   -1    0    0    0  501 -0.00000000000E+00  0.00000000000E+00  0.12469016063E+04  0.12469016063E+04  0.00000000000E+00 0.  1.
          1   -1    0    0  501    0  0.00000000000E+00 -0.00000000000E+00 -0.85084499334E+03  0.85084499334E+03  0.00000000000E+00 0. -1.
         23    2    1    2    0    0 -0.50398930894E+03 -0.23346361115E+03 -0.68244755503E+03  0.88461770228E+03  0.91122623718E+02 0.  0.
         11    1    3    3    0    0 -0.39921416184E+03 -0.14484776191E+03 -0.53736693093E+03  0.68492046225E+03  0.00000000000E+00 0. -1.
        -11    1    3    3    0    0 -0.10477514710E+03 -0.88615849239E+02 -0.14508062410E+03  0.19969724003E+03  0.00000000000E+00 0.  1.
         22    1    1    2    0    0  0.50398930894E+03  0.23346361115E+03  0.10785041680E+04  0.12131288974E+04  0.00000000000E+00 0.  1.
<mgrwt>
<rscale>  0 0.20600194E+04</rscale>
<asrwt>0</asrwt>
<pdfrwt beam="1">  1        1 0.13089923E+00 0.20600194E+04</pdfrwt>
<pdfrwt beam="2">  1       -1 0.19183102E+00 0.20600194E+04</pdfrwt>
<totfact> 0.31653399E+00</totfact>
</mgrwt>
</event>
<event>
 6    1  0.1001928E-005  0.2520807E+04  0.7818608E-02  0.8395610E-01
          2   -1    0    0  501    0  0.00000000000E+00  0.00000000000E+00  0.21387407497E+04  0.21387407497E+04  0.00000000000E+00 0. -1.
         -2   -1    0    0    0  501 -0.00000000000E+00 -0.00000000000E+00 -0.74278132910E+03  0.74278132910E+03  0.00000000000E+00 0.  1.
         23    2    1    2    0    0 -0.93335968008E+03  0.82599476555E+03  0.49646979809E+03  0.13444764626E+04  0.87789823310E+02 0.  0.
         13    1    3    3    0    0 -0.34588636661E+03  0.30818919517E+03  0.13922069841E+03  0.48373583854E+03  0.00000000000E+00 0. -1.
        -13    1    3    3    0    0 -0.58747331347E+03  0.51780557038E+03  0.35724909968E+03  0.86074062410E+03  0.00000000000E+00 0.  1.
         22    1    1    2    0    0  0.93335968008E+03 -0.82599476555E+03  0.89948962247E+03  0.15370456161E+04  0.00000000000E+00 0. -1.
<mgrwt>
<rscale>  0 0.25208068E+04</rscale>
<asrwt>0</asrwt>
<pdfrwt beam="1">  1        2 0.32903704E+00 0.25208068E+04</pdfrwt>
<pdfrwt beam="2">  1       -2 0.11427405E+00 0.25208068E+04</pdfrwt>
<totfact> 0.29800295E+00</totfact>
</mgrwt>
</event>
<event>
 6    1  0.1001928E-005  0.2950569E+04  0.7818608E-02  0.8257989E-01
         -1   -1    0    0    0  501 -0.00000000000E+00  0.00000000000E+00  0.52873654564E+03  0.52873654564E+03  0.00000000000E+00 0.  1.
          1   -1    0    0  501    0  0.00000000000E+00 -0.00000000000E+00 -0.41163487827E+04  0.41163487827E+04  0.00000000000E+00 0. -1.
         23    2    1    2    0    0  0.54383423256E+03 -0.71183623440E+03  0.47057109051E+02  0.90165271206E+03  0.91086467404E+02 0.  0.
         11    1    3    3    0    0  0.22934985907E+03 -0.37489976960E+03  0.18904460628E+02  0.43989609425E+03  0.00000000000E+00 0. -1.
        -11    1    3    3    0    0  0.31448437349E+03 -0.33693646480E+03  0.28152648423E+02  0.46175661782E+03  0.00000000000E+00 0.  1.
         22    1    1    2    0    0 -0.54383423256E+03  0.71183623440E+03 -0.36346693461E+04  0.37434326162E+04  0.00000000000E+00 0. -1.
<mgrwt>
<rscale>  0 0.29505688E+04</rscale>
<asrwt>0</asrwt>
<pdfrwt beam="1">  1        1 0.63328447E+00 0.29505688E+04</pdfrwt>
<pdfrwt beam="2">  1       -1 0.81344079E-01 0.29505688E+04</pdfrwt>
<totfact> 0.97103524E-02</totfact>
</mgrwt>
</event>
<event>
 6    1  0.1001928E-005  0.1221206E+04  0.7818608E-02  0.9094495E-01
          1   -1    0    0  501    0  0.00000000000E+00  0.00000000000E+00  0.76692876778E+03  0.76692876778E+03  0.00000000000E+00 0. -1.
         -1   -1    0    0    0  501 -0.00000000000E+00 -0.00000000000E+00 -0.48614189259E+03  0.48614189259E+03  0.00000000000E+00 0.  1.
         23    2    1    2    0    0 -0.10693703041E+03  0.20125021502E+03  0.71930574888E+03  0.75886829281E+03  0.80889727005E+02 0.  0.
         11    1    3    3    0    0  0.57408675497E+01  0.44726075341E+02  0.89876061896E+02  0.10055389539E+03  0.00000000000E+00 0.  1.
        -11    1    3    3    0    0 -0.11267789796E+03  0.15652413968E+03  0.62942968699E+03  0.65831439742E+03  0.00000000000E+00 0. -1.
         22    1    1    2    0    0  0.10693703041E+03 -0.20125021502E+03 -0.43851887369E+03  0.49420236756E+03  0.00000000000E+00 0.  1.
<mgrwt>
<rscale>  0 0.12212063E+04</rscale>
<asrwt>0</asrwt>
<pdfrwt beam="1">  1        1 0.11798904E+00 0.12212063E+04</pdfrwt>
<pdfrwt beam="2">  1       -1 0.74791060E-01 0.12212063E+04</pdfrwt>
<totfact> 0.42044846E+01</totfact>
</mgrwt>
</event>
<event>
 6    1  0.1001928E-005  0.3942311E+04  0.7818608E-02  0.8016286E-01
         -1   -1    0    0    0  501 -0.00000000000E+00  0.00000000000E+00  0.22655818241E+04  0.22655818241E+04  0.00000000000E+00 0.  1.
          1   -1    0    0  501    0  0.00000000000E+00 -0.00000000000E+00 -0.17149914895E+04  0.17149914895E+04  0.00000000000E+00 0. -1.
         23    2    1    2    0    0 -0.60375660466E+03  0.96458267883E+03  0.18993098228E+04  0.22159243286E+04  0.89448561008E+02 0.  0.
         13    1    3    3    0    0 -0.29808032989E+03  0.45736522960E+03  0.99581352567E+03  0.11356405304E+04  0.00000000000E+00 0. -1.
        -13    1    3    3    0    0 -0.30567627477E+03  0.50721744922E+03  0.90349629716E+03  0.10802837982E+04  0.00000000000E+00 0.  1.
         22    1    1    2    0    0  0.60375660466E+03 -0.96458267883E+03 -0.13487194882E+04  0.17646489849E+04  0.00000000000E+00 0. -1.
<mgrwt>
<rscale>  0 0.39423108E+04</rscale>
<asrwt>0</asrwt>
<pdfrwt beam="1">  1        1 0.26384484E+00 0.39423108E+04</pdfrwt>
<pdfrwt beam="2">  1       -1 0.34855105E+00 0.39423108E+04</pdfrwt>
<totfact> 0.58125085E-02</totfact>
</mgrwt>
</event>
<event>
 6    1  0.1001928E-005  0.3165504E+04  0.7818608E-02  0.8197987E-01
         -1   -1    0    0    0  501 -0.00000000000E+00  0.00000000000E+00  0.66162403501E+03  0.66162403501E+03  0.00000000000E+00 0.  1.
          1   -1    0    0  501    0  0.00000000000E+00 -0.00000000000E+00 -0.37862954989E+04  0.37862954989E+04  0.00000000000E+00 0. -1.
         23    2    1    2    0    0 -0.11333294307E+04  0.10796287319E+04 -0.12464810470E+04  0.20029996907E+04  0.90878839664E+02 0.  0.
         13    1    3    3    0    0 -0.30995370268E+03  0.24092230840E+03 -0.31249835691E+03  0.50176695742E+03  0.00000000000E+00 0. -1.
        -13    1    3    3    0    0 -0.82337572800E+03  0.83870642351E+03 -0.93398269005E+03  0.15012327333E+04  0.00000000000E+00 0.  1.
         22    1    1    2    0    0  0.11333294307E+04 -0.10796287319E+04 -0.18781904169E+04  0.24449198431E+04  0.00000000000E+00 0.  1.
<mgrwt>
<rscale>  0 0.31655041E+04</rscale>
<asrwt>0</asrwt>
<pdfrwt beam="1">  1        1 0.58250700E+00 0.31655041E+04</pdfrwt>
<pdfrwt beam="2">  1       -1 0.10178831E+00 0.31655041E+04</pdfrwt>
<totfact> 0.11220758E-01</totfact>
</mgrwt>
</event>
<event>
 6    1  0.1001928E-005  0.6351578E+03  0.7818608E-02  0.9835035E-01
          2   -1    0    0  501    0  0.00000000000E+00  0.00000000000E+00  0.12096508522E+04  0.12096508522E+04  0.00000000000E+00 0. -1.
         -2   -1    0    0    0  501 -0.00000000000E+00 -0.00000000000E+00 -0.83376413968E+02  0.83376413968E+02  0.00000000000E+00 0.  1.
         23    2    1    2    0    0  0.43991184864E+02  0.29299947718E+03  0.76641302165E+03  0.82688977882E+03  0.92595186640E+02 0.  0.
         13    1    3    3    0    0 -0.11383818601E+02  0.73031105908E+02  0.11120022769E+03  0.13352387200E+03  0.00000000000E+00 0.  1.
        -13    1    3    3    0    0  0.55375003465E+02  0.21996837127E+03  0.65521279396E+03  0.69336590682E+03  0.00000000000E+00 0. -1.
         22    1    1    2    0    0 -0.43991184864E+02 -0.29299947718E+03  0.35986141661E+03  0.46613748738E+03  0.00000000000E+00 0. -1.
<mgrwt>
<rscale>  0 0.63515778E+03</rscale>
<asrwt>0</asrwt>
<pdfrwt beam="1">  1        2 0.18610012E+00 0.63515778E+03</pdfrwt>
<pdfrwt beam="2">  1       -2 0.12827141E-01 0.63515778E+03</pdfrwt>
<totfact> 0.86129710E+02</totfact>
</mgrwt>
</event>
<event>
 6    1  0.1001928E-005  0.2549349E+04  0.7818608E-02  0.8385612E-01
          3   -1    0    0  501    0  0.00000000000E+00  0.00000000000E+00  0.19697247031E+04  0.19697247031E+04  0.00000000000E+00 0. -1.
         -3   -1    0    0    0  501 -0.00000000000E+00 -0.00000000000E+00 -0.82488465066E+03  0.82488465066E+03  0.00000000000E+00 0.  1.
         23    2    1    2    0    0  0.31526035062E+03 -0.10525617485E+03  0.19202663438E+04  0.19509542796E+04  0.91278798049E+02 0.  0.
         11    1    3    3    0    0  0.96092265111E+02 -0.46884079747E+02  0.40812572498E+03  0.42189862259E+03  0.00000000000E+00 0. -1.
        -11    1    3    3    0    0  0.21916808551E+03 -0.58372095102E+02  0.15121406188E+04  0.15290556570E+04  0.00000000000E+00 0.  1.
         22    1    1    2    0    0 -0.31526035062E+03  0.10525617485E+03 -0.77542629129E+03  0.84365507421E+03  0.00000000000E+00 0.  1.
<mgrwt>
<rscale>  0 0.25493495E+04</rscale>
<asrwt>0</asrwt>
<pdfrwt beam="1">  1        3 0.30303457E+00 0.25493495E+04</pdfrwt>
<pdfrwt beam="2">  1       -3 0.12690533E+00 0.25493495E+04</pdfrwt>
<totfact> 0.42415084E-02</totfact>
</mgrwt>
</event>
<event>
 6    1  0.1001928E-005  0.2374787E+04  0.7818608E-02  0.8449004E-01
         -1   -1    0    0    0  501 -0.00000000000E+00  0.00000000000E+00  0.65653135582E+03  0.65653135582E+03  0.00000000000E+00 0.  1.
          1   -1    0    0  501    0  0.00000000000E+00 -0.00000000000E+00 -0.21475037017E+04  0.21475037017E+04  0.00000000000E+00 0. -1.
         23    2    1    2    0    0 -0.90713113211E+03 -0.75247397284E+03 -0.59421511251E+03  0.13230632461E+04  0.91108630534E+02 0.  0.
         13    1    3    3    0    0 -0.77137677698E+03 -0.67948278607E+03 -0.51915050199E+03  0.11516233031E+04  0.00000000000E+00 0. -1.
        -13    1    3    3    0    0 -0.13575435513E+03 -0.72991186774E+02 -0.75064610525E+02  0.17143994294E+03  0.00000000000E+00 0.  1.
         22    1    1    2    0    0  0.90713113211E+03  0.75247397284E+03 -0.89675723334E+03  0.14809718114E+04  0.00000000000E+00 0. -1.
<mgrwt>
<rscale>  0 0.23747872E+04</rscale>
<asrwt>0</asrwt>
<pdfrwt beam="1">  1        1 0.33038518E+00 0.23747872E+04</pdfrwt>
<pdfrwt beam="2">  1       -1 0.10100482E+00 0.23747872E+04</pdfrwt>
<totfact> 0.19784695E+00</totfact>
</mgrwt>
</event>
<event>
 6    1  0.1001928E-005  0.2786326E+04  0.7818608E-02  0.8307526E-01
         -1   -1    0    0    0  501 -0.00000000000E+00  0.00000000000E+00  0.76214255279E+03  0.76214255279E+03  0.00000000000E+00 0.  1.
          1   -1    0    0  501    0  0.00000000000E+00 -0.00000000000E+00 -0.25466402933E+04  0.25466402933E+04  0.00000000000E+00 0. -1.
         23    2    1    2    0    0 -0.72634292865E+03  0.11852045397E+04 -0.81493292183E+03  0.16139849854E+04  0.92455477140E+02 0.  0.
         13    1    3    3    0    0 -0.17643671542E+03  0.35678252679E+03 -0.20861853026E+03  0.44938332984E+03  0.00000000000E+00 0.  1.
        -13    1    3    3    0    0 -0.54990621323E+03  0.82842201288E+03 -0.60631439158E+03  0.11646016556E+04  0.00000000000E+00 0. -1.
         22    1    1    2    0    0  0.72634292865E+03 -0.11852045397E+04 -0.96956481870E+03  0.16947978607E+04  0.00000000000E+00 0. -1.
<mgrwt>
<rscale>  0 0.27863258E+04</rscale>
<asrwt>0</asrwt>
<pdfrwt beam="1">  1        1 0.39179081E+00 0.27863258E+04</pdfrwt>
<pdfrwt beam="2">  1       -1 0.11725270E+00 0.27863258E+04</pdfrwt>
<totfact> 0.71346247E-01</totfact>
</mgrwt>
</event>
<event>
 6    1  0.1001928E-005  0.1980189E+04  0.7818608E-02  0.8615939E-01
          2   -1    0    0  501    0  0.00000000000E+00  0.00000000000E+00  0.88627086689E+03  0.88627086689E+03  0.00000000000E+00 0. -1.
         -2   -1    0    0    0  501 -0.00000000000E+00 -0.00000000000E+00 -0.11060812256E+04  0.11060812256E+04  0.00000000000E+00 0.  1.
         23    2    1    2    0    0 -0.33745549205E+03  0.84203590855E+03 -0.50396074851E+03  0.10417511645E+04  0.91478807834E+02 0.  0.
         13    1    3    3    0    0 -0.27221090083E+03  0.62057103187E+03 -0.33691958853E+03  0.75678397794E+03  0.00000000000E+00 0. -1.
        -13    1    3    3    0    0 -0.65244591220E+02  0.22146487668E+03 -0.16704115998E+03  0.28496718656E+03  0.00000000000E+00 0.  1.
         22    1    1    2    0    0  0.33745549205E+03 -0.84203590855E+03  0.28415038976E+03  0.95060092804E+03  0.00000000000E+00 0. -1.
<mgrwt>
<rscale>  0 0.19801895E+04</rscale>
<asrwt>0</asrwt>
<pdfrwt beam="1">  1        2 0.13634936E+00 0.19801895E+04</pdfrwt>
<pdfrwt beam="2">  1       -2 0.17016634E+00 0.19801895E+04</pdfrwt>
<totfact> 0.59235587E+00</totfact>
</mgrwt>
</event>
<event>
 6    1  0.1001928E-005  0.2683433E+04  0.7818608E-02  0.8340401E-01
         -1   -1    0    0    0  501 -0.00000000000E+00  0.00000000000E+00  0.87394745424E+03  0.87394745424E+03  0.00000000000E+00 0.  1.
          1   -1    0    0  501    0  0.00000000000E+00 -0.00000000000E+00 -0.20598524093E+04  0.20598524093E+04  0.00000000000E+00 0. -1.
         23    2    1    2    0    0  0.12740110135E+04  0.14894758603E+02 -0.13792093030E+03  0.12840736946E+04  0.80604923336E+02 0.  0.
         11    1    3    3    0    0  0.80192090075E+03 -0.23389446341E+02 -0.10787051762E+03  0.80948146726E+03  0.00000000000E+00 0. -1.
        -11    1    3    3    0    0  0.47209011276E+03  0.38284204944E+02 -0.30050412674E+02  0.47459222730E+03  0.00000000000E+00 0.  1.
         22    1    1    2    0    0 -0.12740110135E+04 -0.14894758603E+02 -0.10479840247E+04  0.16497261689E+04  0.00000000000E+00 0. -1.
<mgrwt>
<rscale>  0 0.26834327E+04</rscale>
<asrwt>0</asrwt>
<pdfrwt beam="1">  1        1 0.31690037E+00 0.26834327E+04</pdfrwt>
<pdfrwt beam="2">  1       -1 0.13445345E+00 0.26834327E+04</pdfrwt>
<totfact> 0.11042837E+00</totfact>
</mgrwt>
</event>
<event>
 6    1  0.1001928E-005  0.2962986E+04  0.7818608E-02  0.8254380E-01
         -1   -1    0    0    0  501 -0.00000000000E+00  0.00000000000E+00  0.78448652754E+03  0.78448652754E+03  0.00000000000E+00 0.  1.
          1   -1    0    0  501    0  0.00000000000E+00 -0.00000000000E+00 -0.27977813067E+04  0.27977813067E+04  0.00000000000E+00 0. -1.
         23    2    1    2    0    0 -0.12517698895E+04 -0.88023698966E+02 -0.61387960089E+02  0.12617902415E+04  0.11691922070E+03 0.  0.
         13    1    3    3    0    0 -0.59098205489E+03 -0.61171902030E+02  0.26001166550E+02  0.59470820699E+03  0.00000000000E+00 0. -1.
        -13    1    3    3    0    0 -0.66078783461E+03 -0.26851796936E+02 -0.87389126639E+02  0.66708203455E+03  0.00000000000E+00 0.  1.
         22    1    1    2    0    0  0.12517698895E+04  0.88023698966E+02 -0.19519068190E+04  0.23204775927E+04  0.00000000000E+00 0. -1.
<mgrwt>
<rscale>  0 0.29629862E+04</rscale>
<asrwt>0</asrwt>
<pdfrwt beam="1">  1        1 0.43042789E+00 0.29629862E+04</pdfrwt>
<pdfrwt beam="2">  1       -1 0.12069024E+00 0.29629862E+04</pdfrwt>
<totfact> 0.43563786E-01</totfact>
</mgrwt>
</event>
<event>
 6    1  0.1909429E-005  0.4079800E+04  0.7818608E-02  0.7988639E-01
         -2   -1    0    0    0  501 -0.00000000000E+00  0.00000000000E+00  0.14682713674E+04  0.14682713674E+04  0.00000000000E+00 0.  1.
          2   -1    0    0  501    0  0.00000000000E+00 -0.00000000000E+00 -0.28340761291E+04  0.28340761291E+04  0.00000000000E+00 0. -1.
         23    2    1    2    0    0  0.47210040392E+02 -0.39215611385E+03 -0.27925938364E+04  0.28218940966E+04  0.92145275205E+02 0.  0.
         11    1    3    3    0    0  0.58865070335E+02 -0.21036839185E+03 -0.17393011539E+04  0.17529656188E+04  0.00000000000E+00 0.  1.
        -11    1    3    3    0    0 -0.11655029943E+02 -0.18178772200E+03 -0.10532926825E+04  0.10689284777E+04  0.00000000000E+00 0. -1.
         22    1    1    2    0    0 -0.47210040392E+02  0.39215611385E+03  0.14267890748E+04  0.14804533999E+04  0.00000000000E+00 0.  1.
<mgrwt>
<rscale>  0 0.40798004E+04</rscale>
<asrwt>0</asrwt>
<pdfrwt beam="1">  1        2 0.43601171E+00 0.40798004E+04</pdfrwt>
<pdfrwt beam="2">  1       -2 0.22588791E+00 0.40798004E+04</pdfrwt>
<totfact> 0.15674839E-01</totfact>
</mgrwt>
</event>
<event>
 6    1  0.1001928E-005  0.2405162E+04  0.7818608E-02  0.8437573E-01
          2   -1    0    0  501    0  0.00000000000E+00  0.00000000000E+00  0.14366955809E+04  0.14366955809E+04  0.00000000000E+00 0. -1.
         -2   -1    0    0    0  501 -0.00000000000E+00 -0.00000000000E+00 -0.10066163961E+04  0.10066163961E+04  0.00000000000E+00 0.  1.
         23    2    1    2    0    0 -0.10842254798E+04 -0.49703350310E+03  0.73524713735E+02  0.11984351617E+04  0.90850200702E+02 0.  0.
         11    1    3    3    0    0 -0.65314405960E+03 -0.34706580447E+03  0.37028406877E+02  0.74055583054E+03  0.00000000000E+00 0. -1.
        -11    1    3    3    0    0 -0.43108142023E+03 -0.14996769863E+03  0.36496306858E+02  0.45787933117E+03  0.00000000000E+00 0.  1.
         22    1    1    2    0    0  0.10842254798E+04  0.49703350310E+03  0.35655447107E+03  0.12448768153E+04  0.00000000000E+00 0. -1.
<mgrwt>
<rscale>  0 0.24051622E+04</rscale>
<asrwt>0</asrwt>
<pdfrwt beam="1">  1        2 0.22103009E+00 0.24051622E+04</pdfrwt>
<pdfrwt beam="2">  1       -2 0.15486406E+00 0.24051622E+04</pdfrwt>
<totfact> 0.34109592E+00</totfact>
</mgrwt>
</event>
<event>
 6    1  0.1001928E-005  0.2712661E+04  0.7818608E-02  0.8330909E-01
          2   -1    0    0  501    0  0.00000000000E+00  0.00000000000E+00  0.13828273943E+04  0.13828273943E+04  0.00000000000E+00 0. -1.
         -2   -1    0    0    0  501 -0.00000000000E+00 -0.00000000000E+00 -0.13303411587E+04  0.13303411587E+04  0.00000000000E+00 0.  1.
         23    2    1    2    0    0 -0.77235070914E+03 -0.53686113281E+03 -0.94895811617E+03  0.13392557889E+04  0.91318498048E+02 0.  0.
         11    1    3    3    0    0 -0.19814521677E+03 -0.18809539116E+03 -0.27476841984E+03  0.38747785439E+03  0.00000000000E+00 0. -1.
        -11    1    3    3    0    0 -0.57420549237E+03 -0.34876574164E+03 -0.67418969634E+03  0.95177793453E+03  0.00000000000E+00 0.  1.
         22    1    1    2    0    0  0.77235070914E+03  0.53686113281E+03  0.10014443517E+04  0.13739127641E+04  0.00000000000E+00 0. -1.
<mgrwt>
<rscale>  0 0.27126608E+04</rscale>
<asrwt>0</asrwt>
<pdfrwt beam="1">  1        2 0.21274268E+00 0.27126608E+04</pdfrwt>
<pdfrwt beam="2">  1       -2 0.20466787E+00 0.27126608E+04</pdfrwt>
<totfact> 0.16084400E+00</totfact>
</mgrwt>
</event>
<event>
 6    1  0.1001928E-005  0.8728817E+03  0.7818608E-02  0.9460130E-01
         -2   -1    0    0    0  501 -0.00000000000E+00  0.00000000000E+00  0.85564578467E+02  0.85564578467E+02  0.00000000000E+00 0. -1.
          2   -1    0    0  501    0  0.00000000000E+00 -0.00000000000E+00 -0.22261621842E+04  0.22261621842E+04  0.00000000000E+00 0.  1.
         23    2    1    2    0    0  0.27610944593E+03  0.24731756092E+03 -0.49417203554E+03  0.62408949114E+03  0.88765365855E+02 0.  0.
         13    1    3    3    0    0  0.51585123582E+02  0.11737543900E+02 -0.98200408846E+02  0.11154422983E+03  0.00000000000E+00 0.  1.
        -13    1    3    3    0    0  0.22452432234E+03  0.23558001701E+03 -0.39597162670E+03  0.51254526131E+03  0.00000000000E+00 0. -1.
         22    1    1    2    0    0 -0.27610944593E+03 -0.24731756092E+03 -0.16464255702E+04  0.16876372716E+04  0.00000000000E+00 0.  1.
<mgrwt>
<rscale>  0 0.87288173E+03</rscale>
<asrwt>0</asrwt>
<pdfrwt beam="1">  1        2 0.34248648E+00 0.87288173E+03</pdfrwt>
<pdfrwt beam="2">  1       -2 0.13163782E-01 0.87288173E+03</pdfrwt>
<totfact> 0.22192481E+02</totfact>
</mgrwt>
</event>
<event>
 6    1  0.1001928E-005  0.2962671E+04  0.7818608E-02  0.8254471E-01
         -2   -1    0    0    0  501 -0.00000000000E+00  0.00000000000E+00  0.78242448121E+03  0.78242448121E+03  0.00000000000E+00 0.  1.
          2   -1    0    0  501    0  0.00000000000E+00 -0.00000000000E+00 -0.28045576627E+04  0.28045576627E+04  0.00000000000E+00 0. -1.
         23    2    1    2    0    0  0.13465154269E+04 -0.58778530272E+03 -0.12282543244E+04  0.19170004084E+04  0.87672819762E+02 0.  0.
         11    1    3    3    0    0  0.79812944304E+03 -0.32146453296E+03 -0.67248573464E+03  0.10920563708E+04  0.00000000000E+00 0. -1.
        -11    1    3    3    0    0  0.54838598390E+03 -0.26632076977E+03 -0.55576858979E+03  0.82494403758E+03  0.00000000000E+00 0.  1.
         22    1    1    2    0    0 -0.13465154269E+04  0.58778530272E+03 -0.79387885703E+03  0.16699817355E+04  0.00000000000E+00 0.  1.
<mgrwt>
<rscale>  0 0.29626708E+04</rscale>
<asrwt>0</asrwt>
<pdfrwt beam="1">  1        2 0.43147042E+00 0.29626708E+04</pdfrwt>
<pdfrwt beam="2">  1       -2 0.12037299E+00 0.29626708E+04</pdfrwt>
<totfact> 0.10391240E+00</totfact>
</mgrwt>
</event>
<event>
 6    1  0.1001928E-005  0.8946274E+03  0.7818608E-02  0.9432323E-01
          2   -1    0    0  501    0  0.00000000000E+00  0.00000000000E+00  0.94801609898E+03  0.94801609898E+03  0.00000000000E+00 0. -1.
         -2   -1    0    0    0  501 -0.00000000000E+00 -0.00000000000E+00 -0.21106132026E+03  0.21106132026E+03  0.00000000000E+00 0.  1.
         23    2    1    2    0    0  0.23534889085E+03  0.21095505792E+03 -0.29562924831E+02  0.32995708614E+03  0.90036521958E+02 0.  0.
         13    1    3    3    0    0  0.75790807576E+02  0.85574376804E+02  0.30532500719E+02  0.11831928870E+03  0.00000000000E+00 0.  1.
        -13    1    3    3    0    0  0.15955808327E+03  0.12538068112E+03 -0.60095425551E+02  0.21163779744E+03  0.00000000000E+00 0. -1.
         22    1    1    2    0    0 -0.23534889085E+03 -0.21095505792E+03  0.76651770355E+03  0.82912033309E+03  0.00000000000E+00 0. -1.
<mgrwt>
<rscale>  0 0.89462736E+03</rscale>
<asrwt>0</asrwt>
<pdfrwt beam="1">  1        2 0.14584863E+00 0.89462736E+03</pdfrwt>
<pdfrwt beam="2">  1       -2 0.32470973E-01 0.89462736E+03</pdfrwt>
<totfact> 0.24101008E+02</totfact>
</mgrwt>
</event>
<event>
 6    1  0.1001928E-005  0.7952183E+03  0.7818608E-02  0.9566964E-01
         -1   -1    0    0    0  501 -0.00000000000E+00  0.00000000000E+00  0.10010324511E+03  0.10010324511E+03  0.00000000000E+00 0.  1.
          1   -1    0    0  501    0  0.00000000000E+00 -0.00000000000E+00 -0.15793000063E+04  0.15793000063E+04  0.00000000000E+00 0. -1.
         23    2    1    2    0    0  0.37506019859E+03  0.85949328724E+02 -0.59113529350E+03  0.71156513990E+03  0.93949845251E+02 0.  0.
         11    1    3    3    0    0  0.16030574192E+03  0.80142422516E+02 -0.30496237200E+03  0.35372699517E+03  0.00000000000E+00 0.  1.
        -11    1    3    3    0    0  0.21475445668E+03  0.58069062083E+01 -0.28617292150E+03  0.35783814473E+03  0.00000000000E+00 0. -1.
         22    1    1    2    0    0 -0.37506019859E+03 -0.85949328724E+02 -0.88806146770E+03  0.96783811151E+03  0.00000000000E+00 0.  1.
<mgrwt>
<rscale>  0 0.79521835E+03</rscale>
<asrwt>0</asrwt>
<pdfrwt beam="1">  1        1 0.24296922E+00 0.79521835E+03</pdfrwt>
<pdfrwt beam="2">  1       -1 0.15400500E-01 0.79521835E+03</pdfrwt>
<totfact> 0.18476559E+02</totfact>
</mgrwt>
</event>
<event>
 6    1  0.1001928E-005  0.3357927E+04  0.7818608E-02  0.8148310E-01
         -1   -1    0    0    0  501 -0.00000000000E+00  0.00000000000E+00  0.38710371539E+04  0.38710371539E+04  0.00000000000E+00 0.  1.
          1   -1    0    0  501    0  0.00000000000E+00 -0.00000000000E+00 -0.72820773674E+03  0.72820773674E+03  0.00000000000E+00 0. -1.
         23    2    1    2    0    0 -0.13914858371E+04  0.92652310790E+03  0.17700012465E+04  0.24360678081E+04  0.82728765283E+02 0.  0.
         13    1    3    3    0    0 -0.77365510493E+03  0.49588007095E+03  0.91741398881E+03  0.12984943947E+04  0.00000000000E+00 0. -1.
        -13    1    3    3    0    0 -0.61783073217E+03  0.43064303696E+03  0.85258725773E+03  0.11375734134E+04  0.00000000000E+00 0.  1.
         22    1    1    2    0    0  0.13914858371E+04 -0.92652310790E+03  0.13728281706E+04  0.21631770825E+04  0.00000000000E+00 0. -1.
<mgrwt>
<rscale>  0 0.33579275E+04</rscale>
<asrwt>0</asrwt>
<pdfrwt beam="1">  1        1 0.11203196E+00 0.33579275E+04</pdfrwt>
<pdfrwt beam="2">  1       -1 0.59554416E+00 0.33579275E+04</pdfrwt>
<totfact> 0.96580561E-03</totfact>
</mgrwt>
</event>
<event>
 6    1  0.1001928E-005  0.9154041E+03  0.7818608E-02  0.9406528E-01
         -2   -1    0    0    0  501 -0.00000000000E+00  0.00000000000E+00  0.66478333361E+02  0.66478333361E+02  0.00000000000E+00 0.  1.
          2   -1    0    0  501    0  0.00000000000E+00 -0.00000000000E+00 -0.31512700187E+04  0.31512700187E+04  0.00000000000E+00 0. -1.
         23    2    1    2    0    0 -0.23855445329E+03  0.34900397114E+03 -0.96721513071E+03  0.10583867650E+04  0.77236236018E+02 0.  0.
         11    1    3    3    0    0 -0.87254577468E+01  0.58013160222E+02 -0.11968112787E+03  0.13328628114E+03  0.00000000000E+00 0. -1.
        -11    1    3    3    0    0 -0.22982899554E+03  0.29099081092E+03 -0.84753400284E+03  0.92510048384E+03  0.00000000000E+00 0.  1.
         22    1    1    2    0    0  0.23855445329E+03 -0.34900397114E+03 -0.21175765547E+04  0.21593615871E+04  0.00000000000E+00 0.  1.
<mgrwt>
<rscale>  0 0.91540413E+03</rscale>
<asrwt>0</asrwt>
<pdfrwt beam="1">  1        2 0.48481069E+00 0.91540413E+03</pdfrwt>
<pdfrwt beam="2">  1       -2 0.10227438E-01 0.91540413E+03</pdfrwt>
<totfact> 0.96015584E+01</totfact>
</mgrwt>
</event>
<event>
 6    1  0.1001928E-005  0.4324992E+04  0.7818608E-02  0.7942013E-01
         -2   -1    0    0    0  501 -0.00000000000E+00  0.00000000000E+00  0.38587121302E+04  0.38587121302E+04  0.00000000000E+00 0.  1.
          2   -1    0    0  501    0  0.00000000000E+00 -0.00000000000E+00 -0.12119041065E+04  0.12119041065E+04  0.00000000000E+00 0. -1.
         23    2    1    2    0    0  0.40019561193E+03  0.10755274519E+04  0.34715542715E+04  0.36574204962E+04  0.90109923385E+02 0.  0.
         13    1    3    3    0    0  0.50712798476E+02  0.16469544911E+03  0.62545538187E+03  0.64876098341E+03  0.00000000000E+00 0. -1.
        -13    1    3    3    0    0  0.34948281345E+03  0.91083200280E+03  0.28460988896E+04  0.30086595128E+04  0.00000000000E+00 0.  1.
         22    1    1    2    0    0 -0.40019561193E+03 -0.10755274519E+04 -0.82474624780E+03  0.14131957405E+04  0.00000000000E+00 0. -1.
<mgrwt>
<rscale>  0 0.43249921E+04</rscale>
<asrwt>0</asrwt>
<pdfrwt beam="1">  1        2 0.18644679E+00 0.43249921E+04</pdfrwt>
<pdfrwt beam="2">  1       -2 0.59364801E+00 0.43249921E+04</pdfrwt>
<totfact> 0.77289230E-03</totfact>
</mgrwt>
</event>
<event>
 6    1  0.1001928E-005  0.4201093E+04  0.7818608E-02  0.7965164E-01
         -1   -1    0    0    0  501 -0.00000000000E+00  0.00000000000E+00  0.26450715318E+04  0.26450715318E+04  0.00000000000E+00 0. -1.
          1   -1    0    0  501    0  0.00000000000E+00 -0.00000000000E+00 -0.16681195782E+04  0.16681195782E+04  0.00000000000E+00 0.  1.
         23    2    1    2    0    0  0.31018491829E+03 -0.20762176244E+04  0.45475426849E+03  0.21499563262E+04  0.92824846769E+02 0.  0.
         11    1    3    3    0    0  0.45810620432E+02 -0.46649044087E+03  0.13296512324E+03  0.48722855865E+03  0.00000000000E+00 0.  1.
        -11    1    3    3    0    0  0.26437429786E+03 -0.16097271836E+04  0.32178914525E+03  0.16627277675E+04  0.00000000000E+00 0. -1.
         22    1    1    2    0    0 -0.31018491829E+03  0.20762176244E+04  0.52219768517E+03  0.21632347838E+04  0.00000000000E+00 0. -1.
<mgrwt>
<rscale>  0 0.42010930E+04</rscale>
<asrwt>0</asrwt>
<pdfrwt beam="1">  1        1 0.25663378E+00 0.42010930E+04</pdfrwt>
<pdfrwt beam="2">  1       -1 0.40693408E+00 0.42010930E+04</pdfrwt>
<totfact> 0.24729508E-02</totfact>
</mgrwt>
</event>
<event>
 6    1  0.1001928E-005  0.1161142E+04  0.7818608E-02  0.9147566E-01
          1   -1    0    0  501    0  0.00000000000E+00  0.00000000000E+00  0.21778212930E+04  0.21778212930E+04  0.00000000000E+00 0. -1.
         -1   -1    0    0    0  501 -0.00000000000E+00 -0.00000000000E+00 -0.15477046594E+03  0.15477046594E+03  0.00000000000E+00 0.  1.
         23    2    1    2    0    0 -0.38056790675E+03 -0.25820992891E+03  0.31673132982E+03  0.56538194523E+03  0.88508246302E+02 0.  0.
         13    1    3    3    0    0 -0.35792671336E+03 -0.21015005045E+03  0.28524719496E+03  0.50362738019E+03  0.00000000000E+00 0. -1.
        -13    1    3    3    0    0 -0.22641193395E+02 -0.48059878460E+02  0.31484134858E+02  0.61754565044E+02  0.00000000000E+00 0.  1.
         22    1    1    2    0    0  0.38056790675E+03  0.25820992891E+03  0.17063194973E+04  0.17672098137E+04  0.00000000000E+00 0. -1.
<mgrwt>
<rscale>  0 0.11611415E+04</rscale>
<asrwt>0</asrwt>
<pdfrwt beam="1">  1        1 0.33504941E+00 0.11611415E+04</pdfrwt>
<pdfrwt beam="2">  1       -1 0.23810843E-01 0.11611415E+04</pdfrwt>
<totfact> 0.34215130E+01</totfact>
</mgrwt>
</event>
<event>
 6    1  0.1001928E-005  0.4398897E+04  0.7818608E-02  0.7928580E-01
          2   -1    0    0  501    0  0.00000000000E+00  0.00000000000E+00  0.21940113790E+04  0.21940113790E+04  0.00000000000E+00 0. -1.
         -2   -1    0    0    0  501 -0.00000000000E+00 -0.00000000000E+00 -0.22048994175E+04  0.22048994175E+04  0.00000000000E+00 0.  1.
         23    2    1    2    0    0 -0.19501921509E+04  0.21682958769E+02  0.10092382350E+04  0.21979162054E+04  0.92489214756E+02 0.  0.
         13    1    3    3    0    0 -0.52466861012E+03 -0.35022831460E+02  0.27591519681E+03  0.59382905368E+03  0.00000000000E+00 0. -1.
        -13    1    3    3    0    0 -0.14255235408E+04  0.56705790229E+02  0.73332303821E+03  0.16040871517E+04  0.00000000000E+00 0.  1.
         22    1    1    2    0    0  0.19501921509E+04 -0.21682958769E+02 -0.10201262736E+04  0.22009945911E+04  0.00000000000E+00 0.  1.
<mgrwt>
<rscale>  0 0.43988973E+04</rscale>
<asrwt>0</asrwt>
<pdfrwt beam="1">  1        2 0.33754021E+00 0.43988973E+04</pdfrwt>
<pdfrwt beam="2">  1       -2 0.33921530E+00 0.43988973E+04</pdfrwt>
<totfact> 0.72292911E-02</totfact>
</mgrwt>
</event>
<event>
 6    1  0.1001928E-005  0.2281570E+04  0.7818608E-02  0.8485223E-01
          1   -1    0    0  501    0  0.00000000000E+00  0.00000000000E+00  0.15828221386E+04  0.15828221386E+04  0.00000000000E+00 0. -1.
         -1   -1    0    0    0  501 -0.00000000000E+00 -0.00000000000E+00 -0.82219617981E+03  0.82219617981E+03  0.00000000000E+00 0.  1.
         23    2    1    2    0    0 -0.84117373569E+03 -0.74696393080E+03  0.56833357147E+03  0.12637450252E+04  0.92304240007E+02 0.  0.
         11    1    3    3    0    0 -0.41456472227E+03 -0.42029316332E+03  0.26998445311E+03  0.64915472502E+03  0.00000000000E+00 0. -1.
        -11    1    3    3    0    0 -0.42660901341E+03 -0.32667076748E+03  0.29834911836E+03  0.61459030018E+03  0.00000000000E+00 0.  1.
         22    1    1    2    0    0  0.84117373569E+03  0.74696393080E+03  0.19229238728E+03  0.11412732932E+04  0.00000000000E+00 0. -1.
<mgrwt>
<rscale>  0 0.22815699E+04</rscale>
<asrwt>0</asrwt>
<pdfrwt beam="1">  1        1 0.24351110E+00 0.22815699E+04</pdfrwt>
<pdfrwt beam="2">  1       -1 0.12649172E+00 0.22815699E+04</pdfrwt>
<totfact> 0.28202245E+00</totfact>
</mgrwt>
</event>
<event>
 6    1  0.1001928E-005  0.1116629E+04  0.7818608E-02  0.9189134E-01
         -1   -1    0    0    0  501 -0.00000000000E+00  0.00000000000E+00  0.12244245220E+03  0.12244245220E+03  0.00000000000E+00 0.  1.
          1   -1    0    0  501    0  0.00000000000E+00 -0.00000000000E+00 -0.25458074654E+04  0.25458074654E+04  0.00000000000E+00 0. -1.
         23    2    1    2    0    0 -0.53536868280E+03 -0.96579586656E+02 -0.14771549613E+04  0.15768010157E+04  0.91473605096E+02 0.  0.
         11    1    3    3    0    0 -0.28735063667E+03 -0.17356601630E+02 -0.68777575925E+03  0.74559180187E+03  0.00000000000E+00 0.  1.
        -11    1    3    3    0    0 -0.24801804613E+03 -0.79222985026E+02 -0.78937920206E+03  0.83120921386E+03  0.00000000000E+00 0. -1.
         22    1    1    2    0    0  0.53536868280E+03  0.96579586656E+02 -0.94621005186E+03  0.10914489018E+04  0.00000000000E+00 0. -1.
<mgrwt>
<rscale>  0 0.11166287E+04</rscale>
<asrwt>0</asrwt>
<pdfrwt beam="1">  1        1 0.39166267E+00 0.11166287E+04</pdfrwt>
<pdfrwt beam="2">  1       -1 0.18837301E-01 0.11166287E+04</pdfrwt>
<totfact> 0.28587912E+01</totfact>
</mgrwt>
</event>
<event>
 6    1  0.1001928E-005  0.5927501E+03  0.7818608E-02  0.9920562E-01
         -1   -1    0    0    0  501 -0.00000000000E+00  0.00000000000E+00  0.42972026004E+03  0.42972026004E+03  0.00000000000E+00 0.  1.
          1   -1    0    0  501    0  0.00000000000E+00 -0.00000000000E+00 -0.20440780106E+03  0.20440780106E+03  0.00000000000E+00 0. -1.
         23    2    1    2    0    0 -0.19099722547E+03 -0.15576059720E+03 -0.46866861133E+02  0.26694570031E+03  0.91226095322E+02 0.  0.
         13    1    3    3    0    0 -0.10865185437E+03 -0.32292314286E+02 -0.32084353845E+02  0.11780248207E+03  0.00000000000E+00 0.  1.
        -13    1    3    3    0    0 -0.82345371096E+02 -0.12346828291E+03 -0.14782507288E+02  0.14914321824E+03  0.00000000000E+00 0. -1.
         22    1    1    2    0    0  0.19099722547E+03  0.15576059720E+03  0.27217932011E+03  0.36718236079E+03  0.00000000000E+00 0.  1.
<mgrwt>
<rscale>  0 0.59275011E+03</rscale>
<asrwt>0</asrwt>
<pdfrwt beam="1">  1        1 0.31447354E-01 0.59275011E+03</pdfrwt>
<pdfrwt beam="2">  1       -1 0.66110809E-01 0.59275011E+03</pdfrwt>
<totfact> 0.34006368E+02</totfact>
</mgrwt>
</event>
<event>
 6    1  0.1001928E-005  0.3056826E+04  0.7818608E-02  0.8227687E-01
          2   -1    0    0  501    0  0.00000000000E+00  0.00000000000E+00  0.18502574050E+04  0.18502574050E+04  0.00000000000E+00 0. -1.
         -2   -1    0    0    0  501 -0.00000000000E+00 -0.00000000000E+00 -0.12625521850E+04  0.12625521850E+04  0.00000000000E+00 0.  1.
         23    2    1    2    0    0  0.68262288319E+03  0.13493749731E+04  0.78221275020E+02  0.15170775608E+04  0.92838241334E+02 0.  0.
         13    1    3    3    0    0  0.47870930221E+03  0.10344318444E+04  0.63408998106E+02  0.11415921066E+04  0.00000000000E+00 0.  1.
        -13    1    3    3    0    0  0.20391358097E+03  0.31494312867E+03  0.14812276913E+02  0.37548545425E+03  0.00000000000E+00 0. -1.
         22    1    1    2    0    0 -0.68262288319E+03 -0.13493749731E+04  0.50948394496E+03  0.15957320292E+04  0.00000000000E+00 0.  1.
<mgrwt>
<rscale>  0 0.30568262E+04</rscale>
<asrwt>0</asrwt>
<pdfrwt beam="1">  1        2 0.28465499E+00 0.30568262E+04</pdfrwt>
<pdfrwt beam="2">  1       -2 0.19423880E+00 0.30568262E+04</pdfrwt>
<totfact> 0.10012217E+00</totfact>
</mgrwt>
</event>
<event>
 6    1  0.1001928E-005  0.3514114E+04  0.7818608E-02  0.8110453E-01
         -2   -1    0    0    0  501 -0.00000000000E+00  0.00000000000E+00  0.85518846464E+03  0.85518846464E+03  0.00000000000E+00 0.  1.
          2   -1    0    0  501    0  0.00000000000E+00 -0.00000000000E+00 -0.36100231354E+04  0.36100231354E+04  0.00000000000E+00 0. -1.
         23    2    1    2    0    0  0.90686318884E+03 -0.30113050490E+03  0.49341083934E+03  0.10793321990E+04  0.91778620817E+02 0.  0.
         13    1    3    3    0    0  0.26691303434E+03 -0.11910652486E+03  0.18571785277E+03  0.34629474874E+03  0.00000000000E+00 0.  1.
        -13    1    3    3    0    0  0.63995015450E+03 -0.18202398004E+03  0.30769298657E+03  0.73303745029E+03  0.00000000000E+00 0. -1.
         22    1    1    2    0    0 -0.90686318884E+03  0.30113050490E+03 -0.32482455101E+04  0.33858794010E+04  0.00000000000E+00 0. -1.
<mgrwt>
<rscale>  0 0.35141145E+04</rscale>
<asrwt>0</asrwt>
<pdfrwt beam="1">  1        2 0.55538818E+00 0.35141145E+04</pdfrwt>
<pdfrwt beam="2">  1       -2 0.13156746E+00 0.35141145E+04</pdfrwt>
<totfact> 0.23435718E-01</totfact>
</mgrwt>
</event>
<event>
 6    1  0.1001928E-005  0.2101056E+04  0.7818608E-02  0.8560778E-01
          2   -1    0    0  501    0  0.00000000000E+00  0.00000000000E+00  0.24441787422E+04  0.24441787422E+04  0.00000000000E+00 0. -1.
         -2   -1    0    0    0  501 -0.00000000000E+00 -0.00000000000E+00 -0.45152556573E+03  0.45152556573E+03  0.00000000000E+00 0.  1.
         23    2    1    2    0    0  0.34892075382E+03 -0.86913188362E+03  0.16479698459E+04  0.18977351090E+04  0.91967425644E+02 0.  0.
         13    1    3    3    0    0  0.19282458284E+03 -0.36340310702E+03  0.69345659732E+03  0.80630341082E+03  0.00000000000E+00 0. -1.
        -13    1    3    3    0    0  0.15609617097E+03 -0.50572877660E+03  0.95451324863E+03  0.10914316982E+04  0.00000000000E+00 0.  1.
         22    1    1    2    0    0 -0.34892075382E+03  0.86913188362E+03  0.34468333051E+03  0.99796919887E+03  0.00000000000E+00 0.  1.
<mgrwt>
<rscale>  0 0.21010561E+04</rscale>
<asrwt>0</asrwt>
<pdfrwt beam="1">  1        2 0.37602749E+00 0.21010561E+04</pdfrwt>
<pdfrwt beam="2">  1       -2 0.69465473E-01 0.21010561E+04</pdfrwt>
<totfact> 0.65327892E+00</totfact>
</mgrwt>
</event>
<event>
 6    1  0.1001928E-005  0.2542749E+04  0.7818608E-02  0.8387912E-01
         -1   -1    0    0    0  501 -0.00000000000E+00  0.00000000000E+00  0.10784743828E+04  0.10784743828E+04  0.00000000000E+00 0.  1.
          1   -1    0    0  501    0  0.00000000000E+00 -0.00000000000E+00 -0.14987774166E+04  0.14987774166E+04  0.00000000000E+00 0. -1.
         23    2    1    2    0    0 -0.69609980019E+03 -0.92392835027E+03  0.32029852942E+03  0.12036837436E+04  0.89804668183E+02 0.  0.
         11    1    3    3    0    0 -0.41925802984E+03 -0.51204729456E+03  0.14612316686E+03  0.67773276986E+03  0.00000000000E+00 0. -1.
        -11    1    3    3    0    0 -0.27684177035E+03 -0.41188105572E+03  0.17417536257E+03  0.52595097375E+03  0.00000000000E+00 0.  1.
         22    1    1    2    0    0  0.69609980019E+03  0.92392835027E+03 -0.74060156328E+03  0.13735680558E+04  0.00000000000E+00 0. -1.
<mgrwt>
<rscale>  0 0.25427489E+04</rscale>
<asrwt>0</asrwt>
<pdfrwt beam="1">  1        1 0.23058114E+00 0.25427489E+04</pdfrwt>
<pdfrwt beam="2">  1       -1 0.16591913E+00 0.25427489E+04</pdfrwt>
<totfact> 0.15304522E+00</totfact>
</mgrwt>
</event>
<event>
 6    1  0.1001928E-005  0.1500368E+04  0.7818608E-02  0.8884208E-01
         -2   -1    0    0    0  501 -0.00000000000E+00  0.00000000000E+00  0.21125971064E+03  0.21125971064E+03  0.00000000000E+00 0.  1.
          2   -1    0    0  501    0  0.00000000000E+00 -0.00000000000E+00 -0.26639076904E+04  0.26639076904E+04  0.00000000000E+00 0. -1.
         23    2    1    2    0    0 -0.13968572947E+03  0.72974271481E+03 -0.13869511168E+04  0.15760344838E+04  0.90635318803E+02 0.  0.
         13    1    3    3    0    0 -0.11320730095E+03  0.60462694863E+03 -0.12138429824E+04  0.13608102094E+04  0.00000000000E+00 0. -1.
        -13    1    3    3    0    0 -0.26478428517E+02  0.12511576618E+03 -0.17310813436E+03  0.21522427443E+03  0.00000000000E+00 0.  1.
         22    1    1    2    0    0  0.13968572947E+03 -0.72974271481E+03 -0.10656968630E+04  0.12991329172E+04  0.00000000000E+00 0.  1.
<mgrwt>
<rscale>  0 0.15003684E+04</rscale>
<asrwt>0</asrwt>
<pdfrwt beam="1">  1        2 0.40983195E+00 0.15003684E+04</pdfrwt>
<pdfrwt beam="2">  1       -2 0.32501494E-01 0.15003684E+04</pdfrwt>
<totfact> 0.23874377E+01</totfact>
</mgrwt>
</event>
<event>
 6    1  0.1001928E-005  0.1518290E+04  0.7818608E-02  0.8872381E-01
         -1   -1    0    0    0  501 -0.00000000000E+00  0.00000000000E+00  0.40048680784E+03  0.40048680784E+03  0.00000000000E+00 0.  1.
          1   -1    0    0  501    0  0.00000000000E+00 -0.00000000000E+00 -0.14390016300E+04  0.14390016300E+04  0.00000000000E+00 0. -1.
         23    2    1    2    0    0  0.48611062469E+03 -0.42023499151E+03 -0.10046333820E+04  0.11960220910E+04  0.90992430277E+02 0.  0.
         13    1    3    3    0    0  0.25878057033E+03 -0.26358205038E+03 -0.51254939060E+03  0.63178299966E+03  0.00000000000E+00 0. -1.
        -13    1    3    3    0    0  0.22733005437E+03 -0.15665294113E+03 -0.49208399138E+03  0.56423909130E+03  0.00000000000E+00 0.  1.
         22    1    1    2    0    0 -0.48611062469E+03  0.42023499151E+03 -0.33881440159E+02  0.64346634684E+03  0.00000000000E+00 0. -1.
<mgrwt>
<rscale>  0 0.15182901E+04</rscale>
<asrwt>0</asrwt>
<pdfrwt beam="1">  1        1 0.22138486E+00 0.15182901E+04</pdfrwt>
<pdfrwt beam="2">  1       -1 0.61613356E-01 0.15182901E+04</pdfrwt>
<totfact> 0.18616104E+01</totfact>
</mgrwt>
</event>
<event>
 6    1  0.1001928E-005  0.8336153E+03  0.7818608E-02  0.9512596E-01
          1   -1    0    0  501    0  0.00000000000E+00  0.00000000000E+00  0.29029291666E+03  0.29029291666E+03  0.00000000000E+00 0. -1.
         -1   -1    0    0    0  501 -0.00000000000E+00 -0.00000000000E+00 -0.59845966120E+03  0.59845966120E+03  0.00000000000E+00 0.  1.
         23    2    1    2    0    0  0.16089724946E+01 -0.22070728201E+03 -0.52684774625E+03  0.57805067307E+03  0.88655173481E+02 0.  0.
         13    1    3    3    0    0 -0.42387957759E+02 -0.94243134658E+02 -0.25029977108E+03  0.27079232411E+03  0.00000000000E+00 0.  1.
        -13    1    3    3    0    0  0.43996930253E+02 -0.12646414735E+03 -0.27654797518E+03  0.30725834897E+03  0.00000000000E+00 0. -1.
         22    1    1    2    0    0 -0.16089724946E+01  0.22070728201E+03  0.21868100171E+03  0.31070190478E+03  0.00000000000E+00 0. -1.
<mgrwt>
<rscale>  0 0.83361526E+03</rscale>
<asrwt>0</asrwt>
<pdfrwt beam="1">  1        1 0.44660449E-01 0.83361526E+03</pdfrwt>
<pdfrwt beam="2">  1       -1 0.92070717E-01 0.83361526E+03</pdfrwt>
<totfact> 0.10631321E+02</totfact>
</mgrwt>
</event>
<event>
 6    1  0.1001928E-005  0.2744012E+04  0.7818608E-02  0.8320864E-01
         -1   -1    0    0    0  501 -0.00000000000E+00  0.00000000000E+00  0.81193008824E+03  0.81193008824E+03  0.00000000000E+00 0.  1.
          1   -1    0    0  501    0  0.00000000000E+00 -0.00000000000E+00 -0.23184270886E+04  0.23184270886E+04  0.00000000000E+00 0. -1.
         23    2    1    2    0    0 -0.13230808029E+04 -0.12319755297E+03 -0.11369240712E+04  0.17511165894E+04  0.89958423148E+02 0.  0.
         13    1    3    3    0    0 -0.21652676119E+03  0.12840612777E+02 -0.17939473051E+03  0.28148035275E+03  0.00000000000E+00 0. -1.
        -13    1    3    3    0    0 -0.11065540417E+04 -0.13603816575E+03 -0.95752934073E+03  0.14696362367E+04  0.00000000000E+00 0.  1.
         22    1    1    2    0    0  0.13230808029E+04  0.12319755297E+03 -0.36957292908E+03  0.13792405874E+04  0.00000000000E+00 0.  1.
<mgrwt>
<rscale>  0 0.27440122E+04</rscale>
<asrwt>0</asrwt>
<pdfrwt beam="1">  1        1 0.35668109E+00 0.27440122E+04</pdfrwt>
<pdfrwt beam="2">  1       -1 0.12491232E+00 0.27440122E+04</pdfrwt>
<totfact> 0.88129182E-01</totfact>
</mgrwt>
</event>
<event>
 6    1  0.1001928E-005  0.1454919E+04  0.7818608E-02  0.8914997E-01
         -2   -1    0    0    0  501 -0.00000000000E+00  0.00000000000E+00  0.10601848735E+04  0.10601848735E+04  0.00000000000E+00 0.  1.
          2   -1    0    0  501    0  0.00000000000E+00 -0.00000000000E+00 -0.49915598649E+03  0.49915598649E+03  0.00000000000E+00 0. -1.
         23    2    1    2    0    0 -0.21596583276E+03 -0.33018859129E+03 -0.36990889082E+03  0.54824695093E+03  0.89868709542E+02 0.  0.
         13    1    3    3    0    0 -0.12944510359E+03 -0.23022642082E+03 -0.29630109664E+03  0.39693145448E+03  0.00000000000E+00 0.  1.
        -13    1    3    3    0    0 -0.86520729161E+02 -0.99962170475E+02 -0.73607794187E+02  0.15131549645E+03  0.00000000000E+00 0. -1.
         22    1    1    2    0    0  0.21596583276E+03  0.33018859129E+03  0.93093777781E+03  0.10110939090E+04  0.00000000000E+00 0.  1.
<mgrwt>
<rscale>  0 0.14549194E+04</rscale>
<asrwt>0</asrwt>
<pdfrwt beam="1">  1        2 0.76793229E-01 0.14549194E+04</pdfrwt>
<pdfrwt beam="2">  1       -2 0.16310537E+00 0.14549194E+04</pdfrwt>
<totfact> 0.14280416E+01</totfact>
</mgrwt>
</event>
<event>
 6    1  0.1001928E-005  0.3815037E+04  0.7818608E-02  0.8042936E-01
         -2   -1    0    0    0  501 -0.00000000000E+00  0.00000000000E+00  0.12681187662E+04  0.12681187662E+04  0.00000000000E+00 0. -1.
          2   -1    0    0  501    0  0.00000000000E+00 -0.00000000000E+00 -0.28693111603E+04  0.28693111603E+04  0.00000000000E+00 0.  1.
         23    2    1    2    0    0 -0.17117527106E+02 -0.16324388627E+04  0.26686787873E+03  0.16565432235E+04  0.88132493962E+02 0.  0.
         13    1    3    3    0    0  0.21568481265E+02 -0.73151659375E+03  0.86495346495E+02  0.73692819954E+03  0.00000000000E+00 0.  1.
        -13    1    3    3    0    0 -0.38686008371E+02 -0.90092226898E+03  0.18037253223E+03  0.91961502401E+03  0.00000000000E+00 0. -1.
         22    1    1    2    0    0  0.17117527106E+02  0.16324388627E+04 -0.18680602728E+04  0.24808867030E+04  0.00000000000E+00 0.  1.
<mgrwt>
<rscale>  0 0.38150373E+04</rscale>
<asrwt>0</asrwt>
<pdfrwt beam="1">  1        2 0.44143248E+00 0.38150373E+04</pdfrwt>
<pdfrwt beam="2">  1       -2 0.19509520E+00 0.38150373E+04</pdfrwt>
<totfact> 0.24069892E-01</totfact>
</mgrwt>
</event>
<event>
 6    1  0.1001928E-005  0.1044683E+04  0.7818608E-02  0.9260851E-01
         -1   -1    0    0    0  501 -0.00000000000E+00  0.00000000000E+00  0.47447054037E+03  0.47447054037E+03  0.00000000000E+00 0.  1.
          1   -1    0    0  501    0  0.00000000000E+00 -0.00000000000E+00 -0.57504207862E+03  0.57504207862E+03  0.00000000000E+00 0. -1.
         23    2    1    2    0    0 -0.45951579699E+03 -0.12101024693E+03 -0.25851834527E+03  0.54876773245E+03  0.92282402390E+02 0.  0.
         13    1    3    3    0    0 -0.77708771541E+02 -0.43714730390E+02 -0.81822731710E+02  0.12101483484E+03  0.00000000000E+00 0.  1.
        -13    1    3    3    0    0 -0.38180702545E+03 -0.77295516541E+02 -0.17669561356E+03  0.42775289761E+03  0.00000000000E+00 0. -1.
         22    1    1    2    0    0  0.45951579699E+03  0.12101024693E+03  0.15794680702E+03  0.50074488654E+03  0.00000000000E+00 0.  1.
<mgrwt>
<rscale>  0 0.10446828E+04</rscale>
<asrwt>0</asrwt>
<pdfrwt beam="1">  1        1 0.88468012E-01 0.10446828E+04</pdfrwt>
<pdfrwt beam="2">  1       -1 0.72995468E-01 0.10446828E+04</pdfrwt>
<totfact> 0.68914196E+01</totfact>
</mgrwt>
</event>
<event>
 6    1  0.1001928E-005  0.1402159E+04  0.7818608E-02  0.8952258E-01
          1   -1    0    0  501    0  0.00000000000E+00  0.00000000000E+00  0.10411748265E+04  0.10411748265E+04  0.00000000000E+00 0. -1.
         -1   -1    0    0    0  501 -0.00000000000E+00 -0.00000000000E+00 -0.47207458660E+03  0.47207458660E+03  0.00000000000E+00 0.  1.
         23    2    1    2    0    0  0.59699452070E+03 -0.81977971091E+02 -0.94730515872E+02  0.61670375461E+03  0.90701735511E+02 0.  0.
         13    1    3    3    0    0  0.28268435387E+03  0.86932576343E+00 -0.21436829806E+02  0.28349733212E+03  0.00000000000E+00 0. -1.
        -13    1    3    3    0    0  0.31431016683E+03 -0.82847296855E+02 -0.73293686066E+02  0.33320642248E+03  0.00000000000E+00 0.  1.
         22    1    1    2    0    0 -0.59699452070E+03  0.81977971091E+02  0.66383075580E+03  0.89654565853E+03  0.00000000000E+00 0. -1.
<mgrwt>
<rscale>  0 0.14021586E+04</rscale>
<asrwt>0</asrwt>
<pdfrwt beam="1">  1        1 0.16018074E+00 0.14021586E+04</pdfrwt>
<pdfrwt beam="2">  1       -1 0.72626860E-01 0.14021586E+04</pdfrwt>
<totfact> 0.26206006E+01</totfact>
</mgrwt>
</event>
<event>
 6    1  0.1001928E-005  0.1948832E+04  0.7818608E-02  0.8630924E-01
         -2   -1    0    0    0  501 -0.00000000000E+00  0.00000000000E+00  0.94268908734E+03  0.94268908734E+03  0.00000000000E+00 0. -1.
          2   -1    0    0  501    0  0.00000000000E+00 -0.00000000000E+00 -0.10072112204E+04  0.10072112204E+04  0.00000000000E+00 0.  1.
         23    2    1    2    0    0 -0.38562194073E+03  0.70531766792E+03 -0.57911158668E+03  0.99544779473E+03  0.96792501462E+02 0.  0.
         13    1    3    3    0    0 -0.95187310880E+02  0.24631676656E+03 -0.22612383979E+03  0.34765581336E+03  0.00000000000E+00 0. -1.
        -13    1    3    3    0    0 -0.29043462985E+03  0.45900090136E+03 -0.35298774690E+03  0.64779198137E+03  0.00000000000E+00 0.  1.
         22    1    1    2    0    0  0.38562194073E+03 -0.70531766792E+03  0.51458945361E+03  0.95445251303E+03  0.00000000000E+00 0. -1.
<mgrwt>
<rscale>  0 0.19488325E+04</rscale>
<asrwt>0</asrwt>
<pdfrwt beam="1">  1        2 0.15495557E+00 0.19488325E+04</pdfrwt>
<pdfrwt beam="2">  1       -2 0.14502909E+00 0.19488325E+04</pdfrwt>
<totfact> 0.76135847E+00</totfact>
</mgrwt>
</event>
<event>
 6    1  0.1001928E-005  0.4555120E+04  0.7818608E-02  0.7901057E-01
         -1   -1    0    0    0  501 -0.00000000000E+00  0.00000000000E+00  0.13528001371E+04  0.13528001371E+04  0.00000000000E+00 0.  1.
          1   -1    0    0  501    0  0.00000000000E+00 -0.00000000000E+00 -0.38344762913E+04  0.38344762913E+04  0.00000000000E+00 0. -1.
         23    2    1    2    0    0 -0.29575095404E+03 -0.12175030458E+04 -0.34060124107E+04  0.36302986481E+04  0.91462776177E+02 0.  0.
         13    1    3    3    0    0 -0.15823672334E+03 -0.65479034112E+03 -0.16988328283E+04  0.18275180519E+04  0.00000000000E+00 0. -1.
        -13    1    3    3    0    0 -0.13751423070E+03 -0.56271270468E+03 -0.17071795824E+04  0.18027805963E+04  0.00000000000E+00 0.  1.
         22    1    1    2    0    0  0.29575095404E+03  0.12175030458E+04  0.92433625648E+03  0.15569777803E+04  0.00000000000E+00 0.  1.
<mgrwt>
<rscale>  0 0.45551202E+04</rscale>
<asrwt>0</asrwt>
<pdfrwt beam="1">  1        1 0.58991942E+00 0.45551202E+04</pdfrwt>
<pdfrwt beam="2">  1       -1 0.20812310E+00 0.45551202E+04</pdfrwt>
<totfact> 0.13168072E-02</totfact>
</mgrwt>
</event>
<event>
 6    1  0.1001928E-005  0.1780485E+04  0.7818608E-02  0.8716747E-01
          1   -1    0    0  501    0  0.00000000000E+00  0.00000000000E+00  0.12616705053E+04  0.12616705053E+04  0.00000000000E+00 0. -1.
         -1   -1    0    0    0  501 -0.00000000000E+00 -0.00000000000E+00 -0.62816039436E+03  0.62816039436E+03  0.00000000000E+00 0.  1.
         23    2    1    2    0    0 -0.46949897200E+03  0.63068426751E+03  0.75552455521E+03  0.10941679971E+04  0.90522496247E+02 0.  0.
         11    1    3    3    0    0 -0.42341284793E+03  0.55090912803E+03  0.62607253620E+03  0.93527863641E+03  0.00000000000E+00 0. -1.
        -11    1    3    3    0    0 -0.46086124076E+02  0.79775139479E+02  0.12945201901E+03  0.15888936068E+03  0.00000000000E+00 0.  1.
         22    1    1    2    0    0  0.46949897200E+03 -0.63068426751E+03 -0.12201444423E+03  0.79566290261E+03  0.00000000000E+00 0.  1.
<mgrwt>
<rscale>  0 0.17804847E+04</rscale>
<asrwt>0</asrwt>
<pdfrwt beam="1">  1        1 0.19410315E+00 0.17804847E+04</pdfrwt>
<pdfrwt beam="2">  1       -1 0.96640061E-01 0.17804847E+04</pdfrwt>
<totfact> 0.93853398E+00</totfact>
</mgrwt>
</event>
<event>
 6    1  0.1195299E-005  0.3370736E+04  0.7818608E-02  0.8145126E-01
          1   -1    0    0  501    0  0.00000000000E+00  0.00000000000E+00  0.17780743088E+04  0.17780743088E+04  0.00000000000E+00 0. -1.
         -1   -1    0    0    0  501 -0.00000000000E+00 -0.00000000000E+00 -0.15974952160E+04  0.15974952160E+04  0.00000000000E+00 0.  1.
         23    2    1    2    0    0 -0.32437975611E+03  0.11321105544E+04  0.12959980211E+04  0.17535165297E+04  0.91174643755E+02 0.  0.
         13    1    3    3    0    0 -0.83845542847E+02  0.44671886936E+03  0.47976651660E+03  0.66088102844E+03  0.00000000000E+00 0. -1.
        -13    1    3    3    0    0 -0.24053421326E+03  0.68539168502E+03  0.81623150449E+03  0.10926355012E+04  0.00000000000E+00 0.  1.
         22    1    1    2    0    0  0.32437975611E+03 -0.11321105544E+04 -0.11154189283E+04  0.16220529952E+04  0.00000000000E+00 0.  1.
<mgrwt>
<rscale>  0 0.33707359E+04</rscale>
<asrwt>0</asrwt>
<pdfrwt beam="1">  1        1 0.27354989E+00 0.33707359E+04</pdfrwt>
<pdfrwt beam="2">  1       -1 0.24576849E+00 0.33707359E+04</pdfrwt>
<totfact> 0.25840706E-01</totfact>
</mgrwt>
</event>
<event>
 6    1  0.1001928E-005  0.1299867E+04  0.7818608E-02  0.9029670E-01
         -2   -1    0    0    0  501 -0.00000000000E+00  0.00000000000E+00  0.32143327651E+03  0.32143327651E+03  0.00000000000E+00 0.  1.
          2   -1    0    0  501    0  0.00000000000E+00 -0.00000000000E+00 -0.13141568353E+04  0.13141568353E+04  0.00000000000E+00 0. -1.
         23    2    1    2    0    0  0.53746119616E+03 -0.35864812657E+03 -0.47129243120E+03  0.80529893584E+03  0.94322872533E+02 0.  0.
         11    1    3    3    0    0  0.25913661579E+03 -0.13939301582E+03 -0.16752368852E+03  0.33859472046E+03  0.00000000000E+00 0.  1.
        -11    1    3    3    0    0  0.27832458037E+03 -0.21925511074E+03 -0.30376874268E+03  0.46670421538E+03  0.00000000000E+00 0. -1.
         22    1    1    2    0    0 -0.53746119616E+03  0.35864812657E+03 -0.52143112756E+03  0.83029117595E+03  0.00000000000E+00 0.  1.
<mgrwt>
<rscale>  0 0.12998673E+04</rscale>
<asrwt>0</asrwt>
<pdfrwt beam="1">  1        2 0.20217798E+00 0.12998673E+04</pdfrwt>
<pdfrwt beam="2">  1       -2 0.49451273E-01 0.12998673E+04</pdfrwt>
<totfact> 0.61517871E+01</totfact>
</mgrwt>
</event>
<event>
 6    1  0.1001928E-005  0.4115779E+04  0.7818608E-02  0.7981589E-01
         -2   -1    0    0    0  501 -0.00000000000E+00  0.00000000000E+00  0.27817701445E+04  0.27817701445E+04  0.00000000000E+00 0.  1.
          2   -1    0    0  501    0  0.00000000000E+00 -0.00000000000E+00 -0.15223791823E+04  0.15223791823E+04  0.00000000000E+00 0. -1.
         23    2    1    2    0    0 -0.86045088685E+03 -0.63309660040E+03 -0.12078672600E+04  0.16155530074E+04  0.99404062679E+02 0.  0.
         13    1    3    3    0    0 -0.10954797562E+03 -0.48903073806E+02 -0.16378381289E+03  0.20302070573E+03  0.00000000000E+00 0.  1.
        -13    1    3    3    0    0 -0.75090291122E+03 -0.58419352660E+03 -0.10440834471E+04  0.14125323016E+04  0.00000000000E+00 0. -1.
         22    1    1    2    0    0  0.86045088685E+03  0.63309660040E+03  0.24672582222E+04  0.26885963195E+04  0.00000000000E+00 0.  1.
<mgrwt>
<rscale>  0 0.41157789E+04</rscale>
<asrwt>0</asrwt>
<pdfrwt beam="1">  1        2 0.23421218E+00 0.41157789E+04</pdfrwt>
<pdfrwt beam="2">  1       -2 0.42796464E+00 0.41157789E+04</pdfrwt>
<totfact> 0.46796330E-02</totfact>
</mgrwt>
</event>
<event>
 6    1  0.1001928E-005  0.2355745E+04  0.7818608E-02  0.8456260E-01
          2   -1    0    0  501    0  0.00000000000E+00  0.00000000000E+00  0.70889631566E+03  0.70889631566E+03  0.00000000000E+00 0. -1.
         -2   -1    0    0    0  501 -0.00000000000E+00 -0.00000000000E+00 -0.19571045503E+04  0.19571045503E+04  0.00000000000E+00 0.  1.
         23    2    1    2    0    0  0.17422156652E+03 -0.24394936801E+03 -0.19121608178E+04  0.19375110025E+04  0.87894500922E+02 0.  0.
         11    1    3    3    0    0  0.10904215781E+03 -0.92421242907E+02 -0.10531472745E+04  0.10628033967E+04  0.00000000000E+00 0.  1.
        -11    1    3    3    0    0  0.65179408704E+02 -0.15152812511E+03 -0.85901354337E+03  0.87470760584E+03  0.00000000000E+00 0. -1.
         22    1    1    2    0    0 -0.17422156652E+03  0.24394936801E+03  0.66395258319E+03  0.72848986342E+03  0.00000000000E+00 0. -1.
<mgrwt>
<rscale>  0 0.23557455E+04</rscale>
<asrwt>0</asrwt>
<pdfrwt beam="1">  1        2 0.10906097E+00 0.23557455E+04</pdfrwt>
<pdfrwt beam="2">  1       -2 0.30109300E+00 0.23557455E+04</pdfrwt>
<totfact> 0.11392761E+00</totfact>
</mgrwt>
</event>
<event>
 6    1  0.1001928E-005  0.5919301E+04  0.7818608E-02  0.7700489E-01
          2   -1    0    0  501    0  0.00000000000E+00  0.00000000000E+00  0.33943289929E+04  0.33943289929E+04  0.00000000000E+00 0. -1.
         -2   -1    0    0    0  501 -0.00000000000E+00 -0.00000000000E+00 -0.25806369971E+04  0.25806369971E+04  0.00000000000E+00 0.  1.
         23    2    1    2    0    0 -0.20130047973E+03  0.16970528234E+04  0.28452006399E+04  0.33202461291E+04  0.91419409393E+02 0.  0.
         11    1    3    3    0    0 -0.17107838178E+03  0.12981271503E+04  0.21100598361E+04  0.24832950737E+04  0.00000000000E+00 0.  1.
        -11    1    3    3    0    0 -0.30222097946E+02  0.39892567305E+03  0.73514080374E+03  0.83695105541E+03  0.00000000000E+00 0. -1.
         22    1    1    2    0    0  0.20130047973E+03 -0.16970528234E+04 -0.20315086441E+04  0.26547198608E+04  0.00000000000E+00 0.  1.
<mgrwt>
<rscale>  0 0.59193010E+04</rscale>
<asrwt>0</asrwt>
<pdfrwt beam="1">  1        2 0.52220446E+00 0.59193010E+04</pdfrwt>
<pdfrwt beam="2">  1       -2 0.39702108E+00 0.59193010E+04</pdfrwt>
<totfact> 0.50550988E-03</totfact>
</mgrwt>
</event>
<event>
 6    1  0.1001928E-005  0.1820136E+04  0.7818608E-02  0.8695664E-01
          1   -1    0    0  501    0  0.00000000000E+00  0.00000000000E+00  0.20682597146E+04  0.20682597146E+04  0.00000000000E+00 0. -1.
         -1   -1    0    0    0  501 -0.00000000000E+00 -0.00000000000E+00 -0.40044457751E+03  0.40044457751E+03  0.00000000000E+00 0.  1.
         23    2    1    2    0    0  0.72131474067E+03  0.34885116997E+03  0.25697535177E+03  0.84621823863E+03  0.89760136322E+02 0.  0.
         13    1    3    3    0    0  0.56834283072E+03  0.23890838682E+03  0.21740919435E+03  0.65372589693E+03  0.00000000000E+00 0.  1.
        -13    1    3    3    0    0  0.15297190994E+03  0.10994278315E+03  0.39566157420E+02  0.19249234170E+03  0.00000000000E+00 0. -1.
         22    1    1    2    0    0 -0.72131474067E+03 -0.34885116997E+03  0.14108397854E+04  0.16224860535E+04  0.00000000000E+00 0. -1.
<mgrwt>
<rscale>  0 0.18201356E+04</rscale>
<asrwt>0</asrwt>
<pdfrwt beam="1">  1        1 0.31819380E+00 0.18201356E+04</pdfrwt>
<pdfrwt beam="2">  1       -1 0.61606859E-01 0.18201356E+04</pdfrwt>
<totfact> 0.67431075E+00</totfact>
</mgrwt>
</event>
<event>
 6    1  0.1001928E-005  0.8195657E+03  0.7818608E-02  0.9532121E-01
          1   -1    0    0  501    0  0.00000000000E+00  0.00000000000E+00  0.17470035723E+03  0.17470035723E+03  0.00000000000E+00 0. -1.
         -1   -1    0    0    0  501 -0.00000000000E+00 -0.00000000000E+00 -0.96119998499E+03  0.96119998499E+03  0.00000000000E+00 0.  1.
         23    2    1    2    0    0 -0.16153418162E+03  0.36995791584E+03 -0.35603363985E+03  0.54576212275E+03  0.90189747767E+02 0.  0.
         11    1    3    3    0    0 -0.61371054032E+02  0.24889337585E+03 -0.21329499646E+03  0.33348024579E+03  0.00000000000E+00 0.  1.
        -11    1    3    3    0    0 -0.10016312759E+03  0.12106453999E+03 -0.14273864339E+03  0.21228187696E+03  0.00000000000E+00 0. -1.
         22    1    1    2    0    0  0.16153418162E+03 -0.36995791584E+03 -0.43046598791E+03  0.59013821947E+03  0.00000000000E+00 0.  1.
<mgrwt>
<rscale>  0 0.81956569E+03</rscale>
<asrwt>0</asrwt>
<pdfrwt beam="1">  1        1 0.26876978E-01 0.81956569E+03</pdfrwt>
<pdfrwt beam="2">  1       -1 0.14787692E+00 0.81956569E+03</pdfrwt>
<totfact> 0.65237622E+01</totfact>
</mgrwt>
</event>
<event>
 6    1  0.1001928E-005  0.2401453E+04  0.7818608E-02  0.8438960E-01
         -1   -1    0    0    0  501 -0.00000000000E+00  0.00000000000E+00  0.79308302537E+03  0.79308302537E+03  0.00000000000E+00 0.  1.
          1   -1    0    0  501    0  0.00000000000E+00 -0.00000000000E+00 -0.18178977442E+04  0.18178977442E+04  0.00000000000E+00 0. -1.
         23    2    1    2    0    0  0.20367205815E+03 -0.97836861182E+03  0.20694054560E+03  0.10248192143E+04  0.93501790359E+02 0.  0.
         11    1    3    3    0    0  0.18315633170E+03 -0.76851847050E+03  0.13168880170E+03  0.80094245850E+03  0.00000000000E+00 0. -1.
        -11    1    3    3    0    0  0.20515726451E+02 -0.20985014132E+03  0.75251743893E+02  0.22387675583E+03  0.00000000000E+00 0.  1.
         22    1    1    2    0    0 -0.20367205815E+03  0.97836861182E+03 -0.12317552644E+04  0.15861615552E+04  0.00000000000E+00 0. -1.
<mgrwt>
<rscale>  0 0.24014528E+04</rscale>
<asrwt>0</asrwt>
<pdfrwt beam="1">  1        1 0.27967657E+00 0.24014528E+04</pdfrwt>
<pdfrwt beam="2">  1       -1 0.12201277E+00 0.24014528E+04</pdfrwt>
<totfact> 0.21090394E+00</totfact>
</mgrwt>
</event>
<event>
 6    1  0.1001928E-005  0.3079325E+04  0.7818608E-02  0.8221435E-01
          1   -1    0    0  501    0  0.00000000000E+00  0.00000000000E+00  0.28190946653E+04  0.28190946653E+04  0.00000000000E+00 0. -1.
         -1   -1    0    0    0  501 -0.00000000000E+00 -0.00000000000E+00 -0.84089425492E+03  0.84089425492E+03  0.00000000000E+00 0.  1.
         23    2    1    2    0    0  0.60991302377E+03  0.83556889051E+03 -0.36338278622E+03  0.11000707313E+04  0.89102733867E+02 0.  0.
         13    1    3    3    0    0  0.33034942994E+03  0.41198254993E+03 -0.14547519857E+03  0.54774391891E+03  0.00000000000E+00 0.  1.
        -13    1    3    3    0    0  0.27956359383E+03  0.42358634059E+03 -0.21790758765E+03  0.55232681239E+03  0.00000000000E+00 0. -1.
         22    1    1    2    0    0 -0.60991302377E+03 -0.83556889051E+03  0.23415831966E+04  0.25599181889E+04  0.00000000000E+00 0. -1.
<mgrwt>
<rscale>  0 0.30793249E+04</rscale>
<asrwt>0</asrwt>
<pdfrwt beam="1">  1        1 0.43370687E+00 0.30793249E+04</pdfrwt>
<pdfrwt beam="2">  1       -1 0.12936835E+00 0.30793249E+04</pdfrwt>
<totfact> 0.35028498E-01</totfact>
</mgrwt>
</event>
<event>
 6    1  0.1001928E-005  0.2465252E+04  0.7818608E-02  0.8415470E-01
         -1   -1    0    0    0  501 -0.00000000000E+00  0.00000000000E+00  0.46595650985E+03  0.46595650985E+03  0.00000000000E+00 0.  1.
          1   -1    0    0  501    0  0.00000000000E+00 -0.00000000000E+00 -0.32607489708E+04  0.32607489708E+04  0.00000000000E+00 0. -1.
         23    2    1    2    0    0 -0.70041786022E+03  0.94440976608E+02 -0.29227939836E+04  0.30084515793E+04  0.92476793741E+02 0.  0.
         13    1    3    3    0    0 -0.49441033171E+03  0.31082613356E+02 -0.19337005752E+04  0.19961476948E+04  0.00000000000E+00 0.  1.
        -13    1    3    3    0    0 -0.20600752852E+03  0.63358363251E+02 -0.98909340847E+03  0.10123038846E+04  0.00000000000E+00 0. -1.
         22    1    1    2    0    0  0.70041786022E+03 -0.94440976608E+02  0.12800152268E+03  0.71825390134E+03  0.00000000000E+00 0.  1.
<mgrwt>
<rscale>  0 0.24652523E+04</rscale>
<asrwt>0</asrwt>
<pdfrwt beam="1">  1        1 0.50165367E+00 0.24652523E+04</pdfrwt>
<pdfrwt beam="2">  1       -1 0.71685620E-01 0.24652523E+04</pdfrwt>
<totfact> 0.66990979E-01</totfact>
</mgrwt>
</event>
<event>
 6    1  0.1001928E-005  0.4031280E+03  0.7818608E-02  0.1042702E+00
         -3   -1    0    0    0  501 -0.00000000000E+00  0.00000000000E+00  0.64269161701E+02  0.64269161701E+02  0.00000000000E+00 0.  1.
          3   -1    0    0  501    0  0.00000000000E+00 -0.00000000000E+00 -0.63215458500E+03  0.63215458500E+03  0.00000000000E+00 0. -1.
         23    2    1    2    0    0  0.82973866641E+01 -0.19433853307E+02 -0.62682892856E+03  0.63380699102E+03  0.91379838644E+02 0.  0.
         13    1    3    3    0    0 -0.40578764033E+02 -0.19243309982E+02 -0.30321042308E+03  0.30651835465E+03  0.00000000000E+00 0. -1.
        -13    1    3    3    0    0  0.48876150697E+02 -0.19054332437E+00 -0.32361850548E+03  0.32728863637E+03  0.00000000000E+00 0.  1.
         22    1    1    2    0    0 -0.82973866641E+01  0.19433853307E+02  0.58943505258E+02  0.62616755680E+02  0.00000000000E+00 0.  1.
<mgrwt>
<rscale>  0 0.40312800E+03</rscale>
<asrwt>0</asrwt>
<pdfrwt beam="1">  1        3 0.97254552E-01 0.40312800E+03</pdfrwt>
<pdfrwt beam="2">  1       -3 0.98875633E-02 0.40312800E+03</pdfrwt>
<totfact> 0.18857437E+02</totfact>
</mgrwt>
</event>
<event>
 6    1  0.1001928E-005  0.4025017E+04  0.7818608E-02  0.7999519E-01
         -1   -1    0    0    0  501 -0.00000000000E+00  0.00000000000E+00  0.21776518741E+04  0.21776518741E+04  0.00000000000E+00 0.  1.
          1   -1    0    0  501    0  0.00000000000E+00 -0.00000000000E+00 -0.18598885934E+04  0.18598885934E+04  0.00000000000E+00 0. -1.
         23    2    1    2    0    0 -0.75546209377E+03  0.15869890867E+04  0.11402137532E+04  0.20970039138E+04  0.89892575635E+02 0.  0.
         13    1    3    3    0    0 -0.68771104101E+03  0.14761850589E+04  0.10322162925E+04  0.19280921344E+04  0.00000000000E+00 0.  1.
        -13    1    3    3    0    0 -0.67751052752E+02  0.11080402779E+03  0.10799746064E+03  0.16891177942E+03  0.00000000000E+00 0. -1.
         22    1    1    2    0    0  0.75546209377E+03 -0.15869890867E+04 -0.82245047252E+03  0.19405365537E+04  0.00000000000E+00 0. -1.
<mgrwt>
<rscale>  0 0.40250167E+04</rscale>
<asrwt>0</asrwt>
<pdfrwt beam="1">  1        1 0.28613671E+00 0.40250167E+04</pdfrwt>
<pdfrwt beam="2">  1       -1 0.33502337E+00 0.40250167E+04</pdfrwt>
<totfact> 0.56519680E-02</totfact>
</mgrwt>
</event>
<event>
 6    1  0.1001928E-005  0.1939980E+04  0.7818608E-02  0.8635208E-01
          1   -1    0    0  501    0  0.00000000000E+00  0.00000000000E+00  0.14747665469E+04  0.14747665469E+04  0.00000000000E+00 0. -1.
         -1   -1    0    0    0  501 -0.00000000000E+00 -0.00000000000E+00 -0.63798626205E+03  0.63798626205E+03  0.00000000000E+00 0.  1.
         23    2    1    2    0    0  0.45679969685E+03  0.29583726038E+03  0.12908993837E+04  0.14039440875E+04  0.91935489781E+02 0.  0.
         13    1    3    3    0    0  0.24562607358E+03  0.19097673374E+03  0.63909618372E+03  0.71080814071E+03  0.00000000000E+00 0. -1.
        -13    1    3    3    0    0  0.21117362327E+03  0.10486052664E+03  0.65180319999E+03  0.69313594679E+03  0.00000000000E+00 0.  1.
         22    1    1    2    0    0 -0.45679969685E+03 -0.29583726038E+03 -0.45411909885E+03  0.70880872146E+03  0.00000000000E+00 0.  1.
<mgrwt>
<rscale>  0 0.19399802E+04</rscale>
<asrwt>0</asrwt>
<pdfrwt beam="1">  1        1 0.22688716E+00 0.19399802E+04</pdfrwt>
<pdfrwt beam="2">  1       -1 0.98151733E-01 0.19399802E+04</pdfrwt>
<totfact> 0.63163469E+00</totfact>
</mgrwt>
</event>
<event>
 6    1  0.1001928E-005  0.3913147E+04  0.7818608E-02  0.8022300E-01
         -1   -1    0    0    0  501 -0.00000000000E+00  0.00000000000E+00  0.18727077404E+04  0.18727077404E+04  0.00000000000E+00 0.  1.
          1   -1    0    0  501    0  0.00000000000E+00 -0.00000000000E+00 -0.20441952771E+04  0.20441952771E+04  0.00000000000E+00 0. -1.
         23    2    1    2    0    0  0.10647947887E+04  0.85806280514E+03  0.13133541937E+04  0.18982859948E+04  0.92362115925E+02 0.  0.
         13    1    3    3    0    0  0.67899669755E+03  0.52870670182E+03  0.76709889330E+03  0.11528260944E+04  0.00000000000E+00 0. -1.
        -13    1    3    3    0    0  0.38579809111E+03  0.32935610331E+03  0.54625530043E+03  0.74545990042E+03  0.00000000000E+00 0.  1.
         22    1    1    2    0    0 -0.10647947887E+04 -0.85806280514E+03 -0.14848417304E+04  0.20186170226E+04  0.00000000000E+00 0.  1.
<mgrwt>
<rscale>  0 0.39131472E+04</rscale>
<asrwt>0</asrwt>
<pdfrwt beam="1">  1        1 0.31449158E+00 0.39131472E+04</pdfrwt>
<pdfrwt beam="2">  1       -1 0.28810888E+00 0.39131472E+04</pdfrwt>
<totfact> 0.86451059E-02</totfact>
</mgrwt>
</event>
<event>
 6    1  0.1001928E-005  0.2467517E+04  0.7818608E-02  0.8414650E-01
         -2   -1    0    0    0  501 -0.00000000000E+00  0.00000000000E+00  0.12734788296E+04  0.12734788296E+04  0.00000000000E+00 0.  1.
          2   -1    0    0  501    0  0.00000000000E+00 -0.00000000000E+00 -0.11952771759E+04  0.11952771759E+04  0.00000000000E+00 0. -1.
         23    2    1    2    0    0 -0.11917377107E+04 -0.27932779450E+03  0.17984145433E+03  0.12405078885E+04  0.90851993861E+02 0.  0.
         13    1    3    3    0    0 -0.10881248119E+04 -0.25862692201E+03  0.18961074750E+03  0.11343966355E+04  0.00000000000E+00 0.  1.
        -13    1    3    3    0    0 -0.10361289880E+03 -0.20700872495E+02 -0.97692931674E+01  0.10611125298E+03  0.00000000000E+00 0. -1.
         22    1    1    2    0    0  0.11917377107E+04  0.27932779450E+03 -0.10163980062E+03  0.12282481170E+04  0.00000000000E+00 0. -1.
<mgrwt>
<rscale>  0 0.24675171E+04</rscale>
<asrwt>0</asrwt>
<pdfrwt beam="1">  1        2 0.18388880E+00 0.24675171E+04</pdfrwt>
<pdfrwt beam="2">  1       -2 0.19591982E+00 0.24675171E+04</pdfrwt>
<totfact> 0.24125536E+00</totfact>
</mgrwt>
</event>
<event>
 6    1  0.1001928E-005  0.3755154E+04  0.7818608E-02  0.8055848E-01
          1   -1    0    0  501    0  0.00000000000E+00  0.00000000000E+00  0.45596587151E+04  0.45596587151E+04  0.00000000000E+00 0. -1.
         -1   -1    0    0    0  501 -0.00000000000E+00 -0.00000000000E+00 -0.77314900290E+03  0.77314900290E+03  0.00000000000E+00 0.  1.
         23    2    1    2    0    0 -0.60660350269E+03 -0.15068182718E+04  0.56035215825E+03  0.17208052711E+04  0.93311981951E+02 0.  0.
         13    1    3    3    0    0 -0.32601011813E+03 -0.68612673377E+03  0.26775533326E+03  0.80544733559E+03  0.00000000000E+00 0. -1.
        -13    1    3    3    0    0 -0.28059338456E+03 -0.82069153803E+03  0.29259682500E+03  0.91535793549E+03  0.00000000000E+00 0.  1.
         22    1    1    2    0    0  0.60660350269E+03  0.15068182718E+04  0.32261575539E+04  0.36120024469E+04  0.00000000000E+00 0. -1.
<mgrwt>
<rscale>  0 0.37551541E+04</rscale>
<asrwt>0</asrwt>
<pdfrwt beam="1">  1        1 0.70148594E+00 0.37551541E+04</pdfrwt>
<pdfrwt beam="2">  1       -1 0.11894600E+00 0.37551541E+04</pdfrwt>
<totfact> 0.14035068E-02</totfact>
</mgrwt>
</event>
<event>
 6    1  0.1001928E-005  0.3896215E+04  0.7818608E-02  0.8025817E-01
         -1   -1    0    0    0  501 -0.00000000000E+00  0.00000000000E+00  0.10365247118E+04  0.10365247118E+04  0.00000000000E+00 0.  1.
          1   -1    0    0  501    0  0.00000000000E+00 -0.00000000000E+00 -0.36613924050E+04  0.36613924050E+04  0.00000000000E+00 0. -1.
         23    2    1    2    0    0 -0.18403910831E+04 -0.54916368503E+03 -0.92736933244E+03  0.21346924337E+04  0.90982503506E+02 0.  0.
         13    1    3    3    0    0 -0.12754848073E+04 -0.37578624481E+03 -0.59530330679E+03  0.14568674691E+04  0.00000000000E+00 0.  1.
        -13    1    3    3    0    0 -0.56490627577E+03 -0.17337744022E+03 -0.33206602565E+03  0.67782496455E+03  0.00000000000E+00 0. -1.
         22    1    1    2    0    0  0.18403910831E+04  0.54916368503E+03 -0.16974983607E+04  0.25632246832E+04  0.00000000000E+00 0.  1.
<mgrwt>
<rscale>  0 0.38962154E+04</rscale>
<asrwt>0</asrwt>
<pdfrwt beam="1">  1        1 0.56329114E+00 0.38962154E+04</pdfrwt>
<pdfrwt beam="2">  1       -1 0.15946534E+00 0.38962154E+04</pdfrwt>
<totfact> 0.43110890E-02</totfact>
</mgrwt>
</event>
<event>
 6    1  0.1001928E-005  0.2147238E+04  0.7818608E-02  0.8540715E-01
          1   -1    0    0  501    0  0.00000000000E+00  0.00000000000E+00  0.12653337709E+04  0.12653337709E+04  0.00000000000E+00 0. -1.
         -1   -1    0    0    0  501 -0.00000000000E+00 -0.00000000000E+00 -0.91095151132E+03  0.91095151132E+03  0.00000000000E+00 0.  1.
         23    2    1    2    0    0 -0.16667996501E+03 -0.44249326681E+03 -0.79718380214E+03  0.93142107420E+03  0.91982069737E+02 0.  0.
         11    1    3    3    0    0 -0.89545481329E+02 -0.12549923940E+03 -0.22472069848E+03  0.27252127374E+03  0.00000000000E+00 0. -1.
        -11    1    3    3    0    0 -0.77134483683E+02 -0.31699402742E+03 -0.57246310366E+03  0.65889980045E+03  0.00000000000E+00 0.  1.
         22    1    1    2    0    0  0.16667996501E+03  0.44249326681E+03  0.11515660618E+04  0.12448642081E+04  0.00000000000E+00 0. -1.
<mgrwt>
<rscale>  0 0.21472380E+04</rscale>
<asrwt>0</asrwt>
<pdfrwt beam="1">  1        1 0.19466673E+00 0.21472380E+04</pdfrwt>
<pdfrwt beam="2">  1       -1 0.14014639E+00 0.21472380E+04</pdfrwt>
<totfact> 0.36679282E+00</totfact>
</mgrwt>
</event>
<event>
 6    1  0.1001928E-005  0.2076389E+04  0.7818608E-02  0.8571716E-01
         -2   -1    0    0    0  501 -0.00000000000E+00  0.00000000000E+00  0.76634009069E+03  0.76634009069E+03  0.00000000000E+00 0.  1.
          2   -1    0    0  501    0  0.00000000000E+00 -0.00000000000E+00 -0.14064869220E+04  0.14064869220E+04  0.00000000000E+00 0. -1.
         23    2    1    2    0    0  0.41515603665E+03  0.70260660493E+03 -0.98878939886E+03  0.12853799912E+04  0.92123126254E+02 0.  0.
         11    1    3    3    0    0  0.38980370705E+03  0.62734812595E+03 -0.85541856543E+03  0.11301564154E+04  0.00000000000E+00 0. -1.
        -11    1    3    3    0    0  0.25352329609E+02  0.75258478978E+02 -0.13337083343E+03  0.15522357580E+03  0.00000000000E+00 0.  1.
         22    1    1    2    0    0 -0.41515603665E+03 -0.70260660493E+03  0.34864256755E+03  0.88744702150E+03  0.00000000000E+00 0.  1.
<mgrwt>
<rscale>  0 0.20763885E+04</rscale>
<asrwt>0</asrwt>
<pdfrwt beam="1">  1        2 0.21638260E+00 0.20763885E+04</pdfrwt>
<pdfrwt beam="2">  1       -2 0.11789848E+00 0.20763885E+04</pdfrwt>
<totfact> 0.73503943E+00</totfact>
</mgrwt>
</event>
<event>
 6    1  0.1001928E-005  0.1738685E+04  0.7818608E-02  0.8739603E-01
          2   -1    0    0  501    0  0.00000000000E+00  0.00000000000E+00  0.10447715131E+04  0.10447715131E+04  0.00000000000E+00 0. -1.
         -2   -1    0    0    0  501 -0.00000000000E+00 -0.00000000000E+00 -0.72337024094E+03  0.72337024094E+03  0.00000000000E+00 0.  1.
         23    2    1    2    0    0  0.24370851689E+03  0.76497770271E+03  0.49387822955E+03  0.94696392451E+03  0.90775777845E+02 0.  0.
         13    1    3    3    0    0  0.24086361629E+03  0.65415646808E+03  0.42343669966E+03  0.81561915439E+03  0.00000000000E+00 0.  1.
        -13    1    3    3    0    0  0.28449005992E+01  0.11082123463E+03  0.70441529885E+02  0.13134477012E+03  0.00000000000E+00 0. -1.
         22    1    1    2    0    0 -0.24370851689E+03 -0.76497770271E+03 -0.17247695740E+03  0.82117782952E+03  0.00000000000E+00 0. -1.
<mgrwt>
<rscale>  0 0.17386853E+04</rscale>
<asrwt>0</asrwt>
<pdfrwt beam="1">  1        2 0.16073408E+00 0.17386853E+04</pdfrwt>
<pdfrwt beam="2">  1       -2 0.11128773E+00 0.17386853E+04</pdfrwt>
<totfact> 0.14294032E+01</totfact>
</mgrwt>
</event>
<event>
 6    1  0.1001928E-005  0.3137314E+04  0.7818608E-02  0.8205571E-01
          1   -1    0    0  501    0  0.00000000000E+00  0.00000000000E+00  0.22391367446E+04  0.22391367446E+04  0.00000000000E+00 0. -1.
         -1   -1    0    0    0  501 -0.00000000000E+00 -0.00000000000E+00 -0.10989434815E+04  0.10989434815E+04  0.00000000000E+00 0.  1.
         23    2    1    2    0    0  0.30383508627E+03  0.13379068638E+04 -0.23563563605E+03  0.13950887965E+04  0.91858920426E+02 0.  0.
         11    1    3    3    0    0  0.30480342883E+02  0.23443502339E+03 -0.13721207197E+02  0.23680604516E+03  0.00000000000E+00 0. -1.
        -11    1    3    3    0    0  0.27335474339E+03  0.11034718404E+04 -0.22191442885E+03  0.11582827514E+04  0.00000000000E+00 0.  1.
         22    1    1    2    0    0 -0.30383508627E+03 -0.13379068638E+04  0.13758288991E+04  0.19429914296E+04  0.00000000000E+00 0. -1.
<mgrwt>
<rscale>  0 0.31373140E+04</rscale>
<asrwt>0</asrwt>
<pdfrwt beam="1">  1        1 0.34448257E+00 0.31373140E+04</pdfrwt>
<pdfrwt beam="2">  1       -1 0.16906823E+00 0.31373140E+04</pdfrwt>
<totfact> 0.43069363E-01</totfact>
</mgrwt>
</event>
<event>
 6    1  0.1120129E-005  0.4890527E+04  0.7818608E-02  0.7845620E-01
         -1   -1    0    0    0  501 -0.00000000000E+00  0.00000000000E+00  0.23081658419E+04  0.23081658419E+04  0.00000000000E+00 0.  1.
          1   -1    0    0  501    0  0.00000000000E+00 -0.00000000000E+00 -0.25905045977E+04  0.25905045977E+04  0.00000000000E+00 0. -1.
         23    2    1    2    0    0  0.10278998993E+04 -0.77455118546E+03 -0.22227937125E+04  0.25701788289E+04  0.92193179583E+02 0.  0.
         11    1    3    3    0    0  0.49053924731E+03 -0.37370431129E+03 -0.97372946920E+03  0.11525765678E+04  0.00000000000E+00 0.  1.
        -11    1    3    3    0    0  0.53736065196E+03 -0.40084687418E+03 -0.12490642433E+04  0.14176022611E+04  0.00000000000E+00 0. -1.
         22    1    1    2    0    0 -0.10278998993E+04  0.77455118546E+03  0.19404549567E+04  0.23284916107E+04  0.00000000000E+00 0.  1.
<mgrwt>
<rscale>  0 0.48905273E+04</rscale>
<asrwt>0</asrwt>
<pdfrwt beam="1">  1        1 0.39853917E+00 0.48905273E+04</pdfrwt>
<pdfrwt beam="2">  1       -1 0.35510244E+00 0.48905273E+04</pdfrwt>
<totfact> 0.12263437E-02</totfact>
</mgrwt>
</event>
<event>
 6    1  0.1001928E-005  0.2699032E+04  0.7818608E-02  0.8335319E-01
         -2   -1    0    0    0  501 -0.00000000000E+00  0.00000000000E+00  0.24251810484E+04  0.24251810484E+04  0.00000000000E+00 0. -1.
          2   -1    0    0  501    0  0.00000000000E+00 -0.00000000000E+00 -0.75095178838E+03  0.75095178838E+03  0.00000000000E+00 0.  1.
         23    2    1    2    0    0 -0.47266926027E+03 -0.70305437779E+03  0.20719130210E+04  0.22402620864E+04  0.90823791949E+02 0.  0.
         13    1    3    3    0    0 -0.14832454571E+03 -0.15113927445E+03  0.53006382967E+03  0.57079848867E+03  0.00000000000E+00 0.  1.
        -13    1    3    3    0    0 -0.32434471456E+03 -0.55191510334E+03  0.15418491914E+04  0.16694635977E+04  0.00000000000E+00 0. -1.
         22    1    1    2    0    0  0.47266926027E+03  0.70305437779E+03 -0.39768376100E+03  0.93587075042E+03  0.00000000000E+00 0.  1.
<mgrwt>
<rscale>  0 0.26990325E+04</rscale>
<asrwt>0</asrwt>
<pdfrwt beam="1">  1        2 0.11553105E+00 0.26990325E+04</pdfrwt>
<pdfrwt beam="2">  1       -2 0.37310477E+00 0.26990325E+04</pdfrwt>
<totfact> 0.36426483E-01</totfact>
</mgrwt>
</event>
<event>
 6    1  0.1001928E-005  0.8360830E+03  0.7818608E-02  0.9509209E-01
          1   -1    0    0  501    0  0.00000000000E+00  0.00000000000E+00  0.34286112083E+03  0.34286112083E+03  0.00000000000E+00 0. -1.
         -1   -1    0    0    0  501 -0.00000000000E+00 -0.00000000000E+00 -0.50970689049E+03  0.50970689049E+03  0.00000000000E+00 0.  1.
         23    2    1    2    0    0 -0.23826810931E+03 -0.19502847393E+03  0.19754227614E+03  0.37550779973E+03  0.84707492201E+02 0.  0.
         11    1    3    3    0    0 -0.22410724403E+03 -0.19880508569E+03  0.20059748803E+03  0.36053692061E+03  0.00000000000E+00 0. -1.
        -11    1    3    3    0    0 -0.14160865285E+02  0.37766117537E+01 -0.30552118852E+01  0.14970879120E+02  0.00000000000E+00 0.  1.
         22    1    1    2    0    0  0.23826810931E+03  0.19502847393E+03 -0.36438804580E+03  0.47706021159E+03  0.00000000000E+00 0.  1.
<mgrwt>
<rscale>  0 0.83608295E+03</rscale>
<asrwt>0</asrwt>
<pdfrwt beam="1">  1        1 0.52747865E-01 0.83608295E+03</pdfrwt>
<pdfrwt beam="2">  1       -1 0.78416445E-01 0.83608295E+03</pdfrwt>
<totfact> 0.12112762E+02</totfact>
</mgrwt>
</event>
<event>
 6    1  0.1001928E-005  0.1238125E+04  0.7818608E-02  0.9080125E-01
          2   -1    0    0  501    0  0.00000000000E+00  0.00000000000E+00  0.18647049792E+04  0.18647049792E+04  0.00000000000E+00 0. -1.
         -2   -1    0    0    0  501 -0.00000000000E+00 -0.00000000000E+00 -0.20552225494E+03  0.20552225494E+03  0.00000000000E+00 0.  1.
         23    2    1    2    0    0  0.36194228520E+00  0.52254702505E+03  0.13785007662E+04  0.14770679925E+04  0.91705875331E+02 0.  0.
         11    1    3    3    0    0  0.43724464404E+02  0.18289715560E+03  0.47682754829E+03  0.51256971148E+03  0.00000000000E+00 0. -1.
        -11    1    3    3    0    0 -0.43362522119E+02  0.33964986945E+03  0.90167321794E+03  0.96449828102E+03  0.00000000000E+00 0.  1.
         22    1    1    2    0    0 -0.36194228520E+00 -0.52254702505E+03  0.28068195804E+03  0.59315924165E+03  0.00000000000E+00 0.  1.
<mgrwt>
<rscale>  0 0.12381250E+04</rscale>
<asrwt>0</asrwt>
<pdfrwt beam="1">  1        2 0.28687768E+00 0.12381250E+04</pdfrwt>
<pdfrwt beam="2">  1       -2 0.31618810E-01 0.12381250E+04</pdfrwt>
<totfact> 0.72682675E+01</totfact>
</mgrwt>
</event>
<event>
 6    1  0.1001928E-005  0.2795401E+04  0.7818608E-02  0.8304698E-01
         -1   -1    0    0    0  501 -0.00000000000E+00  0.00000000000E+00  0.78685710208E+03  0.78685710208E+03  0.00000000000E+00 0.  1.
          1   -1    0    0  501    0  0.00000000000E+00 -0.00000000000E+00 -0.24827459395E+04  0.24827459395E+04  0.00000000000E+00 0. -1.
         23    2    1    2    0    0  0.13760639848E+04 -0.17248604887E+03 -0.10378129406E+04  0.17345566536E+04  0.91255451569E+02 0.  0.
         13    1    3    3    0    0  0.64617292067E+03 -0.93206400126E+02 -0.54340400478E+03  0.84942026632E+03  0.00000000000E+00 0. -1.
        -13    1    3    3    0    0  0.72989106414E+03 -0.79279648747E+02 -0.49440893580E+03  0.88513638724E+03  0.00000000000E+00 0.  1.
         22    1    1    2    0    0 -0.13760639848E+04  0.17248604887E+03 -0.65807589684E+03  0.15350463880E+04  0.00000000000E+00 0.  1.
<mgrwt>
<rscale>  0 0.27954007E+04</rscale>
<asrwt>0</asrwt>
<pdfrwt beam="1">  1        1 0.38196092E+00 0.27954007E+04</pdfrwt>
<pdfrwt beam="2">  1       -1 0.12105494E+00 0.27954007E+04</pdfrwt>
<totfact> 0.73046598E-01</totfact>
</mgrwt>
</event>
<event>
 6    1  0.1001928E-005  0.2157763E+04  0.7818608E-02  0.8536217E-01
          2   -1    0    0  501    0  0.00000000000E+00  0.00000000000E+00  0.31625282478E+04  0.31625282478E+04  0.00000000000E+00 0.  1.
         -2   -1    0    0    0  501 -0.00000000000E+00 -0.00000000000E+00 -0.36805538295E+03  0.36805538295E+03  0.00000000000E+00 0. -1.
         23    2    1    2    0    0  0.38317424737E+03 -0.70486644189E+03  0.22427661992E+03  0.83808145950E+03  0.91767781678E+02 0.  0.
         13    1    3    3    0    0  0.12786854433E+03 -0.32038823954E+03  0.75049523702E+02  0.35303175448E+03  0.00000000000E+00 0.  1.
        -13    1    3    3    0    0  0.25530570304E+03 -0.38447820236E+03  0.14922709622E+03  0.48504970502E+03  0.00000000000E+00 0. -1.
         22    1    1    2    0    0 -0.38317424737E+03  0.70486644189E+03  0.25701962449E+04  0.26925021712E+04  0.00000000000E+00 0.  1.
<mgrwt>
<rscale>  0 0.21577632E+04</rscale>
<asrwt>0</asrwt>
<pdfrwt beam="1">  1        2 0.48654279E+00 0.21577632E+04</pdfrwt>
<pdfrwt beam="2">  1       -2 0.56623907E-01 0.21577632E+04</pdfrwt>
<totfact> 0.36886283E+00</totfact>
</mgrwt>
</event>
<event>
 6    1  0.1001928E-005  0.3083220E+04  0.7818608E-02  0.8220358E-01
          2   -1    0    0  501    0  0.00000000000E+00  0.00000000000E+00  0.17143988250E+04  0.17143988250E+04  0.00000000000E+00 0. -1.
         -2   -1    0    0    0  501 -0.00000000000E+00 -0.00000000000E+00 -0.13862364321E+04  0.13862364321E+04  0.00000000000E+00 0.  1.
         23    2    1    2    0    0 -0.91566904378E+02 -0.83390478106E+03 -0.11348022791E+04  0.14142049107E+04  0.91747670561E+02 0.  0.
         11    1    3    3    0    0 -0.91878550754E+02 -0.80604019762E+03 -0.10631316883E+04  0.13373075394E+04  0.00000000000E+00 0. -1.
        -11    1    3    3    0    0  0.31164637684E+00 -0.27864583436E+02 -0.71670590763E+02  0.76897371306E+02  0.00000000000E+00 0.  1.
         22    1    1    2    0    0  0.91566904378E+02  0.83390478106E+03  0.14629646720E+04  0.16864303464E+04  0.00000000000E+00 0. -1.
<mgrwt>
<rscale>  0 0.30832205E+04</rscale>
<asrwt>0</asrwt>
<pdfrwt beam="1">  1        2 0.26375367E+00 0.30832205E+04</pdfrwt>
<pdfrwt beam="2">  1       -2 0.21326714E+00 0.30832205E+04</pdfrwt>
<totfact> 0.89311992E-01</totfact>
</mgrwt>
</event>
<event>
 6    1  0.1001928E-005  0.7769760E+03  0.7818608E-02  0.9593955E-01
         -1   -1    0    0    0  501 -0.00000000000E+00  0.00000000000E+00  0.26517953529E+03  0.26517953529E+03  0.00000000000E+00 0.  1.
          1   -1    0    0  501    0  0.00000000000E+00 -0.00000000000E+00 -0.56913492053E+03  0.56913492053E+03  0.00000000000E+00 0. -1.
         23    2    1    2    0    0 -0.32517481114E+03 -0.19603677628E+03 -0.20814704329E+03  0.44271732376E+03  0.92219096007E+02 0.  0.
         11    1    3    3    0    0 -0.22115355480E+03 -0.13415656504E+03 -0.90806877860E+02  0.27414005145E+03  0.00000000000E+00 0.  1.
        -11    1    3    3    0    0 -0.10402125634E+03 -0.61880211245E+02 -0.11734016543E+03  0.16857727230E+03  0.00000000000E+00 0. -1.
         22    1    1    2    0    0  0.32517481114E+03  0.19603677628E+03 -0.95808341947E+02  0.39159713206E+03  0.00000000000E+00 0. -1.
<mgrwt>
<rscale>  0 0.77697602E+03</rscale>
<asrwt>0</asrwt>
<pdfrwt beam="1">  1        1 0.87559218E-01 0.77697602E+03</pdfrwt>
<pdfrwt beam="2">  1       -1 0.40796852E-01 0.77697602E+03</pdfrwt>
<totfact> 0.21951929E+02</totfact>
</mgrwt>
</event>
<event>
 6    1  0.1001928E-005  0.3837092E+04  0.7818608E-02  0.8038242E-01
          2   -1    0    0  501    0  0.00000000000E+00  0.00000000000E+00  0.18536761829E+04  0.18536761829E+04  0.00000000000E+00 0.  1.
         -2   -1    0    0    0  501 -0.00000000000E+00 -0.00000000000E+00 -0.19856856608E+04  0.19856856608E+04  0.00000000000E+00 0. -1.
         23    2    1    2    0    0  0.30268757029E+03 -0.17762745501E+04  0.59016003785E+03  0.18981509195E+04  0.88977528555E+02 0.  0.
         11    1    3    3    0    0  0.80723261975E+02 -0.55673298372E+03  0.22529363777E+03  0.60599099284E+03  0.00000000000E+00 0.  1.
        -11    1    3    3    0    0  0.22196430831E+03 -0.12195415663E+04  0.36486640008E+03  0.12921599267E+04  0.00000000000E+00 0. -1.
         22    1    1    2    0    0 -0.30268757029E+03  0.17762745501E+04 -0.72216951574E+03  0.19412109241E+04  0.00000000000E+00 0. -1.
<mgrwt>
<rscale>  0 0.38370917E+04</rscale>
<asrwt>0</asrwt>
<pdfrwt beam="1">  1        2 0.28518095E+00 0.38370917E+04</pdfrwt>
<pdfrwt beam="2">  1       -2 0.30549010E+00 0.38370917E+04</pdfrwt>
<totfact> 0.18942481E-01</totfact>
</mgrwt>
</event>
<event>
 6    1  0.1001928E-005  0.2939480E+04  0.7818608E-02  0.8261227E-01
          1   -1    0    0  501    0  0.00000000000E+00  0.00000000000E+00  0.19735646711E+04  0.19735646711E+04  0.00000000000E+00 0. -1.
         -1   -1    0    0    0  501 -0.00000000000E+00 -0.00000000000E+00 -0.10945352159E+04  0.10945352159E+04  0.00000000000E+00 0.  1.
         23    2    1    2    0    0 -0.56181435074E+03 -0.61879774924E+03 -0.82015130778E+03  0.11744892395E+04  0.90723684571E+02 0.  0.
         11    1    3    3    0    0 -0.25659408726E+03 -0.21655711773E+03 -0.32922224367E+03  0.47023908449E+03  0.00000000000E+00 0.  1.
        -11    1    3    3    0    0 -0.30522026349E+03 -0.40224063150E+03 -0.49092906411E+03  0.70425015503E+03  0.00000000000E+00 0. -1.
         22    1    1    2    0    0  0.56181435074E+03  0.61879774924E+03  0.16991807629E+04  0.18936106475E+04  0.00000000000E+00 0. -1.
<mgrwt>
<rscale>  0 0.29394802E+04</rscale>
<asrwt>0</asrwt>
<pdfrwt beam="1">  1        1 0.30362533E+00 0.29394802E+04</pdfrwt>
<pdfrwt beam="2">  1       -1 0.16839003E+00 0.29394802E+04</pdfrwt>
<totfact> 0.67185416E-01</totfact>
</mgrwt>
</event>
<event>
 6    1  0.1001928E-005  0.3651257E+03  0.7818608E-02  0.1056573E+00
          2   -1    0    0  501    0  0.00000000000E+00  0.00000000000E+00  0.74294106730E+03  0.74294106730E+03  0.00000000000E+00 0. -1.
         -2   -1    0    0    0  501 -0.00000000000E+00 -0.00000000000E+00 -0.44861153215E+02  0.44861153215E+02  0.00000000000E+00 0.  1.
         23    2    1    2    0    0  0.12318439926E+03 -0.11546358820E+03  0.30759372992E+03  0.36237808340E+03  0.90541350873E+02 0.  0.
         13    1    3    3    0    0 -0.40517497727E+01 -0.40191447290E+02  0.41112102099E+02  0.57636568691E+02  0.00000000000E+00 0.  1.
        -13    1    3    3    0    0  0.12723614903E+03 -0.75272140908E+02  0.26648162782E+03  0.30474151471E+03  0.00000000000E+00 0. -1.
         22    1    1    2    0    0 -0.12318439926E+03  0.11546358820E+03  0.39048618416E+03  0.42542413711E+03  0.00000000000E+00 0. -1.
<mgrwt>
<rscale>  0 0.36512569E+03</rscale>
<asrwt>0</asrwt>
<pdfrwt beam="1">  1        2 0.11429862E+00 0.36512569E+03</pdfrwt>
<pdfrwt beam="2">  1       -2 0.69017164E-02 0.36512569E+03</pdfrwt>
<totfact> 0.46636847E+03</totfact>
</mgrwt>
</event>
<event>
 6    1  0.1001928E-005  0.2122655E+04  0.7818608E-02  0.8551329E-01
          3   -1    0    0  501    0  0.00000000000E+00  0.00000000000E+00  0.43621335474E+03  0.43621335474E+03  0.00000000000E+00 0. -1.
         -3   -1    0    0    0  501 -0.00000000000E+00 -0.00000000000E+00 -0.25822605000E+04  0.25822605000E+04  0.00000000000E+00 0.  1.
         23    2    1    2    0    0  0.72467373677E+03 -0.47934888868E+03 -0.19368858843E+04  0.21247872123E+04  0.90919673046E+02 0.  0.
         11    1    3    3    0    0  0.30966978624E+03 -0.25827930639E+03 -0.91420139822E+03  0.99918355327E+03  0.00000000000E+00 0.  1.
        -11    1    3    3    0    0  0.41500395053E+03 -0.22106958228E+03 -0.10226844861E+04  0.11256036590E+04  0.00000000000E+00 0. -1.
         22    1    1    2    0    0 -0.72467373677E+03  0.47934888868E+03 -0.20916126100E+03  0.89368664248E+03  0.00000000000E+00 0. -1.
<mgrwt>
<rscale>  0 0.21226554E+04</rscale>
<asrwt>0</asrwt>
<pdfrwt beam="1">  1        3 0.67109749E-01 0.21226554E+04</pdfrwt>
<pdfrwt beam="2">  1       -3 0.39727083E+00 0.21226554E+04</pdfrwt>
<totfact> 0.56386728E-02</totfact>
</mgrwt>
</event>
<event>
 6    1  0.1001928E-005  0.1890299E+04  0.7818608E-02  0.8659700E-01
          2   -1    0    0  501    0  0.00000000000E+00  0.00000000000E+00  0.28073113215E+04  0.28073113215E+04  0.00000000000E+00 0. -1.
         -2   -1    0    0    0  501 -0.00000000000E+00 -0.00000000000E+00 -0.31820745809E+03  0.31820745809E+03  0.00000000000E+00 0.  1.
         23    2    1    2    0    0  0.12925449264E+02 -0.78255041537E+03  0.37885382568E+03  0.87480612767E+03  0.95933935286E+02 0.  0.
         13    1    3    3    0    0  0.38508469066E+02 -0.62410904904E+03  0.33005299198E+03  0.70705727123E+03  0.00000000000E+00 0. -1.
        -13    1    3    3    0    0 -0.25583019802E+02 -0.15844136633E+03  0.48800833698E+02  0.16774885643E+03  0.00000000000E+00 0.  1.
         22    1    1    2    0    0 -0.12925449264E+02  0.78255041537E+03  0.21102500377E+04  0.22507126519E+04  0.00000000000E+00 0. -1.
<mgrwt>
<rscale>  0 0.18902988E+04</rscale>
<asrwt>0</asrwt>
<pdfrwt beam="1">  1        2 0.43189403E+00 0.18902988E+04</pdfrwt>
<pdfrwt beam="2">  1       -2 0.48954995E-01 0.18902988E+04</pdfrwt>
<totfact> 0.84937518E+00</totfact>
</mgrwt>
</event>
<event>
 6    1  0.1001928E-005  0.5438856E+04  0.7818608E-02  0.7764159E-01
         -2   -1    0    0    0  501 -0.00000000000E+00  0.00000000000E+00  0.19582663849E+04  0.19582663849E+04  0.00000000000E+00 0.  1.
          2   -1    0    0  501    0  0.00000000000E+00 -0.00000000000E+00 -0.37764468773E+04  0.37764468773E+04  0.00000000000E+00 0. -1.
         23    2    1    2    0    0  0.15314942897E+04  0.35746387752E+03  0.14290000468E+04  0.21267447705E+04  0.88017055229E+02 0.  0.
         11    1    3    3    0    0  0.10266969638E+04  0.21943081667E+03  0.90377089881E+03  0.13853008252E+04  0.00000000000E+00 0. -1.
        -11    1    3    3    0    0  0.50479732585E+03  0.13803306085E+03  0.52522914797E+03  0.74144394525E+03  0.00000000000E+00 0.  1.
         22    1    1    2    0    0 -0.15314942897E+04 -0.35746387752E+03 -0.32471805392E+04  0.36079684917E+04  0.00000000000E+00 0. -1.
<mgrwt>
<rscale>  0 0.54388561E+04</rscale>
<asrwt>0</asrwt>
<pdfrwt beam="1">  1        2 0.58099181E+00 0.54388561E+04</pdfrwt>
<pdfrwt beam="2">  1       -2 0.30127176E+00 0.54388561E+04</pdfrwt>
<totfact> 0.11194855E-02</totfact>
</mgrwt>
</event>
<event>
 6    1  0.1001928E-005  0.2079601E+04  0.7818608E-02  0.8570283E-01
         -2   -1    0    0    0  501 -0.00000000000E+00  0.00000000000E+00  0.46315539261E+03  0.46315539261E+03  0.00000000000E+00 0.  1.
          2   -1    0    0  501    0  0.00000000000E+00 -0.00000000000E+00 -0.23343885530E+04  0.23343885530E+04  0.00000000000E+00 0. -1.
         23    2    1    2    0    0  0.56409217246E+03 -0.77548217257E+03 -0.14711961905E+04  0.17585048913E+04  0.91370909298E+02 0.  0.
         13    1    3    3    0    0  0.47995067554E+03 -0.61954193710E+03 -0.11494586387E+04  0.13912009290E+04  0.00000000000E+00 0. -1.
        -13    1    3    3    0    0  0.84141496925E+02 -0.15594023547E+03 -0.32173755175E+03  0.36730396234E+03  0.00000000000E+00 0.  1.
         22    1    1    2    0    0 -0.56409217246E+03  0.77548217257E+03 -0.40003696995E+03  0.10390390543E+04  0.00000000000E+00 0. -1.
<mgrwt>
<rscale>  0 0.20796006E+04</rscale>
<asrwt>0</asrwt>
<pdfrwt beam="1">  1        2 0.35913670E+00 0.20796006E+04</pdfrwt>
<pdfrwt beam="2">  1       -2 0.71254676E-01 0.20796006E+04</pdfrwt>
<totfact> 0.71535775E+00</totfact>
</mgrwt>
</event>
<event>
 6    1  0.1001928E-005  0.3163525E+04  0.7818608E-02  0.8198517E-01
         -1   -1    0    0    0  501 -0.00000000000E+00  0.00000000000E+00  0.96804840993E+03  0.96804840993E+03  0.00000000000E+00 0.  1.
          1   -1    0    0  501    0  0.00000000000E+00 -0.00000000000E+00 -0.25845538540E+04  0.25845538540E+04  0.00000000000E+00 0. -1.
         23    2    1    2    0    0 -0.11535656770E+04 -0.10800641246E+04 -0.85771651941E+03  0.17996011468E+04  0.75062478451E+02 0.  0.
         13    1    3    3    0    0 -0.33009984023E+03 -0.27746031968E+03 -0.26167439160E+03  0.50440422355E+03  0.00000000000E+00 0.  1.
        -13    1    3    3    0    0 -0.82346583680E+03 -0.80260380488E+03 -0.59604212781E+03  0.12951969233E+04  0.00000000000E+00 0. -1.
         22    1    1    2    0    0  0.11535656770E+04  0.10800641246E+04 -0.75878892469E+03  0.17530011171E+04  0.00000000000E+00 0. -1.
<mgrwt>
<rscale>  0 0.31635254E+04</rscale>
<asrwt>0</asrwt>
<pdfrwt beam="1">  1        1 0.39762366E+00 0.31635254E+04</pdfrwt>
<pdfrwt beam="2">  1       -1 0.14893053E+00 0.31635254E+04</pdfrwt>
<totfact> 0.35297515E-01</totfact>
</mgrwt>
</event>
<event>
 6    1  0.1001928E-005  0.1970926E+04  0.7818608E-02  0.8620336E-01
          1   -1    0    0  501    0  0.00000000000E+00  0.00000000000E+00  0.19415126963E+04  0.19415126963E+04  0.00000000000E+00 0. -1.
         -1   -1    0    0    0  501 -0.00000000000E+00 -0.00000000000E+00 -0.50019628546E+03  0.50019628546E+03  0.00000000000E+00 0.  1.
         23    2    1    2    0    0 -0.73217632559E+03  0.38487870978E+03  0.13809808069E+04  0.16123392342E+04  0.91192238042E+02 0.  0.
         11    1    3    3    0    0 -0.39957586292E+03  0.16187573141E+03  0.74707047942E+03  0.86254212875E+03  0.00000000000E+00 0. -1.
        -11    1    3    3    0    0 -0.33260046267E+03  0.22300297837E+03  0.63391032746E+03  0.74979710549E+03  0.00000000000E+00 0.  1.
         22    1    1    2    0    0  0.73217632559E+03 -0.38487870978E+03  0.60335603967E+02  0.82936974752E+03  0.00000000000E+00 0.  1.
<mgrwt>
<rscale>  0 0.19709261E+04</rscale>
<asrwt>0</asrwt>
<pdfrwt beam="1">  1        1 0.29869426E+00 0.19709261E+04</pdfrwt>
<pdfrwt beam="2">  1       -1 0.76953276E-01 0.19709261E+04</pdfrwt>
<totfact> 0.51430152E+00</totfact>
</mgrwt>
</event>
<event>
 6    1  0.1001928E-005  0.4781902E+04  0.7818608E-02  0.7863061E-01
          2   -1    0    0  501    0  0.00000000000E+00  0.00000000000E+00  0.28005402937E+04  0.28005402937E+04  0.00000000000E+00 0. -1.
         -2   -1    0    0    0  501 -0.00000000000E+00 -0.00000000000E+00 -0.20412652461E+04  0.20412652461E+04  0.00000000000E+00 0.  1.
         23    2    1    2    0    0  0.18114641475E+03  0.23349537086E+04 -0.10331477268E+03  0.23460323043E+04  0.91491997935E+02 0.  0.
         13    1    3    3    0    0 -0.10855074148E+02  0.13824977196E+03 -0.53585556833E+01  0.13877876712E+03  0.00000000000E+00 0. -1.
        -13    1    3    3    0    0  0.19200148890E+03  0.21967039367E+04 -0.97956216992E+02  0.22072535372E+04  0.00000000000E+00 0.  1.
         22    1    1    2    0    0 -0.18114641475E+03 -0.23349537086E+04  0.86258982024E+03  0.24957732355E+04  0.00000000000E+00 0. -1.
<mgrwt>
<rscale>  0 0.47819015E+04</rscale>
<asrwt>0</asrwt>
<pdfrwt beam="1">  1        2 0.43085235E+00 0.47819015E+04</pdfrwt>
<pdfrwt beam="2">  1       -2 0.31404081E+00 0.47819015E+04</pdfrwt>
<totfact> 0.44593746E-02</totfact>
</mgrwt>
</event>
<event>
 6    1  0.1001928E-005  0.2294078E+04  0.7818608E-02  0.8480260E-01
          2   -1    0    0  501    0  0.00000000000E+00  0.00000000000E+00  0.20475957184E+04  0.20475957184E+04  0.00000000000E+00 0.  1.
         -2   -1    0    0    0  501 -0.00000000000E+00 -0.00000000000E+00 -0.64255747201E+03  0.64255747201E+03  0.00000000000E+00 0. -1.
         23    2    1    2    0    0  0.10326456881E+04  0.29295138427E+03  0.11718539200E+04  0.15917213260E+04  0.90319096602E+02 0.  0.
         11    1    3    3    0    0  0.67083861833E+03  0.21688235100E+03  0.81882825799E+03  0.10805286309E+04  0.00000000000E+00 0. -1.
        -11    1    3    3    0    0  0.36180706976E+03  0.76069033273E+02  0.35302566201E+03  0.51119269516E+03  0.00000000000E+00 0.  1.
         22    1    1    2    0    0 -0.10326456881E+04 -0.29295138427E+03  0.23318432640E+03  0.10984318644E+04  0.00000000000E+00 0. -1.
<mgrwt>
<rscale>  0 0.22940775E+04</rscale>
<asrwt>0</asrwt>
<pdfrwt beam="1">  1        2 0.31501472E+00 0.22940775E+04</pdfrwt>
<pdfrwt beam="2">  1       -2 0.98854996E-01 0.22940775E+04</pdfrwt>
<totfact> 0.48389441E+00</totfact>
</mgrwt>
</event>
<event>
 6    1  0.1001928E-005  0.2342845E+04  0.7818608E-02  0.8461217E-01
         -1   -1    0    0    0  501 -0.00000000000E+00  0.00000000000E+00  0.12474867987E+04  0.12474867987E+04  0.00000000000E+00 0.  1.
          1   -1    0    0  501    0  0.00000000000E+00 -0.00000000000E+00 -0.10999964942E+04  0.10999964942E+04  0.00000000000E+00 0. -1.
         23    2    1    2    0    0  0.11168997223E+03  0.86394280652E+03  0.85586912590E+03  0.12246866162E+04  0.92051748277E+02 0.  0.
         11    1    3    3    0    0  0.22531837904E+01  0.36499051802E+03  0.36868494063E+03  0.51879836211E+03  0.00000000000E+00 0.  1.
        -11    1    3    3    0    0  0.10943678844E+03  0.49895228850E+03  0.48718418527E+03  0.70588825408E+03  0.00000000000E+00 0. -1.
         22    1    1    2    0    0 -0.11168997223E+03 -0.86394280652E+03 -0.70837882137E+03  0.11227966768E+04  0.00000000000E+00 0. -1.
<mgrwt>
<rscale>  0 0.23428454E+04</rscale>
<asrwt>0</asrwt>
<pdfrwt beam="1">  1        1 0.16923023E+00 0.23428454E+04</pdfrwt>
<pdfrwt beam="2">  1       -1 0.19192105E+00 0.23428454E+04</pdfrwt>
<totfact> 0.19559460E+00</totfact>
</mgrwt>
</event>
<event>
 6    1  0.1001928E-005  0.2933778E+04  0.7818608E-02  0.8262898E-01
         -2   -1    0    0    0  501 -0.00000000000E+00  0.00000000000E+00  0.71303699732E+03  0.71303699732E+03  0.00000000000E+00 0.  1.
          2   -1    0    0  501    0  0.00000000000E+00 -0.00000000000E+00 -0.30177440735E+04  0.30177440735E+04  0.00000000000E+00 0. -1.
         23    2    1    2    0    0 -0.14031499065E+04 -0.79835583555E+01 -0.61520024792E+03  0.15345737217E+04  0.86900892319E+02 0.  0.
         13    1    3    3    0    0 -0.70180576769E+02 -0.14253117551E+02 -0.17500087106E+02  0.73720538279E+02  0.00000000000E+00 0. -1.
        -13    1    3    3    0    0 -0.13329693297E+04  0.62695591958E+01 -0.59770016081E+03  0.14608531835E+04  0.00000000000E+00 0.  1.
         22    1    1    2    0    0  0.14031499065E+04  0.79835583555E+01 -0.16895068282E+04  0.21962073490E+04  0.00000000000E+00 0. -1.
<mgrwt>
<rscale>  0 0.29337779E+04</rscale>
<asrwt>0</asrwt>
<pdfrwt beam="1">  1        2 0.46426833E+00 0.29337779E+04</pdfrwt>
<pdfrwt beam="2">  1       -2 0.10969800E+00 0.29337779E+04</pdfrwt>
<totfact> 0.96550331E-01</totfact>
</mgrwt>
</event>
<event>
 6    1  0.1001928E-005  0.6128049E+03  0.7818608E-02  0.9879190E-01
         -2   -1    0    0    0  501 -0.00000000000E+00  0.00000000000E+00  0.54091537360E+02  0.54091537360E+02  0.00000000000E+00 0.  1.
          2   -1    0    0  501    0  0.00000000000E+00 -0.00000000000E+00 -0.17356221898E+04  0.17356221898E+04  0.00000000000E+00 0. -1.
         23    2    1    2    0    0 -0.22488380371E+03  0.16530348725E+03 -0.53868892231E+03  0.61328472879E+03  0.89635012609E+02 0.  0.
         11    1    3    3    0    0 -0.89553395403E+02  0.99358696737E+02 -0.17978001559E+03  0.22408216184E+03  0.00000000000E+00 0. -1.
        -11    1    3    3    0    0 -0.13533040831E+03  0.65944790509E+02 -0.35890890671E+03  0.38920256696E+03  0.00000000000E+00 0.  1.
         22    1    1    2    0    0  0.22488380371E+03 -0.16530348725E+03 -0.11428417301E+04  0.11764289983E+04  0.00000000000E+00 0. -1.
<mgrwt>
<rscale>  0 0.61280494E+03</rscale>
<asrwt>0</asrwt>
<pdfrwt beam="1">  1        2 0.26701876E+00 0.61280494E+03</pdfrwt>
<pdfrwt beam="2">  1       -2 0.83217762E-02 0.61280494E+03</pdfrwt>
<totfact> 0.88675602E+02</totfact>
</mgrwt>
</event>
<event>
 6    1  0.1180321E-005  0.3404674E+04  0.7818608E-02  0.8136760E-01
         -1   -1    0    0    0  501 -0.00000000000E+00  0.00000000000E+00  0.22340460215E+04  0.22340460215E+04  0.00000000000E+00 0.  1.
          1   -1    0    0  501    0  0.00000000000E+00 -0.00000000000E+00 -0.12971761308E+04  0.12971761308E+04  0.00000000000E+00 0. -1.
         23    2    1    2    0    0  0.10713697621E+02 -0.53434400084E+03  0.21437761904E+04  0.22112747628E+04  0.91221858987E+02 0.  0.
         11    1    3    3    0    0 -0.35288411057E+02 -0.18648295321E+03  0.67584407526E+03  0.70198744851E+03  0.00000000000E+00 0. -1.
        -11    1    3    3    0    0  0.46002108678E+02 -0.34786104763E+03  0.14679321152E+04  0.15092873143E+04  0.00000000000E+00 0.  1.
         22    1    1    2    0    0 -0.10713697621E+02  0.53434400084E+03 -0.12069062998E+04  0.13199473895E+04  0.00000000000E+00 0. -1.
<mgrwt>
<rscale>  0 0.34046739E+04</rscale>
<asrwt>0</asrwt>
<pdfrwt beam="1">  1        1 0.19956556E+00 0.34046739E+04</pdfrwt>
<pdfrwt beam="2">  1       -1 0.34369939E+00 0.34046739E+04</pdfrwt>
<totfact> 0.12777887E-01</totfact>
</mgrwt>
</event>
<event>
 6    1  0.1001928E-005  0.9094416E+03  0.7818608E-02  0.9413855E-01
          3   -1    0    0  501    0  0.00000000000E+00  0.00000000000E+00  0.12635944744E+03  0.12635944744E+03  0.00000000000E+00 0. -1.
         -3   -1    0    0    0  501 -0.00000000000E+00 -0.00000000000E+00 -0.16363715898E+04  0.16363715898E+04  0.00000000000E+00 0.  1.
         23    2    1    2    0    0  0.15402576028E+03 -0.38517363230E+03 -0.11006155791E+04  0.11799032686E+04  0.93458057683E+02 0.  0.
         11    1    3    3    0    0  0.14726361001E+03 -0.31470055319E+03 -0.98329277808E+03  0.10428747271E+04  0.00000000000E+00 0. -1.
        -11    1    3    3    0    0  0.67621502704E+01 -0.70473079115E+02 -0.11732280099E+03  0.13702854151E+03  0.00000000000E+00 0.  1.
         22    1    1    2    0    0 -0.15402576028E+03  0.38517363230E+03 -0.40939656333E+03  0.58282776866E+03  0.00000000000E+00 0.  1.
<mgrwt>
<rscale>  0 0.90944161E+03</rscale>
<asrwt>0</asrwt>
<pdfrwt beam="1">  1        3 0.19439916E-01 0.90944161E+03</pdfrwt>
<pdfrwt beam="2">  1       -3 0.25174947E+00 0.90944161E+03</pdfrwt>
<totfact> 0.45847842E+00</totfact>
</mgrwt>
</event>
<event>
 6    1  0.1001928E-005  0.5958584E+03  0.7818608E-02  0.9914036E-01
         -2   -1    0    0    0  501 -0.00000000000E+00  0.00000000000E+00  0.18824516155E+03  0.18824516155E+03  0.00000000000E+00 0.  1.
          2   -1    0    0  501    0  0.00000000000E+00 -0.00000000000E+00 -0.47152242679E+03  0.47152242679E+03  0.00000000000E+00 0. -1.
         23    2    1    2    0    0  0.26935815106E+02 -0.14644844447E+03 -0.42146554551E+03  0.45662063211E+03  0.93255083458E+02 0.  0.
         11    1    3    3    0    0  0.56910719745E+01 -0.78332830877E+02 -0.33709837555E+03  0.34612676217E+03  0.00000000000E+00 0.  1.
        -11    1    3    3    0    0  0.21244743131E+02 -0.68115613594E+02 -0.84367169955E+02  0.11049386993E+03  0.00000000000E+00 0. -1.
         22    1    1    2    0    0 -0.26935815106E+02  0.14644844447E+03  0.13818828027E+03  0.20314695624E+03  0.00000000000E+00 0.  1.
<mgrwt>
<rscale>  0 0.59585842E+03</rscale>
<asrwt>0</asrwt>
<pdfrwt beam="1">  1        2 0.72541911E-01 0.59585842E+03</pdfrwt>
<pdfrwt beam="2">  1       -2 0.28960794E-01 0.59585842E+03</pdfrwt>
<totfact> 0.72533118E+02</totfact>
</mgrwt>
</event>
<event>
 6    1  0.1001928E-005  0.2582510E+04  0.7818608E-02  0.8374166E-01
         -1   -1    0    0    0  501 -0.00000000000E+00  0.00000000000E+00  0.40558259034E+03  0.40558259034E+03  0.00000000000E+00 0.  1.
          1   -1    0    0  501    0  0.00000000000E+00 -0.00000000000E+00 -0.41109755421E+04  0.41109755421E+04  0.00000000000E+00 0. -1.
         23    2    1    2    0    0 -0.70686019935E+03 -0.77313119237E+03 -0.31706241749E+04  0.33403945270E+04  0.89413396757E+02 0.  0.
         13    1    3    3    0    0 -0.44318654630E+03 -0.42587251702E+03 -0.19149962377E+04  0.20112166233E+04  0.00000000000E+00 0.  1.
        -13    1    3    3    0    0 -0.26367365305E+03 -0.34725867534E+03 -0.12556279372E+04  0.13291779037E+04  0.00000000000E+00 0. -1.
         22    1    1    2    0    0  0.70686019935E+03  0.77313119237E+03 -0.53476877684E+03  0.11761636054E+04  0.00000000000E+00 0.  1.
<mgrwt>
<rscale>  0 0.25825105E+04</rscale>
<asrwt>0</asrwt>
<pdfrwt beam="1">  1        1 0.63245780E+00 0.25825105E+04</pdfrwt>
<pdfrwt beam="2">  1       -1 0.62397320E-01 0.25825105E+04</pdfrwt>
<totfact> 0.17586931E-01</totfact>
</mgrwt>
</event>
<event>
 6    1  0.1001928E-005  0.9241377E+03  0.7818608E-02  0.9395901E-01
         -1   -1    0    0    0  501 -0.00000000000E+00  0.00000000000E+00  0.38445623790E+03  0.38445623790E+03  0.00000000000E+00 0. -1.
          1   -1    0    0  501    0  0.00000000000E+00 -0.00000000000E+00 -0.55534959915E+03  0.55534959915E+03  0.00000000000E+00 0.  1.
         23    2    1    2    0    0  0.20453051633E+03  0.36773104695E+03  0.98058695448E+02  0.44041214086E+03  0.85372659925E+02 0.  0.
         13    1    3    3    0    0  0.50513865752E+02  0.15581035127E+03  0.10260680099E+02  0.16411519659E+03  0.00000000000E+00 0.  1.
        -13    1    3    3    0    0  0.15401665058E+03  0.21192069568E+03  0.87798015349E+02  0.27629694427E+03  0.00000000000E+00 0. -1.
         22    1    1    2    0    0 -0.20453051633E+03 -0.36773104695E+03 -0.26895205670E+03  0.49939369620E+03  0.00000000000E+00 0.  1.
<mgrwt>
<rscale>  0 0.92413769E+03</rscale>
<asrwt>0</asrwt>
<pdfrwt beam="1">  1        1 0.85438400E-01 0.92413769E+03</pdfrwt>
<pdfrwt beam="2">  1       -1 0.59147113E-01 0.92413769E+03</pdfrwt>
<totfact> 0.11162495E+02</totfact>
</mgrwt>
</event>
<event>
 6    1  0.2384264E-005  0.4309168E+04  0.7818608E-02  0.7944925E-01
          1   -1    0    0  501    0  0.00000000000E+00  0.00000000000E+00  0.28311991624E+04  0.28311991624E+04  0.00000000000E+00 0. -1.
         -1   -1    0    0    0  501 -0.00000000000E+00 -0.00000000000E+00 -0.16396702890E+04  0.16396702890E+04  0.00000000000E+00 0.  1.
         23    2    1    2    0    0  0.12678601624E+04 -0.28635783852E+03  0.23776084560E+04  0.27112516010E+04  0.91613705290E+02 0.  0.
         13    1    3    3    0    0  0.51488225262E+03 -0.13132910544E+03  0.88408209819E+03  0.10314805981E+04  0.00000000000E+00 0.  1.
        -13    1    3    3    0    0  0.75297790974E+03 -0.15502873308E+03  0.14935263578E+04  0.16797710029E+04  0.00000000000E+00 0. -1.
         22    1    1    2    0    0 -0.12678601624E+04  0.28635783852E+03 -0.11860795826E+04  0.17596178504E+04  0.00000000000E+00 0.  1.
<mgrwt>
<rscale>  0 0.43091684E+04</rscale>
<asrwt>0</asrwt>
<pdfrwt beam="1">  1        1 0.43556910E+00 0.43091684E+04</pdfrwt>
<pdfrwt beam="2">  1       -1 0.25225697E+00 0.43091684E+04</pdfrwt>
<totfact> 0.40711794E-02</totfact>
</mgrwt>
</event>
<event>
 6    1  0.1001928E-005  0.2551416E+04  0.7818608E-02  0.8384894E-01
         -2   -1    0    0    0  501 -0.00000000000E+00  0.00000000000E+00  0.69581113054E+03  0.69581113054E+03  0.00000000000E+00 0.  1.
          2   -1    0    0  501    0  0.00000000000E+00 -0.00000000000E+00 -0.23388978671E+04  0.23388978671E+04  0.00000000000E+00 0. -1.
         23    2    1    2    0    0 -0.75534630888E+03  0.61411047518E+03 -0.18002819690E+04  0.20486105932E+04  0.90058162914E+02 0.  0.
         11    1    3    3    0    0 -0.66412689296E+03  0.55155580309E+03 -0.16476463774E+04  0.18601120715E+04  0.00000000000E+00 0. -1.
        -11    1    3    3    0    0 -0.91219415921E+02  0.62554672082E+02 -0.15263559163E+03  0.18849852167E+03  0.00000000000E+00 0.  1.
         22    1    1    2    0    0  0.75534630888E+03 -0.61411047518E+03  0.15719523244E+03  0.98609840440E+03  0.00000000000E+00 0.  1.
<mgrwt>
<rscale>  0 0.25514162E+04</rscale>
<asrwt>0</asrwt>
<pdfrwt beam="1">  1        2 0.35983044E+00 0.25514162E+04</pdfrwt>
<pdfrwt beam="2">  1       -2 0.10704787E+00 0.25514162E+04</pdfrwt>
<totfact> 0.26844520E+00</totfact>
</mgrwt>
</event>
<event>
 6    1  0.1001928E-005  0.3952554E+04  0.7818608E-02  0.8014187E-01
         -2   -1    0    0    0  501 -0.00000000000E+00  0.00000000000E+00  0.19209339331E+04  0.19209339331E+04  0.00000000000E+00 0.  1.
          2   -1    0    0  501    0  0.00000000000E+00 -0.00000000000E+00 -0.20332150361E+04  0.20332150361E+04  0.00000000000E+00 0. -1.
         23    2    1    2    0    0 -0.64041886646E+03 -0.15143354220E+04  0.10382960929E+04  0.19473664752E+04  0.10406400570E+03 0.  0.
         11    1    3    3    0    0 -0.38559042356E+03 -0.10156585727E+04  0.65162973959E+03  0.12668321233E+04  0.00000000000E+00 0.  1.
        -11    1    3    3    0    0 -0.25482844291E+03 -0.49867684927E+03  0.38666635334E+03  0.68053435190E+03  0.00000000000E+00 0. -1.
         22    1    1    2    0    0  0.64041886646E+03  0.15143354220E+04 -0.11505771959E+04  0.20067824941E+04  0.00000000000E+00 0. -1.
<mgrwt>
<rscale>  0 0.39525545E+04</rscale>
<asrwt>0</asrwt>
<pdfrwt beam="1">  1        2 0.31280231E+00 0.39525545E+04</pdfrwt>
<pdfrwt beam="2">  1       -2 0.29552830E+00 0.39525545E+04</pdfrwt>
<totfact> 0.17163652E-01</totfact>
</mgrwt>
</event>
<event>
 6    1  0.1001928E-005  0.2527298E+04  0.7818608E-02  0.8393325E-01
         -2   -1    0    0    0  501 -0.00000000000E+00  0.00000000000E+00  0.21720508581E+04  0.21720508581E+04  0.00000000000E+00 0.  1.
          2   -1    0    0  501    0  0.00000000000E+00 -0.00000000000E+00 -0.73516159731E+03  0.73516159731E+03  0.00000000000E+00 0. -1.
         23    2    1    2    0    0 -0.27848830042E+03  0.32822430152E+03 -0.64557502981E+03  0.78072604651E+03  0.86481876714E+02 0.  0.
         13    1    3    3    0    0 -0.11380619136E+03  0.17165289166E+03 -0.24383098872E+03  0.31917098156E+03  0.00000000000E+00 0. -1.
        -13    1    3    3    0    0 -0.16468210906E+03  0.15657140986E+03 -0.40174404109E+03  0.46155506495E+03  0.00000000000E+00 0.  1.
         22    1    1    2    0    0  0.27848830042E+03 -0.32822430152E+03  0.20824642906E+04  0.21264864089E+04  0.00000000000E+00 0.  1.
<mgrwt>
<rscale>  0 0.25272977E+04</rscale>
<asrwt>0</asrwt>
<pdfrwt beam="1">  1        2 0.11310179E+00 0.25272977E+04</pdfrwt>
<pdfrwt beam="2">  1       -2 0.33416167E+00 0.25272977E+04</pdfrwt>
<totfact> 0.66995693E-01</totfact>
</mgrwt>
</event>
<event>
 6    1  0.1001928E-005  0.5174750E+04  0.7818608E-02  0.7802102E-01
         -1   -1    0    0    0  501 -0.00000000000E+00  0.00000000000E+00  0.35866938507E+04  0.35866938507E+04  0.00000000000E+00 0.  1.
          1   -1    0    0  501    0  0.00000000000E+00 -0.00000000000E+00 -0.18664848586E+04  0.18664848586E+04  0.00000000000E+00 0. -1.
         23    2    1    2    0    0 -0.10114125752E+04 -0.22183403527E+04  0.17708134681E+04  0.30146237825E+04  0.90481454942E+02 0.  0.
         11    1    3    3    0    0 -0.32605665539E+03 -0.63951502175E+03  0.48832794436E+03  0.86819156113E+03  0.00000000000E+00 0. -1.
        -11    1    3    3    0    0 -0.68535591978E+03 -0.15788253310E+04  0.12824855237E+04  0.21464322214E+04  0.00000000000E+00 0.  1.
         22    1    1    2    0    0  0.10114125752E+04  0.22183403527E+04 -0.50604475949E+02  0.24385549267E+04  0.00000000000E+00 0. -1.
<mgrwt>
<rscale>  0 0.51747501E+04</rscale>
<asrwt>0</asrwt>
<pdfrwt beam="1">  1        1 0.28715152E+00 0.51747501E+04</pdfrwt>
<pdfrwt beam="2">  1       -1 0.55179905E+00 0.51747501E+04</pdfrwt>
<totfact> 0.19422032E-03</totfact>
</mgrwt>
</event>
<event>
 6    1  0.1001928E-005  0.1227050E+04  0.7818608E-02  0.9089504E-01
         -2   -1    0    0    0  501 -0.00000000000E+00  0.00000000000E+00  0.72517079577E+03  0.72517079577E+03  0.00000000000E+00 0.  1.
          2   -1    0    0  501    0  0.00000000000E+00 -0.00000000000E+00 -0.51906787610E+03  0.51906787610E+03  0.00000000000E+00 0. -1.
         23    2    1    2    0    0  0.12091176776E+03  0.37355109524E+03 -0.36975608770E+03  0.54726401472E+03  0.92834589910E+02 0.  0.
         13    1    3    3    0    0 -0.11563752520E+02  0.64904801009E+02 -0.43281803657E+02  0.78864872371E+02  0.00000000000E+00 0. -1.
        -13    1    3    3    0    0  0.13247552028E+03  0.30864629423E+03 -0.32647428404E+03  0.46839914235E+03  0.00000000000E+00 0.  1.
         22    1    1    2    0    0 -0.12091176776E+03 -0.37355109524E+03  0.57585900737E+03  0.69697465715E+03  0.00000000000E+00 0.  1.
<mgrwt>
<rscale>  0 0.12270499E+04</rscale>
<asrwt>0</asrwt>
<pdfrwt beam="1">  1        2 0.79856596E-01 0.12270499E+04</pdfrwt>
<pdfrwt beam="2">  1       -2 0.11156474E+00 0.12270499E+04</pdfrwt>
<totfact> 0.36858731E+01</totfact>
</mgrwt>
</event>
<event>
 6    1  0.1001928E-005  0.7171873E+03  0.7818608E-02  0.9688283E-01
         -1   -1    0    0    0  501 -0.00000000000E+00  0.00000000000E+00  0.59332099882E+03  0.59332099882E+03  0.00000000000E+00 0.  1.
          1   -1    0    0  501    0  0.00000000000E+00 -0.00000000000E+00 -0.21672819637E+03  0.21672819637E+03  0.00000000000E+00 0. -1.
         23    2    1    2    0    0  0.17996727884E+03  0.13907999799E+03  0.49607203565E+03  0.55313139811E+03  0.90196517273E+02 0.  0.
         13    1    3    3    0    0  0.79312271411E+02  0.85758915828E+02  0.34288672246E+03  0.36223795008E+03  0.00000000000E+00 0.  1.
        -13    1    3    3    0    0  0.10065500743E+03  0.53321082159E+02  0.15318531319E+03  0.19089344802E+03  0.00000000000E+00 0. -1.
         22    1    1    2    0    0 -0.17996727884E+03 -0.13907999799E+03 -0.11947923320E+03  0.25691779708E+03  0.00000000000E+00 0. -1.
<mgrwt>
<rscale>  0 0.71718726E+03</rscale>
<asrwt>0</asrwt>
<pdfrwt beam="1">  1        1 0.33342800E-01 0.71718726E+03</pdfrwt>
<pdfrwt beam="2">  1       -1 0.91280153E-01 0.71718726E+03</pdfrwt>
<totfact> 0.15918916E+02</totfact>
</mgrwt>
</event>
<event>
 6    1  0.1001928E-005  0.5253520E+04  0.7818608E-02  0.7790547E-01
          2   -1    0    0  501    0  0.00000000000E+00  0.00000000000E+00  0.37474400764E+04  0.37474400764E+04  0.00000000000E+00 0. -1.
         -2   -1    0    0    0  501 -0.00000000000E+00 -0.00000000000E+00 -0.18412216348E+04  0.18412216348E+04  0.00000000000E+00 0.  1.
         23    2    1    2    0    0 -0.33697442763E+03 -0.22706071106E+04 -0.40320333515E+03  0.23324925881E+04  0.93489724547E+02 0.  0.
         13    1    3    3    0    0 -0.12422051862E+03 -0.79433342181E+03 -0.96482361502E+02  0.80975624006E+03  0.00000000000E+00 0.  1.
        -13    1    3    3    0    0 -0.21275390901E+03 -0.14762736888E+04 -0.30672097364E+03  0.15227363481E+04  0.00000000000E+00 0. -1.
         22    1    1    2    0    0  0.33697442763E+03  0.22706071106E+04  0.23094217767E+04  0.32561691231E+04  0.00000000000E+00 0. -1.
<mgrwt>
<rscale>  0 0.52535199E+04</rscale>
<asrwt>0</asrwt>
<pdfrwt beam="1">  1        2 0.57652924E+00 0.52535199E+04</pdfrwt>
<pdfrwt beam="2">  1       -2 0.28326487E+00 0.52535199E+04</pdfrwt>
<totfact> 0.15395635E-02</totfact>
</mgrwt>
</event>
<event>
 6    1  0.1150463E-005  0.2142203E+04  0.7818608E-02  0.8542877E-01
         -1   -1    0    0    0  501 -0.00000000000E+00  0.00000000000E+00  0.57223259720E+03  0.57223259720E+03  0.00000000000E+00 0.  1.
          1   -1    0    0  501    0  0.00000000000E+00 -0.00000000000E+00 -0.20048814615E+04  0.20048814615E+04  0.00000000000E+00 0. -1.
         23    2    1    2    0    0  0.13706393133E+03 -0.68407925480E+02 -0.19905981875E+04  0.19985178154E+04  0.90145153982E+02 0.  0.
         13    1    3    3    0    0  0.50971473264E+02  0.17553536226E+02 -0.76454514578E+03  0.76644340799E+03  0.00000000000E+00 0.  1.
        -13    1    3    3    0    0  0.86092458069E+02 -0.85961461706E+02 -0.12260530417E+04  0.12320744074E+04  0.00000000000E+00 0. -1.
         22    1    1    2    0    0 -0.13706393133E+03  0.68407925480E+02  0.55794932319E+03  0.57859624333E+03  0.00000000000E+00 0.  1.
<mgrwt>
<rscale>  0 0.21422031E+04</rscale>
<asrwt>0</asrwt>
<pdfrwt beam="1">  1        1 0.30844330E+00 0.21422031E+04</pdfrwt>
<pdfrwt beam="2">  1       -1 0.88035784E-01 0.21422031E+04</pdfrwt>
<totfact> 0.34358941E+00</totfact>
</mgrwt>
</event>
<event>
 6    1  0.1001928E-005  0.1886115E+04  0.7818608E-02  0.8661799E-01
         -1   -1    0    0    0  501 -0.00000000000E+00  0.00000000000E+00  0.55852457480E+03  0.55852457480E+03  0.00000000000E+00 0.  1.
          1   -1    0    0  501    0  0.00000000000E+00 -0.00000000000E+00 -0.15923332958E+04  0.15923332958E+04  0.00000000000E+00 0. -1.
         23    2    1    2    0    0 -0.20368837921E+03 -0.71180648557E+03  0.14397778999E+03  0.75969343238E+03  0.90813426670E+02 0.  0.
         11    1    3    3    0    0 -0.29818487667E+02 -0.16844864987E+03  0.68296908398E+02  0.18419706173E+03  0.00000000000E+00 0. -1.
        -11    1    3    3    0    0 -0.17386989154E+03 -0.54335783570E+03  0.75680881588E+02  0.57549637065E+03  0.00000000000E+00 0.  1.
         22    1    1    2    0    0  0.20368837921E+03  0.71180648557E+03 -0.11777865110E+04  0.13911644382E+04  0.00000000000E+00 0. -1.
<mgrwt>
<rscale>  0 0.18861148E+04</rscale>
<asrwt>0</asrwt>
<pdfrwt beam="1">  1        1 0.24497435E+00 0.18861148E+04</pdfrwt>
<pdfrwt beam="2">  1       -1 0.85926858E-01 0.18861148E+04</pdfrwt>
<totfact> 0.70742303E+00</totfact>
</mgrwt>
</event>
<event>
 6    1  0.1001928E-005  0.1856951E+04  0.7818608E-02  0.8676586E-01
          1   -1    0    0  501    0  0.00000000000E+00  0.00000000000E+00  0.47069310528E+03  0.47069310528E+03  0.00000000000E+00 0. -1.
         -1   -1    0    0    0  501 -0.00000000000E+00 -0.00000000000E+00 -0.18314840293E+04  0.18314840293E+04  0.00000000000E+00 0.  1.
         23    2    1    2    0    0  0.39433700401E+03  0.29884035282E+03 -0.16528016757E+04  0.17276534116E+04  0.90695657210E+02 0.  0.
         13    1    3    3    0    0  0.17647204180E+03  0.16898238841E+03 -0.93350902406E+03  0.96495415804E+03  0.00000000000E+00 0. -1.
        -13    1    3    3    0    0  0.21786496220E+03  0.12985796442E+03 -0.71929265160E+03  0.76269925352E+03  0.00000000000E+00 0.  1.
         22    1    1    2    0    0 -0.39433700401E+03 -0.29884035282E+03  0.29201075166E+03  0.57452372300E+03  0.00000000000E+00 0. -1.
<mgrwt>
<rscale>  0 0.18569512E+04</rscale>
<asrwt>0</asrwt>
<pdfrwt beam="1">  1        1 0.72414325E-01 0.18569512E+04</pdfrwt>
<pdfrwt beam="2">  1       -1 0.28176677E+00 0.18569512E+04</pdfrwt>
<totfact> 0.19616978E+00</totfact>
</mgrwt>
</event>
<event>
 6    1  0.1001928E-005  0.1463733E+04  0.7818608E-02  0.8908935E-01
          3   -1    0    0  501    0  0.00000000000E+00  0.00000000000E+00  0.63131378373E+03  0.63131378373E+03  0.00000000000E+00 0. -1.
         -3   -1    0    0    0  501 -0.00000000000E+00 -0.00000000000E+00 -0.84843494607E+03  0.84843494607E+03  0.00000000000E+00 0.  1.
         23    2    1    2    0    0 -0.26351455182E+03  0.14723908130E+03 -0.77983522447E+03  0.84118285082E+03  0.91248808725E+02 0.  0.
         11    1    3    3    0    0 -0.14466875413E+03  0.41057292523E+02 -0.30013883484E+03  0.33570533191E+03  0.00000000000E+00 0. -1.
        -11    1    3    3    0    0 -0.11884579769E+03  0.10618178878E+03 -0.47969638963E+03  0.50547751891E+03  0.00000000000E+00 0.  1.
         22    1    1    2    0    0  0.26351455182E+03 -0.14723908130E+03  0.56271406214E+03  0.63856587899E+03  0.00000000000E+00 0. -1.
<mgrwt>
<rscale>  0 0.14637331E+04</rscale>
<asrwt>0</asrwt>
<pdfrwt beam="1">  1        3 0.97125198E-01 0.14637331E+04</pdfrwt>
<pdfrwt beam="2">  1       -3 0.13052845E+00 0.14637331E+04</pdfrwt>
<totfact> 0.10916612E+00</totfact>
</mgrwt>
</event>
<event>
 6    1  0.1001928E-005  0.1661725E+04  0.7818608E-02  0.8783500E-01
          1   -1    0    0  501    0  0.00000000000E+00  0.00000000000E+00  0.10256400480E+04  0.10256400480E+04  0.00000000000E+00 0. -1.
         -1   -1    0    0    0  501 -0.00000000000E+00 -0.00000000000E+00 -0.67307467885E+03  0.67307467885E+03  0.00000000000E+00 0.  1.
         23    2    1    2    0    0  0.36042538129E+03 -0.72722693458E+03  0.34587694273E+03  0.88704348491E+03  0.91922873929E+02 0.  0.
         11    1    3    3    0    0  0.26262188642E+03 -0.44360314187E+03  0.24267149037E+03  0.56977491603E+03  0.00000000000E+00 0. -1.
        -11    1    3    3    0    0  0.97803494879E+02 -0.28362379271E+03  0.10320545236E+03  0.31726856888E+03  0.00000000000E+00 0.  1.
         22    1    1    2    0    0 -0.36042538129E+03  0.72722693458E+03  0.66884263816E+01  0.81167124189E+03  0.00000000000E+00 0. -1.
<mgrwt>
<rscale>  0 0.16617248E+04</rscale>
<asrwt>0</asrwt>
<pdfrwt beam="1">  1        1 0.15779078E+00 0.16617248E+04</pdfrwt>
<pdfrwt beam="2">  1       -1 0.10354995E+00 0.16617248E+04</pdfrwt>
<totfact> 0.12134068E+01</totfact>
</mgrwt>
</event>
<event>
 6    1  0.1001928E-005  0.1948646E+04  0.7818608E-02  0.8631014E-01
          2   -1    0    0  501    0  0.00000000000E+00  0.00000000000E+00  0.34788071217E+04  0.34788071217E+04  0.00000000000E+00 0. -1.
         -2   -1    0    0    0  501 -0.00000000000E+00 -0.00000000000E+00 -0.27288236732E+03  0.27288236732E+03  0.00000000000E+00 0.  1.
         23    2    1    2    0    0  0.93708277567E+02 -0.78477903307E+03  0.26962291687E+04  0.28112380219E+04  0.93531348848E+02 0.  0.
         11    1    3    3    0    0  0.37452172254E+02 -0.84635554382E+02  0.27294132081E+03  0.28820618813E+03  0.00000000000E+00 0. -1.
        -11    1    3    3    0    0  0.56256105313E+02 -0.70014347869E+03  0.24232878479E+04  0.25230318337E+04  0.00000000000E+00 0.  1.
         22    1    1    2    0    0 -0.93708277567E+02  0.78477903307E+03  0.50969558563E+03  0.94045146714E+03  0.00000000000E+00 0.  1.
<mgrwt>
<rscale>  0 0.19486458E+04</rscale>
<asrwt>0</asrwt>
<pdfrwt beam="1">  1        2 0.53520107E+00 0.19486458E+04</pdfrwt>
<pdfrwt beam="2">  1       -2 0.41981905E-01 0.19486458E+04</pdfrwt>
<totfact> 0.42453159E+00</totfact>
</mgrwt>
</event>
<event>
 6    1  0.1001928E-005  0.3839391E+04  0.7818608E-02  0.8037754E-01
         -2   -1    0    0    0  501 -0.00000000000E+00  0.00000000000E+00  0.17324129489E+04  0.17324129489E+04  0.00000000000E+00 0. -1.
          2   -1    0    0  501    0  0.00000000000E+00 -0.00000000000E+00 -0.21272240492E+04  0.21272240492E+04  0.00000000000E+00 0.  1.
         23    2    1    2    0    0 -0.13773660857E+04  0.12357403543E+04 -0.70723433622E+03  0.19829910977E+04  0.88779107191E+02 0.  0.
         11    1    3    3    0    0 -0.37679368772E+03  0.34782581635E+03 -0.15450469118E+03  0.53556323737E+03  0.00000000000E+00 0.  1.
        -11    1    3    3    0    0 -0.10005723979E+04  0.88791453798E+03 -0.55272964504E+03  0.14474278603E+04  0.00000000000E+00 0. -1.
         22    1    1    2    0    0  0.13773660857E+04 -0.12357403543E+04  0.31242323594E+03  0.18766459004E+04  0.00000000000E+00 0.  1.
<mgrwt>
<rscale>  0 0.38393908E+04</rscale>
<asrwt>0</asrwt>
<pdfrwt beam="1">  1        2 0.32726524E+00 0.38393908E+04</pdfrwt>
<pdfrwt beam="2">  1       -2 0.26652507E+00 0.38393908E+04</pdfrwt>
<totfact> 0.23079249E-01</totfact>
</mgrwt>
</event>
<event>
 6    1  0.1001928E-005  0.3206602E+04  0.7818608E-02  0.8187076E-01
         -3   -1    0    0    0  501 -0.00000000000E+00  0.00000000000E+00  0.19556539322E+04  0.19556539322E+04  0.00000000000E+00 0.  1.
          3   -1    0    0  501    0  0.00000000000E+00 -0.00000000000E+00 -0.13144319605E+04  0.13144319605E+04  0.00000000000E+00 0. -1.
         23    2    1    2    0    0 -0.28822731959E+03  0.71247569050E+03 -0.11124950781E+04  0.13553482898E+04  0.92882131739E+02 0.  0.
         11    1    3    3    0    0 -0.12844655702E+02  0.36739122729E+02 -0.10001915282E+03  0.10732464418E+03  0.00000000000E+00 0. -1.
        -11    1    3    3    0    0 -0.27538266389E+03  0.67573656777E+03 -0.10124759253E+04  0.12480236456E+04  0.00000000000E+00 0.  1.
         22    1    1    2    0    0  0.28822731959E+03 -0.71247569050E+03  0.17537170499E+04  0.19147376030E+04  0.00000000000E+00 0.  1.
<mgrwt>
<rscale>  0 0.32066020E+04</rscale>
<asrwt>0</asrwt>
<pdfrwt beam="1">  1        3 0.20222030E+00 0.32066020E+04</pdfrwt>
<pdfrwt beam="2">  1       -3 0.30086984E+00 0.32066020E+04</pdfrwt>
<totfact> 0.11678430E-02</totfact>
</mgrwt>
</event>
<event>
 6    1  0.1001928E-005  0.9421450E+03  0.7818608E-02  0.9374379E-01
          2   -1    0    0  501    0  0.00000000000E+00  0.00000000000E+00  0.77562975190E+03  0.77562975190E+03  0.00000000000E+00 0. -1.
         -2   -1    0    0    0  501 -0.00000000000E+00 -0.00000000000E+00 -0.28610209910E+03  0.28610209910E+03  0.00000000000E+00 0.  1.
         23    2    1    2    0    0 -0.40575574927E+03  0.13572353892E+03  0.36653693946E+02  0.43871224481E+03  0.89812768484E+02 0.  0.
         13    1    3    3    0    0 -0.20775362203E+03  0.11624384414E+03  0.14112550069E+02  0.23848136790E+03  0.00000000000E+00 0. -1.
        -13    1    3    3    0    0 -0.19800212724E+03  0.19479694786E+02  0.22541143877E+02  0.20023087691E+03  0.00000000000E+00 0.  1.
         22    1    1    2    0    0  0.40575574927E+03 -0.13572353892E+03  0.45287395886E+03  0.62301960619E+03  0.00000000000E+00 0. -1.
<mgrwt>
<rscale>  0 0.94214500E+03</rscale>
<asrwt>0</asrwt>
<pdfrwt beam="1">  1        2 0.11932765E+00 0.94214500E+03</pdfrwt>
<pdfrwt beam="2">  1       -2 0.44015708E-01 0.94214500E+03</pdfrwt>
<totfact> 0.17580683E+02</totfact>
</mgrwt>
</event>
<event>
 6    1  0.1001928E-005  0.1514641E+04  0.7818608E-02  0.8874775E-01
          1   -1    0    0  501    0  0.00000000000E+00  0.00000000000E+00  0.14188517446E+04  0.14188517446E+04  0.00000000000E+00 0. -1.
         -1   -1    0    0    0  501 -0.00000000000E+00 -0.00000000000E+00 -0.40422407438E+03  0.40422407438E+03  0.00000000000E+00 0.  1.
         23    2    1    2    0    0 -0.36400332090E+03 -0.92958823136E+01 -0.28543383755E+03  0.47298517202E+03  0.98273426122E+02 0.  0.
         13    1    3    3    0    0 -0.14348696206E+03  0.21436936021E+02 -0.62685941714E+02  0.15804296187E+03  0.00000000000E+00 0. -1.
        -13    1    3    3    0    0 -0.22051635884E+03 -0.30732818335E+02 -0.22274789583E+03  0.31494221015E+03  0.00000000000E+00 0.  1.
         22    1    1    2    0    0  0.36400332090E+03  0.92958823136E+01  0.13000615078E+04  0.13500906470E+04  0.00000000000E+00 0. -1.
<mgrwt>
<rscale>  0 0.15146406E+04</rscale>
<asrwt>0</asrwt>
<pdfrwt beam="1">  1        1 0.21828488E+00 0.15146406E+04</pdfrwt>
<pdfrwt beam="2">  1       -1 0.62188320E-01 0.15146406E+04</pdfrwt>
<totfact> 0.18883107E+01</totfact>
</mgrwt>
</event>
<event>
 6    1  0.1001928E-005  0.1689590E+04  0.7818608E-02  0.8767324E-01
          2   -1    0    0  501    0  0.00000000000E+00  0.00000000000E+00  0.22598503997E+04  0.22598503997E+04  0.00000000000E+00 0. -1.
         -2   -1    0    0    0  501 -0.00000000000E+00 -0.00000000000E+00 -0.31580802058E+03  0.31580802058E+03  0.00000000000E+00 0.  1.
         23    2    1    2    0    0 -0.76779672826E+03 -0.13365861831E+03  0.14625182008E+04  0.16595569104E+04  0.88279152793E+02 0.  0.
         13    1    3    3    0    0 -0.15553197741E+03 -0.63653412834E+02  0.30850741790E+03  0.35131009075E+03  0.00000000000E+00 0. -1.
        -13    1    3    3    0    0 -0.61226475085E+03 -0.70005205478E+02  0.11540107829E+04  0.13082468196E+04  0.00000000000E+00 0.  1.
         22    1    1    2    0    0  0.76779672826E+03  0.13365861831E+03  0.48152417826E+03  0.91610150989E+03  0.00000000000E+00 0.  1.
<mgrwt>
<rscale>  0 0.16895903E+04</rscale>
<asrwt>0</asrwt>
<pdfrwt beam="1">  1        2 0.34766928E+00 0.16895903E+04</pdfrwt>
<pdfrwt beam="2">  1       -2 0.48585851E-01 0.16895903E+04</pdfrwt>
<totfact> 0.18266837E+01</totfact>
</mgrwt>
</event>
<event>
 6    1  0.1001928E-005  0.1584418E+04  0.7818608E-02  0.8830178E-01
          2   -1    0    0  501    0  0.00000000000E+00  0.00000000000E+00  0.27283438599E+04  0.27283438599E+04  0.00000000000E+00 0. -1.
         -2   -1    0    0    0  501 -0.00000000000E+00 -0.00000000000E+00 -0.23002780231E+03  0.23002780231E+03  0.00000000000E+00 0.  1.
         23    2    1    2    0    0  0.57678583535E+03 -0.53010790974E+03  0.10693375841E+04  0.13287472351E+04  0.91597216607E+02 0.  0.
         13    1    3    3    0    0  0.48072474024E+03 -0.39526667178E+03  0.81954782163E+03  0.10290727135E+04  0.00000000000E+00 0. -1.
        -13    1    3    3    0    0  0.96061095107E+02 -0.13484123796E+03  0.24978976249E+03  0.29967452159E+03  0.00000000000E+00 0.  1.
         22    1    1    2    0    0 -0.57678583535E+03  0.53010790974E+03  0.14289784734E+04  0.16296244271E+04  0.00000000000E+00 0. -1.
<mgrwt>
<rscale>  0 0.15844178E+04</rscale>
<asrwt>0</asrwt>
<pdfrwt beam="1">  1        2 0.41974519E+00 0.15844178E+04</pdfrwt>
<pdfrwt beam="2">  1       -2 0.35388894E-01 0.15844178E+04</pdfrwt>
<totfact> 0.18460112E+01</totfact>
</mgrwt>
</event>
<event>
 6    1  0.1001928E-005  0.1349870E+04  0.7818608E-02  0.8990927E-01
          2   -1    0    0  501    0  0.00000000000E+00  0.00000000000E+00  0.37636214980E+04  0.37636214980E+04  0.00000000000E+00 0. -1.
         -2   -1    0    0    0  501 -0.00000000000E+00 -0.00000000000E+00 -0.12103686844E+03  0.12103686844E+03  0.00000000000E+00 0.  1.
         23    2    1    2    0    0  0.63094121242E+03  0.16205376399E+03  0.13577036928E+04  0.15087313619E+04  0.92535230293E+02 0.  0.
         13    1    3    3    0    0  0.18852623690E+03  0.11894068494E+02  0.44382015747E+03  0.48234836274E+03  0.00000000000E+00 0. -1.
        -13    1    3    3    0    0  0.44241497552E+03  0.15015969549E+03  0.91388353537E+03  0.10263829991E+04  0.00000000000E+00 0.  1.
         22    1    1    2    0    0 -0.63094121242E+03 -0.16205376399E+03  0.22848809367E+04  0.23759270045E+04  0.00000000000E+00 0. -1.
<mgrwt>
<rscale>  0 0.13498696E+04</rscale>
<asrwt>0</asrwt>
<pdfrwt beam="1">  1        2 0.57901860E+00 0.13498696E+04</pdfrwt>
<pdfrwt beam="2">  1       -2 0.18621060E-01 0.13498696E+04</pdfrwt>
<totfact> 0.12691469E+01</totfact>
</mgrwt>
</event>
<event>
 6    1  0.1001928E-005  0.8895334E+03  0.7818608E-02  0.9438761E-01
         -2   -1    0    0    0  501 -0.00000000000E+00  0.00000000000E+00  0.65678402946E+02  0.65678402946E+02  0.00000000000E+00 0.  1.
          2   -1    0    0  501    0  0.00000000000E+00 -0.00000000000E+00 -0.30119097613E+04  0.30119097613E+04  0.00000000000E+00 0. -1.
         23    2    1    2    0    0  0.26636870797E+03 -0.24136073738E+03 -0.23659503800E+04  0.23949950878E+04  0.95252170575E+02 0.  0.
         11    1    3    3    0    0  0.11129466966E+03 -0.15571316404E+03 -0.13871658564E+04  0.14003078969E+04  0.00000000000E+00 0.  1.
        -11    1    3    3    0    0  0.15507403831E+03 -0.85647573335E+02 -0.97878452352E+03  0.99468719086E+03  0.00000000000E+00 0. -1.
         22    1    1    2    0    0 -0.26636870797E+03  0.24136073738E+03 -0.58028097841E+03  0.68259307647E+03  0.00000000000E+00 0.  1.
<mgrwt>
<rscale>  0 0.88953341E+03</rscale>
<asrwt>0</asrwt>
<pdfrwt beam="1">  1        2 0.46337069E+00 0.88953341E+03</pdfrwt>
<pdfrwt beam="2">  1       -2 0.10104371E-01 0.88953341E+03</pdfrwt>
<totfact> 0.11999903E+02</totfact>
</mgrwt>
</event>
<event>
 6    1  0.1001928E-005  0.9209667E+03  0.7818608E-02  0.9399745E-01
          1   -1    0    0  501    0  0.00000000000E+00  0.00000000000E+00  0.63543336054E+03  0.63543336054E+03  0.00000000000E+00 0. -1.
         -1   -1    0    0    0  501 -0.00000000000E+00 -0.00000000000E+00 -0.33370124664E+03  0.33370124664E+03  0.00000000000E+00 0.  1.
         23    2    1    2    0    0  0.43512506745E+03  0.67462823135E+02  0.27701263147E+03  0.52811747640E+03  0.91033038272E+02 0.  0.
         11    1    3    3    0    0  0.22357738443E+02  0.22511850036E+02  0.60015013932E+01  0.32290399181E+02  0.00000000000E+00 0.  1.
        -11    1    3    3    0    0  0.41276732901E+03  0.44950973099E+02  0.27101113007E+03  0.49582707722E+03  0.00000000000E+00 0. -1.
         22    1    1    2    0    0 -0.43512506745E+03 -0.67462823135E+02  0.24719482437E+02  0.44101713078E+03  0.00000000000E+00 0.  1.
<mgrwt>
<rscale>  0 0.92096668E+03</rscale>
<asrwt>0</asrwt>
<pdfrwt beam="1">  1        1 0.97758978E-01 0.92096668E+03</pdfrwt>
<pdfrwt beam="2">  1       -1 0.51338653E-01 0.92096668E+03</pdfrwt>
<totfact> 0.12098363E+02</totfact>
</mgrwt>
</event>
<event>
 6    1  0.1001928E-005  0.2978807E+04  0.7818608E-02  0.8249809E-01
          1   -1    0    0  501    0  0.00000000000E+00  0.00000000000E+00  0.17607039532E+04  0.17607039532E+04  0.00000000000E+00 0.  1.
         -1   -1    0    0    0  501 -0.00000000000E+00 -0.00000000000E+00 -0.12599071049E+04  0.12599071049E+04  0.00000000000E+00 0. -1.
         23    2    1    2    0    0 -0.13301920178E+04  0.55304047198E+03 -0.12706830551E+03  0.14491533847E+04  0.92922603051E+02 0.  0.
         13    1    3    3    0    0 -0.90251376642E+03  0.39664543179E+03 -0.12540750035E+03  0.99377348439E+03  0.00000000000E+00 0.  1.
        -13    1    3    3    0    0 -0.42767825140E+03  0.15639504019E+03 -0.16608051639E+01  0.45537990029E+03  0.00000000000E+00 0. -1.
         22    1    1    2    0    0  0.13301920178E+04 -0.55304047198E+03  0.62786515380E+03  0.15714576734E+04  0.00000000000E+00 0. -1.
<mgrwt>
<rscale>  0 0.29788074E+04</rscale>
<asrwt>0</asrwt>
<pdfrwt beam="1">  1        1 0.27087753E+00 0.29788074E+04</pdfrwt>
<pdfrwt beam="2">  1       -1 0.19383186E+00 0.29788074E+04</pdfrwt>
<totfact> 0.61364823E-01</totfact>
</mgrwt>
</event>
<event>
 6    1  0.1001928E-005  0.1279687E+04  0.7818608E-02  0.9045830E-01
          1   -1    0    0  501    0  0.00000000000E+00  0.00000000000E+00  0.71062914812E+03  0.71062914812E+03  0.00000000000E+00 0. -1.
         -1   -1    0    0    0  501 -0.00000000000E+00 -0.00000000000E+00 -0.57610884198E+03  0.57610884198E+03  0.00000000000E+00 0.  1.
         23    2    1    2    0    0 -0.54978639755E+03 -0.22132997953E+03 -0.16325627181E+03  0.62347112590E+03  0.10397880446E+03 0.  0.
         13    1    3    3    0    0 -0.47603936983E+03 -0.15077915630E+03 -0.12797168912E+03  0.51548480949E+03  0.00000000000E+00 0. -1.
        -13    1    3    3    0    0 -0.73747027720E+02 -0.70550823224E+02 -0.35284582694E+02  0.10798631641E+03  0.00000000000E+00 0.  1.
         22    1    1    2    0    0  0.54978639755E+03  0.22132997953E+03  0.29777657795E+03  0.66326686420E+03  0.00000000000E+00 0.  1.
<mgrwt>
<rscale>  0 0.12796870E+04</rscale>
<asrwt>0</asrwt>
<pdfrwt beam="1">  1        1 0.10932756E+00 0.12796870E+04</pdfrwt>
<pdfrwt beam="2">  1       -1 0.88632130E-01 0.12796870E+04</pdfrwt>
<totfact> 0.32749436E+01</totfact>
</mgrwt>
</event>
<event>
 6    1  0.1001928E-005  0.1681387E+04  0.7818608E-02  0.8772052E-01
          2   -1    0    0  501    0  0.00000000000E+00  0.00000000000E+00  0.32264859380E+04  0.32264859380E+04  0.00000000000E+00 0.  1.
         -2   -1    0    0    0  501 -0.00000000000E+00 -0.00000000000E+00 -0.21905109300E+03  0.21905109300E+03  0.00000000000E+00 0. -1.
         23    2    1    2    0    0  0.79292424016E+03  0.23981500057E+03  0.17709621739E+04  0.19572142328E+04  0.90224424336E+02 0.  0.
         11    1    3    3    0    0  0.47964546528E+03  0.18947747379E+03  0.10714694912E+04  0.11891208332E+04  0.00000000000E+00 0. -1.
        -11    1    3    3    0    0  0.31327877488E+03  0.50337526779E+02  0.69949268273E+03  0.76809339965E+03  0.00000000000E+00 0.  1.
         22    1    1    2    0    0 -0.79292424016E+03 -0.23981500057E+03  0.12364726712E+04  0.14883227982E+04  0.00000000000E+00 0. -1.
<mgrwt>
<rscale>  0 0.16813867E+04</rscale>
<asrwt>0</asrwt>
<pdfrwt beam="1">  1        2 0.49638242E+00 0.16813867E+04</pdfrwt>
<pdfrwt beam="2">  1       -2 0.33700170E-01 0.16813867E+04</pdfrwt>
<totfact> 0.98480491E+00</totfact>
</mgrwt>
</event>
<event>
 6    1  0.1001928E-005  0.1782335E+04  0.7818608E-02  0.8715750E-01
         -1   -1    0    0    0  501 -0.00000000000E+00  0.00000000000E+00  0.85309012899E+03  0.85309012899E+03  0.00000000000E+00 0.  1.
          1   -1    0    0  501    0  0.00000000000E+00 -0.00000000000E+00 -0.93094413678E+03  0.93094413678E+03  0.00000000000E+00 0. -1.
         23    2    1    2    0    0  0.29295630889E+03 -0.50413003412E+03  0.63259826721E+03  0.86495161156E+03  0.89388100110E+02 0.  0.
         11    1    3    3    0    0  0.20841067446E+03 -0.40468022415E+03  0.44636249856E+03  0.63752691957E+03  0.00000000000E+00 0. -1.
        -11    1    3    3    0    0  0.84545634432E+02 -0.99449809963E+02  0.18623576865E+03  0.22742469199E+03  0.00000000000E+00 0.  1.
         22    1    1    2    0    0 -0.29295630889E+03  0.50413003412E+03 -0.71045227500E+03  0.91908265421E+03  0.00000000000E+00 0. -1.
<mgrwt>
<rscale>  0 0.17823347E+04</rscale>
<asrwt>0</asrwt>
<pdfrwt beam="1">  1        1 0.14322217E+00 0.17823347E+04</pdfrwt>
<pdfrwt beam="2">  1       -1 0.13124464E+00 0.17823347E+04</pdfrwt>
<totfact> 0.80340767E+00</totfact>
</mgrwt>
</event>
<event>
 6    1  0.1001928E-005  0.1387166E+04  0.7818608E-02  0.8963162E-01
         -2   -1    0    0    0  501 -0.00000000000E+00  0.00000000000E+00  0.18603918862E+03  0.18603918862E+03  0.00000000000E+00 0.  1.
          2   -1    0    0  501    0  0.00000000000E+00 -0.00000000000E+00 -0.25857833749E+04  0.25857833749E+04  0.00000000000E+00 0. -1.
         23    2    1    2    0    0 -0.68002953089E+01 -0.25811806578E+03 -0.24848883540E+04  0.24999389318E+04  0.91396669239E+02 0.  0.
         11    1    3    3    0    0  0.35319685339E+01 -0.71524290185E+02 -0.11240366039E+04  0.11263154468E+04  0.00000000000E+00 0. -1.
        -11    1    3    3    0    0 -0.10332263843E+02 -0.18659377560E+03 -0.13608517502E+04  0.13736234850E+04  0.00000000000E+00 0.  1.
         22    1    1    2    0    0  0.68002953089E+01  0.25811806578E+03  0.85144167689E+02  0.27188363171E+03  0.00000000000E+00 0.  1.
<mgrwt>
<rscale>  0 0.13871655E+04</rscale>
<asrwt>0</asrwt>
<pdfrwt beam="1">  1        2 0.39781279E+00 0.13871655E+04</pdfrwt>
<pdfrwt beam="2">  1       -2 0.28621416E-01 0.13871655E+04</pdfrwt>
<totfact> 0.33983308E+01</totfact>
</mgrwt>
</event>
<event>
 6    1  0.1001928E-005  0.4939283E+04  0.7818608E-02  0.7837942E-01
          2   -1    0    0  501    0  0.00000000000E+00  0.00000000000E+00  0.30703354263E+04  0.30703354263E+04  0.00000000000E+00 0.  1.
         -2   -1    0    0    0  501 -0.00000000000E+00 -0.00000000000E+00 -0.19864696331E+04  0.19864696331E+04  0.00000000000E+00 0. -1.
         23    2    1    2    0    0  0.16615195443E+04  0.18255031570E+04  0.58641152782E+03  0.25387562676E+04  0.91082018843E+02 0.  0.
         13    1    3    3    0    0  0.14059967911E+04  0.15025845429E+04  0.50767430944E+03  0.21195094927E+04  0.00000000000E+00 0. -1.
        -13    1    3    3    0    0  0.25552275314E+03  0.32291861408E+03  0.78737218372E+02  0.41924677488E+03  0.00000000000E+00 0.  1.
         22    1    1    2    0    0 -0.16615195443E+04 -0.18255031570E+04  0.49745426535E+03  0.25180487919E+04  0.00000000000E+00 0. -1.
<mgrwt>
<rscale>  0 0.49392826E+04</rscale>
<asrwt>0</asrwt>
<pdfrwt beam="1">  1        2 0.47235930E+00 0.49392826E+04</pdfrwt>
<pdfrwt beam="2">  1       -2 0.30561071E+00 0.49392826E+04</pdfrwt>
<totfact> 0.33742259E-02</totfact>
</mgrwt>
</event>
<event>
 6    1  0.1001928E-005  0.1415434E+04  0.7818608E-02  0.8942722E-01
          1   -1    0    0  501    0  0.00000000000E+00  0.00000000000E+00  0.11319031486E+04  0.11319031486E+04  0.00000000000E+00 0. -1.
         -1   -1    0    0    0  501 -0.00000000000E+00 -0.00000000000E+00 -0.44249643142E+03  0.44249643142E+03  0.00000000000E+00 0.  1.
         23    2    1    2    0    0 -0.61386370431E+02 -0.50951374700E+03 -0.19134305980E+03  0.55504060766E+03  0.89918656406E+02 0.  0.
         13    1    3    3    0    0 -0.49422888310E+02 -0.38999224983E+03 -0.10433862035E+03  0.40672241703E+03  0.00000000000E+00 0.  1.
        -13    1    3    3    0    0 -0.11963482121E+02 -0.11952149716E+03 -0.87004439451E+02  0.14831819063E+03  0.00000000000E+00 0. -1.
         22    1    1    2    0    0  0.61386370431E+02  0.50951374700E+03  0.88074977698E+03  0.10193589723E+04  0.00000000000E+00 0. -1.
<mgrwt>
<rscale>  0 0.14154336E+04</rscale>
<asrwt>0</asrwt>
<pdfrwt beam="1">  1        1 0.17413895E+00 0.14154336E+04</pdfrwt>
<pdfrwt beam="2">  1       -1 0.68076374E-01 0.14154336E+04</pdfrwt>
<totfact> 0.25529191E+01</totfact>
</mgrwt>
</event>
<event>
 6    1  0.1001928E-005  0.3459832E+04  0.7818608E-02  0.8123376E-01
          1   -1    0    0  501    0  0.00000000000E+00  0.00000000000E+00  0.11810996985E+04  0.11810996985E+04  0.00000000000E+00 0. -1.
         -1   -1    0    0    0  501 -0.00000000000E+00 -0.00000000000E+00 -0.25337477499E+04  0.25337477499E+04  0.00000000000E+00 0.  1.
         23    2    1    2    0    0  0.63198472772E+03  0.15099680244E+04 -0.80260588238E+02  0.16415944519E+04  0.94775798151E+02 0.  0.
         11    1    3    3    0    0  0.41933787098E+03  0.88574370041E+03 -0.60164238489E+02  0.98183801538E+03  0.00000000000E+00 0. -1.
        -11    1    3    3    0    0  0.21264685675E+03  0.62422432397E+03 -0.20096349749E+02  0.65975643656E+03  0.00000000000E+00 0.  1.
         22    1    1    2    0    0 -0.63198472772E+03 -0.15099680244E+04 -0.12723874632E+04  0.20732529964E+04  0.00000000000E+00 0.  1.
<mgrwt>
<rscale>  0 0.34598316E+04</rscale>
<asrwt>0</asrwt>
<pdfrwt beam="1">  1        1 0.18170765E+00 0.34598316E+04</pdfrwt>
<pdfrwt beam="2">  1       -1 0.38980734E+00 0.34598316E+04</pdfrwt>
<totfact> 0.75758388E-02</totfact>
</mgrwt>
</event>
<event>
 6    1  0.1001928E-005  0.2033979E+04  0.7818608E-02  0.8590897E-01
         -2   -1    0    0    0  501 -0.00000000000E+00  0.00000000000E+00  0.36130085067E+03  0.36130085067E+03  0.00000000000E+00 0.  1.
          2   -1    0    0  501    0  0.00000000000E+00 -0.00000000000E+00 -0.28626215232E+04  0.28626215232E+04  0.00000000000E+00 0. -1.
         23    2    1    2    0    0  0.42556294042E+03  0.18595889278E+03 -0.26836236576E+04  0.27250046407E+04  0.90165570644E+02 0.  0.
         11    1    3    3    0    0  0.34694831345E+03  0.13342455372E+03 -0.19298072709E+04  0.19652814929E+04  0.00000000000E+00 0.  1.
        -11    1    3    3    0    0  0.78614626968E+02  0.52534339062E+02 -0.75381638677E+03  0.75972314781E+03  0.00000000000E+00 0. -1.
         22    1    1    2    0    0 -0.42556294042E+03 -0.18595889278E+03  0.18230298511E+03  0.49891773314E+03  0.00000000000E+00 0.  1.
<mgrwt>
<rscale>  0 0.20339789E+04</rscale>
<asrwt>0</asrwt>
<pdfrwt beam="1">  1        2 0.44040330E+00 0.20339789E+04</pdfrwt>
<pdfrwt beam="2">  1       -2 0.55584748E-01 0.20339789E+04</pdfrwt>
<totfact> 0.59776266E+00</totfact>
</mgrwt>
</event>
<event>
 6    1  0.1001928E-005  0.3140540E+04  0.7818608E-02  0.8204699E-01
          2   -1    0    0  501    0  0.00000000000E+00  0.00000000000E+00  0.25463821230E+04  0.25463821230E+04  0.00000000000E+00 0. -1.
         -2   -1    0    0    0  501 -0.00000000000E+00 -0.00000000000E+00 -0.96833359736E+03  0.96833359736E+03  0.00000000000E+00 0.  1.
         23    2    1    2    0    0  0.15064602638E+04 -0.41074840623E+03  0.96087813195E+03  0.18357171871E+04  0.91836957576E+02 0.  0.
         13    1    3    3    0    0  0.10547306650E+04 -0.33044144977E+03  0.67184178384E+03  0.12934526315E+04  0.00000000000E+00 0.  1.
        -13    1    3    3    0    0  0.45172959883E+03 -0.80306956455E+02  0.28903634811E+03  0.54226455559E+03  0.00000000000E+00 0. -1.
         22    1    1    2    0    0 -0.15064602638E+04  0.41074840623E+03  0.61717039365E+03  0.16789985332E+04  0.00000000000E+00 0. -1.
<mgrwt>
<rscale>  0 0.31405397E+04</rscale>
<asrwt>0</asrwt>
<pdfrwt beam="1">  1        2 0.39175109E+00 0.31405397E+04</pdfrwt>
<pdfrwt beam="2">  1       -2 0.14897440E+00 0.31405397E+04</pdfrwt>
<totfact> 0.84443313E-01</totfact>
</mgrwt>
</event>
<event>
 6    1  0.1001928E-005  0.1496267E+04  0.7818608E-02  0.8886939E-01
          1   -1    0    0  501    0  0.00000000000E+00  0.00000000000E+00  0.10115336964E+04  0.10115336964E+04  0.00000000000E+00 0. -1.
         -1   -1    0    0    0  501 -0.00000000000E+00 -0.00000000000E+00 -0.55332191100E+03  0.55332191100E+03  0.00000000000E+00 0.  1.
         23    2    1    2    0    0 -0.22056929265E+03 -0.60781178919E+03  0.61772061991E+03  0.89887583879E+03  0.91175793686E+02 0.  0.
         13    1    3    3    0    0 -0.13665712911E+03 -0.41735679370E+03  0.36171031899E+03  0.56894307189E+03  0.00000000000E+00 0. -1.
        -13    1    3    3    0    0 -0.83912163538E+02 -0.19045499549E+03  0.25601030092E+03  0.32993276690E+03  0.00000000000E+00 0.  1.
         22    1    1    2    0    0  0.22056929265E+03  0.60781178919E+03 -0.15950883450E+03  0.66597976863E+03  0.00000000000E+00 0.  1.
<mgrwt>
<rscale>  0 0.14962670E+04</rscale>
<asrwt>0</asrwt>
<pdfrwt beam="1">  1        1 0.15562057E+00 0.14962670E+04</pdfrwt>
<pdfrwt beam="2">  1       -1 0.85126448E-01 0.14962670E+04</pdfrwt>
<totfact> 0.19575203E+01</totfact>
</mgrwt>
</event>
<event>
 6    1  0.1001928E-005  0.1975661E+04  0.7818608E-02  0.8618085E-01
          1   -1    0    0  501    0  0.00000000000E+00  0.00000000000E+00  0.10085891383E+04  0.10085891383E+04  0.00000000000E+00 0. -1.
         -1   -1    0    0    0  501 -0.00000000000E+00 -0.00000000000E+00 -0.96749937858E+03  0.96749937858E+03  0.00000000000E+00 0.  1.
         23    2    1    2    0    0 -0.43129066104E+03 -0.11304865572E+03  0.89980313687E+03  0.10085244120E+04  0.93188902673E+02 0.  0.
         11    1    3    3    0    0 -0.11708224131E+03 -0.99584024625E+01  0.32218526962E+03  0.34294426511E+03  0.00000000000E+00 0.  1.
        -11    1    3    3    0    0 -0.31420841974E+03 -0.10309025325E+03  0.57761786725E+03  0.66558014688E+03  0.00000000000E+00 0. -1.
         22    1    1    2    0    0  0.43129066104E+03  0.11304865572E+03 -0.85871337718E+03  0.96756410486E+03  0.00000000000E+00 0.  1.
<mgrwt>
<rscale>  0 0.19756613E+04</rscale>
<asrwt>0</asrwt>
<pdfrwt beam="1">  1        1 0.15516756E+00 0.19756613E+04</pdfrwt>
<pdfrwt beam="2">  1       -1 0.14884606E+00 0.19756613E+04</pdfrwt>
<totfact> 0.49342986E+00</totfact>
</mgrwt>
</event>
<event>
 6    1  0.1001928E-005  0.3822076E+04  0.7818608E-02  0.8041434E-01
          2   -1    0    0  501    0  0.00000000000E+00  0.00000000000E+00  0.16933923745E+04  0.16933923745E+04  0.00000000000E+00 0. -1.
         -2   -1    0    0    0  501 -0.00000000000E+00 -0.00000000000E+00 -0.21566568138E+04  0.21566568138E+04  0.00000000000E+00 0.  1.
         23    2    1    2    0    0  0.82091273852E+03 -0.12065852754E+04 -0.14730493272E+04  0.20753911167E+04  0.87339658581E+02 0.  0.
         11    1    3    3    0    0  0.16644918476E+03 -0.18671946074E+03 -0.25795082268E+03  0.35931617699E+03  0.00000000000E+00 0.  1.
        -11    1    3    3    0    0  0.65446355376E+03 -0.10198658146E+04 -0.12150985045E+04  0.17160749397E+04  0.00000000000E+00 0. -1.
         22    1    1    2    0    0 -0.82091273852E+03  0.12065852754E+04  0.10097848880E+04  0.17746580716E+04  0.00000000000E+00 0. -1.
<mgrwt>
<rscale>  0 0.38220760E+04</rscale>
<asrwt>0</asrwt>
<pdfrwt beam="1">  1        2 0.26052190E+00 0.38220760E+04</pdfrwt>
<pdfrwt beam="2">  1       -2 0.33179336E+00 0.38220760E+04</pdfrwt>
<totfact> 0.16012230E-01</totfact>
</mgrwt>
</event>
<event>
 6    1  0.1001928E-005  0.3904063E+04  0.7818608E-02  0.8024185E-01
          2   -1    0    0  501    0  0.00000000000E+00  0.00000000000E+00  0.15787782983E+04  0.15787782983E+04  0.00000000000E+00 0. -1.
         -2   -1    0    0    0  501 -0.00000000000E+00 -0.00000000000E+00 -0.24135286656E+04  0.24135286656E+04  0.00000000000E+00 0.  1.
         23    2    1    2    0    0  0.28756448747E+03 -0.14824521369E+04  0.84553170083E+03  0.17331687430E+04  0.92694994157E+02 0.  0.
         11    1    3    3    0    0  0.52884665566E+02 -0.17090448834E+03  0.74615543275E+02  0.19383655817E+03  0.00000000000E+00 0. -1.
        -11    1    3    3    0    0  0.23467982190E+03 -0.13115476486E+04  0.77091615755E+03  0.15393321848E+04  0.00000000000E+00 0.  1.
         22    1    1    2    0    0 -0.28756448747E+03  0.14824521369E+04 -0.16802820681E+04  0.22591382209E+04  0.00000000000E+00 0.  1.
<mgrwt>
<rscale>  0 0.39040628E+04</rscale>
<asrwt>0</asrwt>
<pdfrwt beam="1">  1        2 0.24288897E+00 0.39040628E+04</pdfrwt>
<pdfrwt beam="2">  1       -2 0.37131210E+00 0.39040628E+04</pdfrwt>
<totfact> 0.10371477E-01</totfact>
</mgrwt>
</event>
<event>
 6    1  0.1001928E-005  0.1757458E+04  0.7818608E-02  0.8729256E-01
         -1   -1    0    0    0  501 -0.00000000000E+00  0.00000000000E+00  0.44987035561E+03  0.44987035561E+03  0.00000000000E+00 0.  1.
          1   -1    0    0  501    0  0.00000000000E+00 -0.00000000000E+00 -0.17164155548E+04  0.17164155548E+04  0.00000000000E+00 0. -1.
         23    2    1    2    0    0  0.79566201162E+02  0.55179484549E+03 -0.14683579252E+04  0.15733805991E+04  0.92968711530E+02 0.  0.
         11    1    3    3    0    0  0.68275838870E+01  0.10932699077E+03 -0.40019662629E+03  0.41491727670E+03  0.00000000000E+00 0.  1.
        -11    1    3    3    0    0  0.72738617275E+02  0.44246785472E+03 -0.10681612989E+04  0.11584633224E+04  0.00000000000E+00 0. -1.
         22    1    1    2    0    0 -0.79566201162E+02 -0.55179484549E+03  0.20181272595E+03  0.59290531135E+03  0.00000000000E+00 0.  1.
<mgrwt>
<rscale>  0 0.17574578E+04</rscale>
<asrwt>0</asrwt>
<pdfrwt beam="1">  1        1 0.26406393E+00 0.17574578E+04</pdfrwt>
<pdfrwt beam="2">  1       -1 0.69210825E-01 0.17574578E+04</pdfrwt>
<totfact> 0.92886832E+00</totfact>
</mgrwt>
</event>
<event>
 6    1  0.1001928E-005  0.3057954E+04  0.7818608E-02  0.8227373E-01
         -1   -1    0    0    0  501 -0.00000000000E+00  0.00000000000E+00  0.96432326215E+03  0.96432326215E+03  0.00000000000E+00 0.  1.
          1   -1    0    0  501    0  0.00000000000E+00 -0.00000000000E+00 -0.24242600599E+04  0.24242600599E+04  0.00000000000E+00 0. -1.
         23    2    1    2    0    0 -0.21409310816E+03  0.14752558078E+04 -0.11003348663E+04  0.18551136919E+04  0.92165255458E+02 0.  0.
         13    1    3    3    0    0 -0.18860095606E+03  0.10031369718E+04 -0.75806704915E+03  0.12714243020E+04  0.00000000000E+00 0. -1.
        -13    1    3    3    0    0 -0.25492152097E+02  0.47211883604E+03 -0.34226781716E+03  0.58368938985E+03  0.00000000000E+00 0.  1.
         22    1    1    2    0    0  0.21409310816E+03 -0.14752558078E+04 -0.35960193143E+03  0.15334696302E+04  0.00000000000E+00 0.  1.
<mgrwt>
<rscale>  0 0.30579538E+04</rscale>
<asrwt>0</asrwt>
<pdfrwt beam="1">  1        1 0.37296308E+00 0.30579538E+04</pdfrwt>
<pdfrwt beam="2">  1       -1 0.14835743E+00 0.30579538E+04</pdfrwt>
<totfact> 0.46511041E-01</totfact>
</mgrwt>
</event>
<event>
 6    1  0.1001928E-005  0.4519854E+04  0.7818608E-02  0.7907170E-01
         -1   -1    0    0    0  501 -0.00000000000E+00  0.00000000000E+00  0.26854042805E+04  0.26854042805E+04  0.00000000000E+00 0.  1.
          1   -1    0    0  501    0  0.00000000000E+00 -0.00000000000E+00 -0.19018623614E+04  0.19018623614E+04  0.00000000000E+00 0. -1.
         23    2    1    2    0    0  0.10122370475E+04 -0.16655452006E+04  0.15510921093E+04  0.24925595144E+04  0.91112817424E+02 0.  0.
         11    1    3    3    0    0  0.87387605924E+03 -0.14069537180E+04  0.12806330915E+04  0.20936091437E+04  0.00000000000E+00 0. -1.
        -11    1    3    3    0    0  0.13836098827E+03 -0.25859148263E+03  0.27045901778E+03  0.39895037068E+03  0.00000000000E+00 0.  1.
         22    1    1    2    0    0 -0.10122370475E+04  0.16655452006E+04 -0.76755019027E+03  0.20947071276E+04  0.00000000000E+00 0. -1.
<mgrwt>
<rscale>  0 0.45198537E+04</rscale>
<asrwt>0</asrwt>
<pdfrwt beam="1">  1        1 0.29259421E+00 0.45198537E+04</pdfrwt>
<pdfrwt beam="2">  1       -1 0.41313912E+00 0.45198537E+04</pdfrwt>
<totfact> 0.15150910E-02</totfact>
</mgrwt>
</event>
<event>
 6    1  0.1001928E-005  0.1714419E+04  0.7818608E-02  0.8753183E-01
         -1   -1    0    0    0  501 -0.00000000000E+00  0.00000000000E+00  0.10748706806E+04  0.10748706806E+04  0.00000000000E+00 0.  1.
          1   -1    0    0  501    0  0.00000000000E+00 -0.00000000000E+00 -0.68362495901E+03  0.68362495901E+03  0.00000000000E+00 0. -1.
         23    2    1    2    0    0  0.57627932779E+03 -0.35647237047E+03 -0.33806977552E+03  0.76296989466E+03  0.93067032227E+02 0.  0.
         11    1    3    3    0    0  0.30414934721E+03 -0.17273176863E+03 -0.22406427578E+03  0.41538884071E+03  0.00000000000E+00 0. -1.
        -11    1    3    3    0    0  0.27212998058E+03 -0.18374060184E+03 -0.11400549973E+03  0.34758105395E+03  0.00000000000E+00 0.  1.
         22    1    1    2    0    0 -0.57627932779E+03  0.35647237047E+03  0.72931549710E+03  0.99552574495E+03  0.00000000000E+00 0.  1.
<mgrwt>
<rscale>  0 0.17144193E+04</rscale>
<asrwt>0</asrwt>
<pdfrwt beam="1">  1        1 0.10517307E+00 0.17144193E+04</pdfrwt>
<pdfrwt beam="2">  1       -1 0.16536472E+00 0.17144193E+04</pdfrwt>
<totfact> 0.71479549E+00</totfact>
</mgrwt>
</event>
<event>
 6    1  0.1001928E-005  0.1457218E+04  0.7818608E-02  0.8913412E-01
         -2   -1    0    0    0  501 -0.00000000000E+00  0.00000000000E+00  0.13155392454E+03  0.13155392454E+03  0.00000000000E+00 0.  1.
          2   -1    0    0  501    0  0.00000000000E+00 -0.00000000000E+00 -0.40353851557E+04  0.40353851557E+04  0.00000000000E+00 0. -1.
         23    2    1    2    0    0  0.65166442462E+03 -0.19068774311E+03 -0.12266499789E+04  0.14049963229E+04  0.91192975462E+02 0.  0.
         13    1    3    3    0    0  0.20469170647E+03 -0.17413622966E+02 -0.35000256698E+03  0.40583706811E+03  0.00000000000E+00 0. -1.
        -13    1    3    3    0    0  0.44697271816E+03 -0.17327412014E+03 -0.87664741194E+03  0.99915925475E+03  0.00000000000E+00 0.  1.
         22    1    1    2    0    0 -0.65166442462E+03  0.19068774311E+03 -0.26771812523E+04  0.27619427574E+04  0.00000000000E+00 0. -1.
<mgrwt>
<rscale>  0 0.14572176E+04</rscale>
<asrwt>0</asrwt>
<pdfrwt beam="1">  1        2 0.62082842E+00 0.14572176E+04</pdfrwt>
<pdfrwt beam="2">  1       -2 0.20239067E-01 0.14572176E+04</pdfrwt>
<totfact> 0.66690882E+00</totfact>
</mgrwt>
</event>
<event>
 6    1  0.1001928E-005  0.1523177E+04  0.7818608E-02  0.8869185E-01
         -2   -1    0    0    0  501 -0.00000000000E+00  0.00000000000E+00  0.34080070287E+03  0.34080070287E+03  0.00000000000E+00 0.  1.
          2   -1    0    0  501    0  0.00000000000E+00 -0.00000000000E+00 -0.17019243747E+04  0.17019243747E+04  0.00000000000E+00 0. -1.
         23    2    1    2    0    0  0.67095530222E+03 -0.19322538772E+03 -0.10856638093E+04  0.12921285122E+04  0.58421890005E+02 0.  0.
         13    1    3    3    0    0  0.12485607076E+03 -0.38291160832E+02 -0.16349499160E+03  0.20925071967E+03  0.00000000000E+00 0.  1.
        -13    1    3    3    0    0  0.54609923146E+03 -0.15493422689E+03 -0.92216881769E+03  0.10828777925E+04  0.00000000000E+00 0. -1.
         22    1    1    2    0    0 -0.67095530222E+03  0.19322538772E+03 -0.27545986253E+03  0.75059656534E+03  0.00000000000E+00 0. -1.
<mgrwt>
<rscale>  0 0.15231770E+04</rscale>
<asrwt>0</asrwt>
<pdfrwt beam="1">  1        2 0.26183452E+00 0.15231770E+04</pdfrwt>
<pdfrwt beam="2">  1       -2 0.52430877E-01 0.15231770E+04</pdfrwt>
<totfact> 0.32387345E+01</totfact>
</mgrwt>
</event>
<event>
 6    1  0.1001928E-005  0.1216179E+04  0.7818608E-02  0.9098812E-01
          2   -1    0    0  501    0  0.00000000000E+00  0.00000000000E+00  0.70811546406E+03  0.70811546406E+03  0.00000000000E+00 0. -1.
         -2   -1    0    0    0  501 -0.00000000000E+00 -0.00000000000E+00 -0.52219308994E+03  0.52219308994E+03  0.00000000000E+00 0.  1.
         23    2    1    2    0    0  0.13004223995E+03 -0.39067470246E+03  0.54130283560E+03  0.68640325001E+03  0.92752113079E+02 0.  0.
         13    1    3    3    0    0 -0.10258474993E+01 -0.13035094179E+03  0.17843061938E+03  0.22097489975E+03  0.00000000000E+00 0. -1.
        -13    1    3    3    0    0  0.13106808745E+03 -0.26032376067E+03  0.36287221622E+03  0.46542835025E+03  0.00000000000E+00 0.  1.
         22    1    1    2    0    0 -0.13004223995E+03  0.39067470246E+03 -0.35538046147E+03  0.54390530399E+03  0.00000000000E+00 0.  1.
<mgrwt>
<rscale>  0 0.12161793E+04</rscale>
<asrwt>0</asrwt>
<pdfrwt beam="1">  1        2 0.10894084E+00 0.12161793E+04</pdfrwt>
<pdfrwt beam="2">  1       -2 0.80337398E-01 0.12161793E+04</pdfrwt>
<totfact> 0.54523509E+01</totfact>
</mgrwt>
</event>
<event>
 6    1  0.1001928E-005  0.5979782E+03  0.7818608E-02  0.9909609E-01
          1   -1    0    0  501    0  0.00000000000E+00  0.00000000000E+00  0.27190126895E+04  0.27190126895E+04  0.00000000000E+00 0. -1.
         -1   -1    0    0    0  501 -0.00000000000E+00 -0.00000000000E+00 -0.32877555197E+02  0.32877555197E+02  0.00000000000E+00 0.  1.
         23    2    1    2    0    0 -0.23547703256E+03  0.17228446793E+03  0.14101068198E+04  0.14429289656E+04  0.92257171994E+02 0.  0.
         11    1    3    3    0    0 -0.56815740419E+02  0.95837280578E+02  0.48509140548E+03  0.49772129187E+03  0.00000000000E+00 0.  1.
        -11    1    3    3    0    0 -0.17866129214E+03  0.76447187348E+02  0.92501541432E+03  0.94520767374E+03  0.00000000000E+00 0. -1.
         22    1    1    2    0    0  0.23547703256E+03 -0.17228446793E+03  0.12760283145E+04  0.13089612791E+04  0.00000000000E+00 0. -1.
<mgrwt>
<rscale>  0 0.59797823E+03</rscale>
<asrwt>0</asrwt>
<pdfrwt beam="1">  1        1 0.41830947E+00 0.59797823E+03</pdfrwt>
<pdfrwt beam="2">  1       -1 0.50580876E-02 0.59797823E+03</pdfrwt>
<totfact> 0.18506262E+02</totfact>
</mgrwt>
</event>
<event>
 6    1  0.1001928E-005  0.1360303E+04  0.7818608E-02  0.8983065E-01
          2   -1    0    0  501    0  0.00000000000E+00  0.00000000000E+00  0.97315240736E+03  0.97315240736E+03  0.00000000000E+00 0. -1.
         -2   -1    0    0    0  501 -0.00000000000E+00 -0.00000000000E+00 -0.47536889916E+03  0.47536889916E+03  0.00000000000E+00 0.  1.
         23    2    1    2    0    0  0.56505718234E+03 -0.34512807381E+03  0.99813205252E+02  0.67600375418E+03  0.92819141768E+02 0.  0.
         13    1    3    3    0    0  0.42729396859E+03 -0.21459101365E+03  0.57899877796E+02  0.48164492584E+03  0.00000000000E+00 0.  1.
        -13    1    3    3    0    0  0.13776321374E+03 -0.13053706016E+03  0.41913327456E+02  0.19435882834E+03  0.00000000000E+00 0. -1.
         22    1    1    2    0    0 -0.56505718234E+03  0.34512807381E+03  0.39797030296E+03  0.77251755234E+03  0.00000000000E+00 0.  1.
<mgrwt>
<rscale>  0 0.13603035E+04</rscale>
<asrwt>0</asrwt>
<pdfrwt beam="1">  1        2 0.14971575E+00 0.13603035E+04</pdfrwt>
<pdfrwt beam="2">  1       -2 0.73133677E-01 0.13603035E+04</pdfrwt>
<totfact> 0.43217968E+01</totfact>
</mgrwt>
</event>
<event>
 6    1  0.1001928E-005  0.2539879E+04  0.7818608E-02  0.8388915E-01
         -1   -1    0    0    0  501 -0.00000000000E+00  0.00000000000E+00  0.84376489536E+03  0.84376489536E+03  0.00000000000E+00 0.  1.
          1   -1    0    0  501    0  0.00000000000E+00 -0.00000000000E+00 -0.19113697337E+04  0.19113697337E+04  0.00000000000E+00 0. -1.
         23    2    1    2    0    0  0.11337457522E+04 -0.34948153858E+03 -0.10210046929E+04  0.15678316559E+04  0.90159535825E+02 0.  0.
         13    1    3    3    0    0  0.83528312593E+03 -0.22976214360E+03 -0.70423740300E+03  0.11164402639E+04  0.00000000000E+00 0. -1.
        -13    1    3    3    0    0  0.29846262624E+03 -0.11971939498E+03 -0.31676728995E+03  0.45139139200E+03  0.00000000000E+00 0.  1.
         22    1    1    2    0    0 -0.11337457522E+04  0.34948153858E+03 -0.46600145349E+02  0.11873029731E+04  0.00000000000E+00 0.  1.
<mgrwt>
<rscale>  0 0.25398793E+04</rscale>
<asrwt>0</asrwt>
<pdfrwt beam="1">  1        1 0.29405688E+00 0.25398793E+04</pdfrwt>
<pdfrwt beam="2">  1       -1 0.12980998E+00 0.25398793E+04</pdfrwt>
<totfact> 0.15422995E+00</totfact>
</mgrwt>
</event>
<event>
 6    1  0.1001928E-005  0.3765569E+04  0.7818608E-02  0.8053584E-01
          2   -1    0    0  501    0  0.00000000000E+00  0.00000000000E+00  0.21573313460E+04  0.21573313460E+04  0.00000000000E+00 0.  1.
         -2   -1    0    0    0  501 -0.00000000000E+00 -0.00000000000E+00 -0.16431769747E+04  0.16431769747E+04  0.00000000000E+00 0. -1.
         23    2    1    2    0    0  0.76137214676E+03  0.68325421634E+03 -0.13366965794E+04  0.16857570087E+04  0.92168741771E+02 0.  0.
         13    1    3    3    0    0  0.33249225079E+03  0.31829313938E+03 -0.53044496306E+03  0.70230582957E+03  0.00000000000E+00 0. -1.
        -13    1    3    3    0    0  0.42887989597E+03  0.36496107696E+03 -0.80625161633E+03  0.98345117911E+03  0.00000000000E+00 0.  1.
         22    1    1    2    0    0 -0.76137214676E+03 -0.68325421634E+03  0.18508509506E+04  0.21147513120E+04  0.00000000000E+00 0.  1.
<mgrwt>
<rscale>  0 0.37655689E+04</rscale>
<asrwt>0</asrwt>
<pdfrwt beam="1">  1        2 0.33189713E+00 0.37655689E+04</pdfrwt>
<pdfrwt beam="2">  1       -2 0.25279646E+00 0.37655689E+04</pdfrwt>
<totfact> 0.27104122E-01</totfact>
</mgrwt>
</event>
<event>
 6    1  0.1001928E-005  0.8268778E+03  0.7818608E-02  0.9521907E-01
         -1   -1    0    0    0  501 -0.00000000000E+00  0.00000000000E+00  0.13583671034E+03  0.13583671034E+03  0.00000000000E+00 0.  1.
          1   -1    0    0  501    0  0.00000000000E+00 -0.00000000000E+00 -0.12583618337E+04  0.12583618337E+04  0.00000000000E+00 0. -1.
         23    2    1    2    0    0  0.40473226698E+03 -0.35127775882E+02 -0.63758651087E+03  0.76157889018E+03  0.91889491022E+02 0.  0.
         13    1    3    3    0    0  0.27608096632E+03 -0.53528365122E+02 -0.37648781536E+03  0.46992452687E+03  0.00000000000E+00 0. -1.
        -13    1    3    3    0    0  0.12865130066E+03  0.18400589240E+02 -0.26109869551E+03  0.29165436332E+03  0.00000000000E+00 0.  1.
         22    1    1    2    0    0 -0.40473226698E+03  0.35127775882E+02 -0.48493861251E+03  0.63261965388E+03  0.00000000000E+00 0.  1.
<mgrwt>
<rscale>  0 0.82687782E+03</rscale>
<asrwt>0</asrwt>
<pdfrwt beam="1">  1        1 0.19359413E+00 0.82687782E+03</pdfrwt>
<pdfrwt beam="2">  1       -1 0.20897955E-01 0.82687782E+03</pdfrwt>
<totfact> 0.18603996E+02</totfact>
</mgrwt>
</event>
<event>
 6    1  0.1001928E-005  0.3209140E+04  0.7818608E-02  0.8186407E-01
          2   -1    0    0  501    0  0.00000000000E+00  0.00000000000E+00  0.40770532369E+04  0.40770532369E+04  0.00000000000E+00 0. -1.
         -2   -1    0    0    0  501 -0.00000000000E+00 -0.00000000000E+00 -0.63149668064E+03  0.63149668064E+03  0.00000000000E+00 0.  1.
         23    2    1    2    0    0 -0.11462197232E+04 -0.58043709222E+03  0.31313993638E+04  0.33858928897E+04  0.88779577425E+02 0.  0.
         13    1    3    3    0    0 -0.18687279319E+03 -0.69235703495E+02  0.54758239559E+03  0.58271906047E+03  0.00000000000E+00 0.  1.
        -13    1    3    3    0    0 -0.95934692996E+03 -0.51120138872E+03  0.25838169682E+04  0.28031738292E+04  0.00000000000E+00 0. -1.
         22    1    1    2    0    0  0.11462197232E+04  0.58043709222E+03  0.31415719252E+03  0.13226570279E+04  0.00000000000E+00 0.  1.
<mgrwt>
<rscale>  0 0.32091404E+04</rscale>
<asrwt>0</asrwt>
<pdfrwt beam="1">  1        2 0.62723894E+00 0.32091404E+04</pdfrwt>
<pdfrwt beam="2">  1       -2 0.97153338E-01 0.32091404E+04</pdfrwt>
<totfact> 0.21966066E-01</totfact>
</mgrwt>
</event>
<event>
 6    1  0.1001928E-005  0.2404271E+04  0.7818608E-02  0.8437906E-01
         -2   -1    0    0    0  501 -0.00000000000E+00  0.00000000000E+00  0.12451017459E+04  0.12451017459E+04  0.00000000000E+00 0.  1.
          2   -1    0    0  501    0  0.00000000000E+00 -0.00000000000E+00 -0.11606523545E+04  0.11606523545E+04  0.00000000000E+00 0. -1.
         23    2    1    2    0    0 -0.57878640829E+03  0.27499763660E+03  0.10579359605E+04  0.12402956040E+04  0.92126446149E+02 0.  0.
         13    1    3    3    0    0 -0.15338686003E+03  0.37404808252E+02  0.21631934458E+03  0.26780722050E+03  0.00000000000E+00 0.  1.
        -13    1    3    3    0    0 -0.42539954826E+03  0.23759282835E+03  0.84161661595E+03  0.97248838347E+03  0.00000000000E+00 0. -1.
         22    1    1    2    0    0  0.57878640829E+03 -0.27499763660E+03 -0.97348656911E+03  0.11654584964E+04  0.00000000000E+00 0. -1.
<mgrwt>
<rscale>  0 0.24042714E+04</rscale>
<asrwt>0</asrwt>
<pdfrwt beam="1">  1        2 0.17856190E+00 0.24042714E+04</pdfrwt>
<pdfrwt beam="2">  1       -2 0.19155412E+00 0.24042714E+04</pdfrwt>
<totfact> 0.27208178E+00</totfact>
</mgrwt>
</event>
<event>
 6    1  0.1001928E-005  0.1310772E+04  0.7818608E-02  0.9021066E-01
         -1   -1    0    0    0  501 -0.00000000000E+00  0.00000000000E+00  0.65401809911E+03  0.65401809911E+03  0.00000000000E+00 0.  1.
          1   -1    0    0  501    0  0.00000000000E+00 -0.00000000000E+00 -0.65675674137E+03  0.65675674137E+03  0.00000000000E+00 0. -1.
         23    2    1    2    0    0  0.23685547657E+03  0.24670714898E+02 -0.60853226804E+03  0.65985619887E+03  0.91594328329E+02 0.  0.
         11    1    3    3    0    0  0.10918217679E+03 -0.33480036217E+02 -0.29667518472E+03  0.31789593546E+03  0.00000000000E+00 0.  1.
        -11    1    3    3    0    0  0.12767329978E+03  0.58150751115E+02 -0.31185708332E+03  0.34196026341E+03  0.00000000000E+00 0. -1.
         22    1    1    2    0    0 -0.23685547657E+03 -0.24670714898E+02  0.60579362578E+03  0.65091864160E+03  0.00000000000E+00 0.  1.
<mgrwt>
<rscale>  0 0.13107720E+04</rscale>
<asrwt>0</asrwt>
<pdfrwt beam="1">  1        1 0.10103950E+00 0.13107720E+04</pdfrwt>
<pdfrwt beam="2">  1       -1 0.10061817E+00 0.13107720E+04</pdfrwt>
<totfact> 0.27682949E+01</totfact>
</mgrwt>
</event>
<event>
 6    1  0.1001928E-005  0.1893618E+04  0.7818608E-02  0.8658040E-01
          2   -1    0    0  501    0  0.00000000000E+00  0.00000000000E+00  0.15750784141E+04  0.15750784141E+04  0.00000000000E+00 0. -1.
         -2   -1    0    0    0  501 -0.00000000000E+00 -0.00000000000E+00 -0.56914465245E+03  0.56914465245E+03  0.00000000000E+00 0.  1.
         23    2    1    2    0    0  0.69144880943E+03 -0.31160726164E+03  0.11415410642E+04  0.13737752214E+04  0.94561176183E+02 0.  0.
         13    1    3    3    0    0  0.20349413964E+03 -0.13954059016E+03  0.38126123400E+03  0.45413827159E+03  0.00000000000E+00 0. -1.
        -13    1    3    3    0    0  0.48795466979E+03 -0.17206667148E+03  0.76027983021E+03  0.91963694979E+03  0.00000000000E+00 0.  1.
         22    1    1    2    0    0 -0.69144880943E+03  0.31160726164E+03 -0.13560730258E+03  0.77044784514E+03  0.00000000000E+00 0. -1.
<mgrwt>
<rscale>  0 0.18936182E+04</rscale>
<asrwt>0</asrwt>
<pdfrwt beam="1">  1        2 0.24231975E+00 0.18936182E+04</pdfrwt>
<pdfrwt beam="2">  1       -2 0.87560716E-01 0.18936182E+04</pdfrwt>
<totfact> 0.12149353E+01</totfact>
</mgrwt>
</event>
<event>
 6    1  0.1001928E-005  0.3197080E+04  0.7818608E-02  0.8189589E-01
         -2   -1    0    0    0  501 -0.00000000000E+00  0.00000000000E+00  0.11280581680E+04  0.11280581680E+04  0.00000000000E+00 0.  1.
          2   -1    0    0  501    0  0.00000000000E+00 -0.00000000000E+00 -0.22652461005E+04  0.22652461005E+04  0.00000000000E+00 0. -1.
         23    2    1    2    0    0  0.37738472081E+03 -0.14510428714E+04 -0.11536120593E+04  0.18938995886E+04  0.89945685274E+02 0.  0.
         13    1    3    3    0    0  0.32633221983E+03 -0.11836620216E+04 -0.90583231645E+03  0.15258049300E+04  0.00000000000E+00 0. -1.
        -13    1    3    3    0    0  0.51052500977E+02 -0.26738084978E+03 -0.24777974287E+03  0.36809465856E+03  0.00000000000E+00 0.  1.
         22    1    1    2    0    0 -0.37738472081E+03  0.14510428714E+04  0.16424126820E+02  0.14994046799E+04  0.00000000000E+00 0.  1.
<mgrwt>
<rscale>  0 0.31970795E+04</rscale>
<asrwt>0</asrwt>
<pdfrwt beam="1">  1        2 0.34849940E+00 0.31970795E+04</pdfrwt>
<pdfrwt beam="2">  1       -2 0.17354741E+00 0.31970795E+04</pdfrwt>
<totfact> 0.80375691E-01</totfact>
</mgrwt>
</event>
<event>
 6    1  0.1001928E-005  0.1939044E+04  0.7818608E-02  0.8635662E-01
         -1   -1    0    0    0  501 -0.00000000000E+00  0.00000000000E+00  0.37379523347E+03  0.37379523347E+03  0.00000000000E+00 0.  1.
          1   -1    0    0  501    0  0.00000000000E+00 -0.00000000000E+00 -0.25146726800E+04  0.25146726800E+04  0.00000000000E+00 0. -1.
         23    2    1    2    0    0 -0.64910519841E+03  0.51488715065E+03 -0.32931819586E+03  0.89643547016E+03  0.93272405034E+02 0.  0.
         11    1    3    3    0    0 -0.20286634134E+03  0.18872535928E+03 -0.15158673217E+03  0.31583310633E+03  0.00000000000E+00 0.  1.
        -11    1    3    3    0    0 -0.44623885706E+03  0.32616179137E+03 -0.17773146370E+03  0.58060236384E+03  0.00000000000E+00 0. -1.
         22    1    1    2    0    0  0.64910519841E+03 -0.51488715065E+03 -0.18115592507E+04  0.19920324433E+04  0.00000000000E+00 0. -1.
<mgrwt>
<rscale>  0 0.19390437E+04</rscale>
<asrwt>0</asrwt>
<pdfrwt beam="1">  1        1 0.38687271E+00 0.19390437E+04</pdfrwt>
<pdfrwt beam="2">  1       -1 0.57506960E-01 0.19390437E+04</pdfrwt>
<totfact> 0.37817389E+00</totfact>
</mgrwt>
</event>
<event>
 6    1  0.1001928E-005  0.4087266E+04  0.7818608E-02  0.7987170E-01
          2   -1    0    0  501    0  0.00000000000E+00  0.00000000000E+00  0.16529575904E+04  0.16529575904E+04  0.00000000000E+00 0.  1.
         -2   -1    0    0    0  501 -0.00000000000E+00 -0.00000000000E+00 -0.25266445998E+04  0.25266445998E+04  0.00000000000E+00 0. -1.
         23    2    1    2    0    0  0.88872749661E+03 -0.17715837661E+04  0.68009687400E+02  0.19852598577E+04  0.91026267757E+02 0.  0.
         13    1    3    3    0    0  0.66927586280E+03 -0.13261472651E+04  0.90253012701E+02  0.14882010467E+04  0.00000000000E+00 0. -1.
        -13    1    3    3    0    0  0.21945163381E+03 -0.44543650099E+03 -0.22243325301E+02  0.49705881092E+03  0.00000000000E+00 0.  1.
         22    1    1    2    0    0 -0.88872749661E+03  0.17715837661E+04 -0.94169669685E+03  0.21943423325E+04  0.00000000000E+00 0. -1.
<mgrwt>
<rscale>  0 0.40872663E+04</rscale>
<asrwt>0</asrwt>
<pdfrwt beam="1">  1        2 0.25430117E+00 0.40872663E+04</pdfrwt>
<pdfrwt beam="2">  1       -2 0.38871455E+00 0.40872663E+04</pdfrwt>
<totfact> 0.71721699E-02</totfact>
</mgrwt>
</event>
<event>
 6    1  0.1001928E-005  0.8636067E+04  0.7818608E-02  0.7428825E-01
          1   -1    0    0  501    0  0.00000000000E+00  0.00000000000E+00  0.40022855989E+04  0.40022855989E+04  0.00000000000E+00 0. -1.
         -1   -1    0    0    0  501 -0.00000000000E+00 -0.00000000000E+00 -0.46586915429E+04  0.46586915429E+04  0.00000000000E+00 0.  1.
         23    2    1    2    0    0 -0.33058218573E+04  0.27484984436E+04  0.71183357997E+02  0.43006918256E+04  0.90450329926E+02 0.  0.
         11    1    3    3    0    0 -0.15482477839E+04  0.13452550337E+04  0.41043822636E+02  0.20514548256E+04  0.00000000000E+00 0. -1.
        -11    1    3    3    0    0 -0.17575740734E+04  0.14032434099E+04  0.30139535361E+02  0.22492370001E+04  0.00000000000E+00 0.  1.
         22    1    1    2    0    0  0.33058218573E+04 -0.27484984436E+04 -0.72758930198E+03  0.43602853162E+04  0.00000000000E+00 0. -1.
<mgrwt>
<rscale>  0 0.86360672E+04</rscale>
<asrwt>0</asrwt>
<pdfrwt beam="1">  1        1 0.61573625E+00 0.86360672E+04</pdfrwt>
<pdfrwt beam="2">  1       -1 0.71672177E+00 0.86360672E+04</pdfrwt>
<totfact> 0.94352685E-06</totfact>
</mgrwt>
</event>
<event>
 6    1  0.1235060E-005  0.2570091E+04  0.7818608E-02  0.8378432E-01
          1   -1    0    0  501    0  0.00000000000E+00  0.00000000000E+00  0.94438639196E+03  0.94438639196E+03  0.00000000000E+00 0. -1.
         -1   -1    0    0    0  501 -0.00000000000E+00 -0.00000000000E+00 -0.17485867444E+04  0.17485867444E+04  0.00000000000E+00 0.  1.
         23    2    1    2    0    0  0.83866950621E+03 -0.11413851086E+03 -0.14136634287E+04  0.16499777473E+04  0.87109909860E+02 0.  0.
         13    1    3    3    0    0  0.57932484729E+03 -0.89362777288E+02 -0.10513904231E+04  0.12037544627E+04  0.00000000000E+00 0.  1.
        -13    1    3    3    0    0  0.25934465892E+03 -0.24775733573E+02 -0.36227300569E+03  0.44622328462E+03  0.00000000000E+00 0. -1.
         22    1    1    2    0    0 -0.83866950621E+03  0.11413851086E+03  0.60946307629E+03  0.10429953891E+04  0.00000000000E+00 0. -1.
<mgrwt>
<rscale>  0 0.25700907E+04</rscale>
<asrwt>0</asrwt>
<pdfrwt beam="1">  1        1 0.14529022E+00 0.25700907E+04</pdfrwt>
<pdfrwt beam="2">  1       -1 0.26901334E+00 0.25700907E+04</pdfrwt>
<totfact> 0.77542140E-01</totfact>
</mgrwt>
</event>
<event>
 6    1  0.1001928E-005  0.1017591E+04  0.7818608E-02  0.9289459E-01
         -2   -1    0    0    0  501 -0.00000000000E+00  0.00000000000E+00  0.36253937898E+03  0.36253937898E+03  0.00000000000E+00 0. -1.
          2   -1    0    0  501    0  0.00000000000E+00 -0.00000000000E+00 -0.71405466441E+03  0.71405466441E+03  0.00000000000E+00 0.  1.
         23    2    1    2    0    0 -0.41685476845E+03 -0.26970769318E+03 -0.27348743949E+03  0.57400227816E+03  0.90405188053E+02 0.  0.
         13    1    3    3    0    0 -0.33579769094E+03 -0.18608090846E+03 -0.24025959976E+03  0.45289167470E+03  0.00000000000E+00 0. -1.
        -13    1    3    3    0    0 -0.81057077509E+02 -0.83626784715E+02 -0.33227839738E+02  0.12111060346E+03  0.00000000000E+00 0.  1.
         22    1    1    2    0    0  0.41685476845E+03  0.26970769318E+03 -0.78027845930E+02  0.50259176524E+03  0.00000000000E+00 0. -1.
<mgrwt>
<rscale>  0 0.10175911E+04</rscale>
<asrwt>0</asrwt>
<pdfrwt beam="1">  1        2 0.10985456E+00 0.10175911E+04</pdfrwt>
<pdfrwt beam="2">  1       -2 0.55775289E-01 0.10175911E+04</pdfrwt>
<totfact> 0.12036692E+02</totfact>
</mgrwt>
</event>
<event>
 6    1  0.1001928E-005  0.1835604E+04  0.7818608E-02  0.8687592E-01
         -1   -1    0    0    0  501 -0.00000000000E+00  0.00000000000E+00  0.76700349630E+03  0.76700349630E+03  0.00000000000E+00 0.  1.
          1   -1    0    0  501    0  0.00000000000E+00 -0.00000000000E+00 -0.10982485516E+04  0.10982485516E+04  0.00000000000E+00 0. -1.
         23    2    1    2    0    0 -0.64923034442E+03  0.16954807286E+03 -0.79863239286E+03  0.10475127787E+04  0.96035064396E+02 0.  0.
         11    1    3    3    0    0 -0.50263599651E+03  0.15488514849E+03 -0.67116006402E+03  0.85269466149E+03  0.00000000000E+00 0. -1.
        -11    1    3    3    0    0 -0.14659434791E+03  0.14662924373E+02 -0.12747232884E+03  0.19481811725E+03  0.00000000000E+00 0.  1.
         22    1    1    2    0    0  0.64923034442E+03 -0.16954807286E+03  0.46738733751E+03  0.81773926920E+03  0.00000000000E+00 0.  1.
<mgrwt>
<rscale>  0 0.18356040E+04</rscale>
<asrwt>0</asrwt>
<pdfrwt beam="1">  1        1 0.16896131E+00 0.18356040E+04</pdfrwt>
<pdfrwt beam="2">  1       -1 0.11800054E+00 0.18356040E+04</pdfrwt>
<totfact> 0.77181303E+00</totfact>
</mgrwt>
</event>
<event>
 6    1  0.1001928E-005  0.3760339E+04  0.7818608E-02  0.8054720E-01
         -2   -1    0    0    0  501 -0.00000000000E+00  0.00000000000E+00  0.16208764710E+04  0.16208764710E+04  0.00000000000E+00 0.  1.
          2   -1    0    0  501    0  0.00000000000E+00 -0.00000000000E+00 -0.21809422263E+04  0.21809422263E+04  0.00000000000E+00 0. -1.
         23    2    1    2    0    0  0.10756861739E+04  0.15003641583E+04  0.73834916952E+02  0.18498905699E+04  0.91924824062E+02 0.  0.
         13    1    3    3    0    0  0.90195042668E+03  0.12588729468E+04  0.95731370361E+02  0.15515927828E+04  0.00000000000E+00 0.  1.
        -13    1    3    3    0    0  0.17373574724E+03  0.24149121148E+03 -0.21896453409E+02  0.29829778706E+03  0.00000000000E+00 0. -1.
         22    1    1    2    0    0 -0.10756861739E+04 -0.15003641583E+04 -0.63390067228E+03  0.19519281274E+04  0.00000000000E+00 0. -1.
<mgrwt>
<rscale>  0 0.37603393E+04</rscale>
<asrwt>0</asrwt>
<pdfrwt beam="1">  1        2 0.33552957E+00 0.37603393E+04</pdfrwt>
<pdfrwt beam="2">  1       -2 0.24936561E+00 0.37603393E+04</pdfrwt>
<totfact> 0.27609748E-01</totfact>
</mgrwt>
</event>
<event>
 6    1  0.1311274E-005  0.3842925E+04  0.7818608E-02  0.8037006E-01
         -2   -1    0    0    0  501 -0.00000000000E+00  0.00000000000E+00  0.15223725753E+04  0.15223725753E+04  0.00000000000E+00 0.  1.
          2   -1    0    0  501    0  0.00000000000E+00 -0.00000000000E+00 -0.24251734045E+04  0.24251734045E+04  0.00000000000E+00 0. -1.
         23    2    1    2    0    0 -0.14142655481E+04  0.12355630306E+04 -0.39475214297E+02  0.18806414923E+04  0.92147094595E+02 0.  0.
         11    1    3    3    0    0 -0.45396915543E+03  0.42202604023E+03  0.25844208251E+02  0.62037238479E+03  0.00000000000E+00 0. -1.
        -11    1    3    3    0    0 -0.96029639269E+03  0.81353699033E+03 -0.65319422548E+02  0.12602691075E+04  0.00000000000E+00 0.  1.
         22    1    1    2    0    0  0.14142655481E+04 -0.12355630306E+04 -0.86332561482E+03  0.20669044875E+04  0.00000000000E+00 0. -1.
<mgrwt>
<rscale>  0 0.38429247E+04</rscale>
<asrwt>0</asrwt>
<pdfrwt beam="1">  1        2 0.37310360E+00 0.38429247E+04</pdfrwt>
<pdfrwt beam="2">  1       -2 0.23421116E+00 0.38429247E+04</pdfrwt>
<totfact> 0.24724993E-01</totfact>
</mgrwt>
</event>
<event>
 6    1  0.1001928E-005  0.3044766E+04  0.7818608E-02  0.8231062E-01
          2   -1    0    0  501    0  0.00000000000E+00  0.00000000000E+00  0.24145045430E+04  0.24145045430E+04  0.00000000000E+00 0. -1.
         -2   -1    0    0    0  501 -0.00000000000E+00 -0.00000000000E+00 -0.95988654945E+03  0.95988654945E+03  0.00000000000E+00 0.  1.
         23    2    1    2    0    0 -0.17533457283E+03  0.11763697135E+04 -0.32252535866E+03  0.12359742927E+04  0.94983839982E+02 0.  0.
         13    1    3    3    0    0 -0.29212740802E+02  0.11181774375E+03 -0.58244526475E+02  0.12941799298E+03  0.00000000000E+00 0.  1.
        -13    1    3    3    0    0 -0.14612183202E+03  0.10645519698E+04 -0.26428083218E+03  0.11065562997E+04  0.00000000000E+00 0. -1.
         22    1    1    2    0    0  0.17533457283E+03 -0.11763697135E+04  0.17771433523E+04  0.21384167998E+04  0.00000000000E+00 0. -1.
<mgrwt>
<rscale>  0 0.30447663E+04</rscale>
<asrwt>0</asrwt>
<pdfrwt beam="1">  1        2 0.37146224E+00 0.30447663E+04</pdfrwt>
<pdfrwt beam="2">  1       -2 0.14767485E+00 0.30447663E+04</pdfrwt>
<totfact> 0.10385333E+00</totfact>
</mgrwt>
</event>
<event>
 6    1  0.1001928E-005  0.2861748E+04  0.7818608E-02  0.8284350E-01
          1   -1    0    0  501    0  0.00000000000E+00  0.00000000000E+00  0.12193868264E+04  0.12193868264E+04  0.00000000000E+00 0. -1.
         -1   -1    0    0    0  501 -0.00000000000E+00 -0.00000000000E+00 -0.16790407034E+04  0.16790407034E+04  0.00000000000E+00 0.  1.
         23    2    1    2    0    0 -0.55974233548E+02 -0.12550632724E+04 -0.92014907130E+03  0.15603794154E+04  0.98957941475E+02 0.  0.
         13    1    3    3    0    0 -0.47724284905E+02 -0.85426168079E+03 -0.56970650971E+03  0.10279134856E+04  0.00000000000E+00 0. -1.
        -13    1    3    3    0    0 -0.82499486435E+01 -0.40080159159E+03 -0.35044256159E+03  0.53246592985E+03  0.00000000000E+00 0.  1.
         22    1    1    2    0    0  0.55974233548E+02  0.12550632724E+04  0.46049519421E+03  0.13380481144E+04  0.00000000000E+00 0. -1.
<mgrwt>
<rscale>  0 0.28617478E+04</rscale>
<asrwt>0</asrwt>
<pdfrwt beam="1">  1        1 0.18759797E+00 0.28617478E+04</pdfrwt>
<pdfrwt beam="2">  1       -1 0.25831395E+00 0.28617478E+04</pdfrwt>
<totfact> 0.54807303E-01</totfact>
</mgrwt>
</event>
<event>
 6    1  0.1001928E-005  0.2997808E+04  0.7818608E-02  0.8244357E-01
         -2   -1    0    0    0  501 -0.00000000000E+00  0.00000000000E+00  0.71284600863E+03  0.71284600863E+03  0.00000000000E+00 0.  1.
          2   -1    0    0  501    0  0.00000000000E+00 -0.00000000000E+00 -0.31517504839E+04  0.31517504839E+04  0.00000000000E+00 0. -1.
         23    2    1    2    0    0  0.12174219105E+03 -0.10534142725E+04 -0.25836949589E+04  0.27943315372E+04  0.91138948810E+02 0.  0.
         13    1    3    3    0    0  0.10758771095E+03 -0.58249232225E+03 -0.13832036767E+04  0.15047009113E+04  0.00000000000E+00 0. -1.
        -13    1    3    3    0    0  0.14154480097E+02 -0.47092195028E+03 -0.12004912822E+04  0.12896306259E+04  0.00000000000E+00 0.  1.
         22    1    1    2    0    0 -0.12174219105E+03  0.10534142725E+04  0.14479048363E+03  0.10702649554E+04  0.00000000000E+00 0.  1.
<mgrwt>
<rscale>  0 0.29978077E+04</rscale>
<asrwt>0</asrwt>
<pdfrwt beam="1">  1        2 0.48488470E+00 0.29978077E+04</pdfrwt>
<pdfrwt beam="2">  1       -2 0.10966861E+00 0.29978077E+04</pdfrwt>
<totfact> 0.78926772E-01</totfact>
</mgrwt>
</event>
<event>
 6    1  0.1001928E-005  0.2349230E+04  0.7818608E-02  0.8458759E-01
         -2   -1    0    0    0  501 -0.00000000000E+00  0.00000000000E+00  0.15016108662E+04  0.15016108662E+04  0.00000000000E+00 0.  1.
          2   -1    0    0  501    0  0.00000000000E+00 -0.00000000000E+00 -0.91882706468E+03  0.91882706468E+03  0.00000000000E+00 0. -1.
         23    2    1    2    0    0  0.19373147742E+03  0.62325107630E+03  0.12958462989E+04  0.14537777452E+04  0.90985232664E+02 0.  0.
         11    1    3    3    0    0  0.13675095197E+03  0.31068330426E+03  0.61540480727E+03  0.70281435332E+03  0.00000000000E+00 0. -1.
        -11    1    3    3    0    0  0.56980525449E+02  0.31256777203E+03  0.68044149159E+03  0.75096339183E+03  0.00000000000E+00 0.  1.
         22    1    1    2    0    0 -0.19373147742E+03 -0.62325107630E+03 -0.71306249738E+03  0.96666018570E+03  0.00000000000E+00 0. -1.
<mgrwt>
<rscale>  0 0.23492303E+04</rscale>
<asrwt>0</asrwt>
<pdfrwt beam="1">  1        2 0.14135801E+00 0.23492303E+04</pdfrwt>
<pdfrwt beam="2">  1       -2 0.23101706E+00 0.23492303E+04</pdfrwt>
<totfact> 0.21660197E+00</totfact>
</mgrwt>
</event>
<event>
 6    1  0.1001928E-005  0.2770311E+04  0.7818608E-02  0.8312545E-01
          2   -1    0    0  501    0  0.00000000000E+00  0.00000000000E+00  0.26626690041E+04  0.26626690041E+04  0.00000000000E+00 0. -1.
         -2   -1    0    0    0  501 -0.00000000000E+00 -0.00000000000E+00 -0.72057628512E+03  0.72057628512E+03  0.00000000000E+00 0.  1.
         23    2    1    2    0    0 -0.12398575454E+04  0.40853341668E+03  0.41201207980E+03  0.13719539011E+04  0.91418090869E+02 0.  0.
         13    1    3    3    0    0 -0.80034296706E+03  0.21743022779E+03  0.25839683193E+03  0.86867352419E+03  0.00000000000E+00 0.  1.
        -13    1    3    3    0    0 -0.43951457838E+03  0.19110318889E+03  0.15361524787E+03  0.50328037691E+03  0.00000000000E+00 0. -1.
         22    1    1    2    0    0  0.12398575454E+04 -0.40853341668E+03  0.15300806392E+04  0.20112913881E+04  0.00000000000E+00 0. -1.
<mgrwt>
<rscale>  0 0.27703113E+04</rscale>
<asrwt>0</asrwt>
<pdfrwt beam="1">  1        2 0.40964138E+00 0.27703113E+04</pdfrwt>
<pdfrwt beam="2">  1       -2 0.11085789E+00 0.27703113E+04</pdfrwt>
<totfact> 0.15712694E+00</totfact>
</mgrwt>
</event>
<event>
 6    1  0.1059547E-005  0.2059166E+04  0.7818608E-02  0.8579448E-01
          1   -1    0    0  501    0  0.00000000000E+00  0.00000000000E+00  0.12152858068E+04  0.12152858068E+04  0.00000000000E+00 0. -1.
         -1   -1    0    0    0  501 -0.00000000000E+00 -0.00000000000E+00 -0.87225635460E+03  0.87225635460E+03  0.00000000000E+00 0.  1.
         23    2    1    2    0    0  0.20774806427E+03  0.34343322524E+03 -0.78711440913E+03  0.88823786903E+03  0.91168966749E+02 0.  0.
         11    1    3    3    0    0  0.12726371230E+03  0.25672221344E+03 -0.62493411495E+03  0.68749181476E+03  0.00000000000E+00 0. -1.
        -11    1    3    3    0    0  0.80484351968E+02  0.86711011808E+02 -0.16218029419E+03  0.20074605427E+03  0.00000000000E+00 0.  1.
         22    1    1    2    0    0 -0.20774806427E+03 -0.34343322524E+03  0.11301438614E+04  0.11993042924E+04  0.00000000000E+00 0. -1.
<mgrwt>
<rscale>  0 0.20591656E+04</rscale>
<asrwt>0</asrwt>
<pdfrwt beam="1">  1        1 0.18696705E+00 0.20591656E+04</pdfrwt>
<pdfrwt beam="2">  1       -1 0.13419329E+00 0.20591656E+04</pdfrwt>
<totfact> 0.44965096E+00</totfact>
</mgrwt>
</event>
<event>
 6    1  0.1001928E-005  0.2071988E+04  0.7818608E-02  0.8573684E-01
          1   -1    0    0  501    0  0.00000000000E+00  0.00000000000E+00  0.10239325808E+04  0.10239325808E+04  0.00000000000E+00 0. -1.
         -1   -1    0    0    0  501 -0.00000000000E+00 -0.00000000000E+00 -0.10481975849E+04  0.10481975849E+04  0.00000000000E+00 0.  1.
         23    2    1    2    0    0  0.47497245478E+03  0.12392861312E+03 -0.92210479738E+03  0.10488641063E+04  0.94241828602E+02 0.  0.
         11    1    3    3    0    0  0.26474323817E+03  0.78751410326E+02 -0.61266088502E+03  0.67204473572E+03  0.00000000000E+00 0.  1.
        -11    1    3    3    0    0  0.21022921661E+03  0.45177202795E+02 -0.30944391236E+03  0.37681937061E+03  0.00000000000E+00 0. -1.
         22    1    1    2    0    0 -0.47497245478E+03 -0.12392861312E+03  0.89783979330E+03  0.10232660594E+04  0.00000000000E+00 0. -1.
<mgrwt>
<rscale>  0 0.20719881E+04</rscale>
<asrwt>0</asrwt>
<pdfrwt beam="1">  1        1 0.15752809E+00 0.20719881E+04</pdfrwt>
<pdfrwt beam="2">  1       -1 0.16126117E+00 0.20719881E+04</pdfrwt>
<totfact> 0.38205699E+00</totfact>
</mgrwt>
</event>
<event>
 6    1  0.1001928E-005  0.1763435E+04  0.7818608E-02  0.8725989E-01
          1   -1    0    0  501    0  0.00000000000E+00  0.00000000000E+00  0.24000121600E+04  0.24000121600E+04  0.00000000000E+00 0. -1.
         -1   -1    0    0    0  501 -0.00000000000E+00 -0.00000000000E+00 -0.32392593366E+03  0.32392593366E+03  0.00000000000E+00 0.  1.
         23    2    1    2    0    0 -0.27747670663E+03 -0.74967729374E+03  0.16067634898E+04  0.17969681920E+04  0.91631890926E+02 0.  0.
         13    1    3    3    0    0 -0.13297629703E+03 -0.26528125350E+03  0.66228915282E+03  0.72572981266E+03  0.00000000000E+00 0. -1.
        -13    1    3    3    0    0 -0.14450040961E+03 -0.48439604024E+03  0.94447433703E+03  0.10712383794E+04  0.00000000000E+00 0.  1.
         22    1    1    2    0    0  0.27747670663E+03  0.74967729374E+03  0.46932273644E+03  0.92696990157E+03  0.00000000000E+00 0.  1.
<mgrwt>
<rscale>  0 0.17634355E+04</rscale>
<asrwt>0</asrwt>
<pdfrwt beam="1">  1        1 0.36923263E+00 0.17634355E+04</pdfrwt>
<pdfrwt beam="2">  1       -1 0.49834761E-01 0.17634355E+04</pdfrwt>
<totfact> 0.60798454E+00</totfact>
</mgrwt>
</event>
<event>
 6    1  0.1001928E-005  0.2033281E+04  0.7818608E-02  0.8591217E-01
         -1   -1    0    0    0  501 -0.00000000000E+00  0.00000000000E+00  0.43466123110E+03  0.43466123110E+03  0.00000000000E+00 0.  1.
          1   -1    0    0  501    0  0.00000000000E+00 -0.00000000000E+00 -0.23778470588E+04  0.23778470588E+04  0.00000000000E+00 0. -1.
         23    2    1    2    0    0 -0.98292483793E+03  0.49302217158E+02 -0.63278082010E+03  0.11736876073E+04  0.92515337663E+02 0.  0.
         11    1    3    3    0    0 -0.35576756426E+03 -0.43779267465E+01 -0.27481062105E+03  0.44956712898E+03  0.00000000000E+00 0. -1.
        -11    1    3    3    0    0 -0.62715727367E+03  0.53680143904E+02 -0.35797019905E+03  0.72412047835E+03  0.00000000000E+00 0.  1.
         22    1    1    2    0    0  0.98292483793E+03 -0.49302217158E+02 -0.13104050076E+04  0.16388206826E+04  0.00000000000E+00 0. -1.
<mgrwt>
<rscale>  0 0.20332810E+04</rscale>
<asrwt>0</asrwt>
<pdfrwt beam="1">  1        1 0.36582261E+00 0.20332810E+04</pdfrwt>
<pdfrwt beam="2">  1       -1 0.66870961E-01 0.20332810E+04</pdfrwt>
<totfact> 0.34491434E+00</totfact>
</mgrwt>
</event>
<event>
 6    1  0.1001928E-005  0.1302749E+04  0.7818608E-02  0.9027388E-01
          4   -1    0    0  501    0  0.00000000000E+00  0.00000000000E+00  0.12858520698E+04  0.12858520698E+04  0.00000000000E+00 0. -1.
         -4   -1    0    0    0  501 -0.00000000000E+00 -0.00000000000E+00 -0.32996688609E+03  0.32996688609E+03  0.00000000000E+00 0.  1.
         23    2    1    2    0    0 -0.52878314677E+03  0.30599355216E+03  0.21204438071E+03  0.65324801797E+03  0.92338958876E+02 0.  0.
         11    1    3    3    0    0 -0.46466418698E+03  0.26895568796E+03  0.15221298644E+03  0.55804906772E+03  0.00000000000E+00 0. -1.
        -11    1    3    3    0    0 -0.64118959797E+02  0.37037864198E+02  0.59831394263E+02  0.95198950253E+02  0.00000000000E+00 0.  1.
         22    1    1    2    0    0  0.52878314677E+03 -0.30599355216E+03  0.74384080297E+03  0.96257093787E+03  0.00000000000E+00 0. -1.
<mgrwt>
<rscale>  0 0.13027488E+04</rscale>
<asrwt>0</asrwt>
<pdfrwt beam="1">  1        4 0.19782339E+00 0.13027488E+04</pdfrwt>
<pdfrwt beam="2">  1       -4 0.50764137E-01 0.13027488E+04</pdfrwt>
<totfact> 0.99616748E-01</totfact>
</mgrwt>
</event>
<event>
 6    1  0.1001928E-005  0.2561845E+04  0.7818608E-02  0.8381278E-01
          2   -1    0    0  501    0  0.00000000000E+00  0.00000000000E+00  0.18614534708E+04  0.18614534708E+04  0.00000000000E+00 0. -1.
         -2   -1    0    0    0  501 -0.00000000000E+00 -0.00000000000E+00 -0.88144150011E+03  0.88144150011E+03  0.00000000000E+00 0.  1.
         23    2    1    2    0    0 -0.28999374529E+03  0.11988941045E+04  0.12493172156E+03  0.12420266627E+04  0.74691697268E+02 0.  0.
         11    1    3    3    0    0 -0.17036622875E+03  0.63726412215E+03  0.10070471356E+03  0.66728678438E+03  0.00000000000E+00 0.  1.
        -11    1    3    3    0    0 -0.11962751654E+03  0.56162998236E+03  0.24227008007E+02  0.57473987831E+03  0.00000000000E+00 0. -1.
         22    1    1    2    0    0  0.28999374529E+03 -0.11988941045E+04  0.85508024911E+03  0.15008683082E+04  0.00000000000E+00 0. -1.
<mgrwt>
<rscale>  0 0.25618449E+04</rscale>
<asrwt>0</asrwt>
<pdfrwt beam="1">  1        2 0.28637746E+00 0.25618449E+04</pdfrwt>
<pdfrwt beam="2">  1       -2 0.13560638E+00 0.25618449E+04</pdfrwt>
<totfact> 0.27609380E+00</totfact>
</mgrwt>
</event>
<event>
 6    1  0.1001928E-005  0.4570090E+04  0.7818608E-02  0.7898480E-01
         -1   -1    0    0    0  501 -0.00000000000E+00  0.00000000000E+00  0.25166015577E+04  0.25166015577E+04  0.00000000000E+00 0.  1.
          1   -1    0    0  501    0  0.00000000000E+00 -0.00000000000E+00 -0.20747944727E+04  0.20747944727E+04  0.00000000000E+00 0. -1.
         23    2    1    2    0    0 -0.98907088845E+03  0.20558682325E+04  0.33035212971E+03  0.23072599533E+04  0.97265361369E+02 0.  0.
         13    1    3    3    0    0 -0.44244669851E+03  0.95641211109E+03  0.10632035483E+03  0.10591445723E+04  0.00000000000E+00 0.  1.
        -13    1    3    3    0    0 -0.54662418994E+03  0.10994561214E+04  0.22403177488E+03  0.12481153809E+04  0.00000000000E+00 0. -1.
         22    1    1    2    0    0  0.98907088845E+03 -0.20558682325E+04  0.11145495521E+03  0.22841360771E+04  0.00000000000E+00 0. -1.
<mgrwt>
<rscale>  0 0.45700902E+04</rscale>
<asrwt>0</asrwt>
<pdfrwt beam="1">  1        1 0.31919915E+00 0.45700902E+04</pdfrwt>
<pdfrwt beam="2">  1       -1 0.38716947E+00 0.45700902E+04</pdfrwt>
<totfact> 0.17327428E-02</totfact>
</mgrwt>
</event>
<event>
 6    1  0.1001928E-005  0.2225542E+04  0.7818608E-02  0.8507872E-01
         -1   -1    0    0    0  501 -0.00000000000E+00  0.00000000000E+00  0.10629479670E+04  0.10629479670E+04  0.00000000000E+00 0.  1.
          1   -1    0    0  501    0  0.00000000000E+00 -0.00000000000E+00 -0.11649292274E+04  0.11649292274E+04  0.00000000000E+00 0. -1.
         23    2    1    2    0    0  0.22915922787E+03 -0.30650197812E+03 -0.10948793875E+04  0.11637794051E+04  0.95729912559E+02 0.  0.
         13    1    3    3    0    0  0.14427598949E+02 -0.25298768898E+02 -0.18943887263E+03  0.19166447188E+03  0.00000000000E+00 0.  1.
        -13    1    3    3    0    0  0.21473162892E+03 -0.28120320922E+03 -0.90544051491E+03  0.97211493322E+03  0.00000000000E+00 0. -1.
         22    1    1    2    0    0 -0.22915922787E+03  0.30650197812E+03  0.99289812717E+03  0.10640977893E+04  0.00000000000E+00 0.  1.
<mgrwt>
<rscale>  0 0.22255419E+04</rscale>
<asrwt>0</asrwt>
<pdfrwt beam="1">  1        1 0.17921988E+00 0.22255419E+04</pdfrwt>
<pdfrwt beam="2">  1       -1 0.16353046E+00 0.22255419E+04</pdfrwt>
<totfact> 0.28355956E+00</totfact>
</mgrwt>
</event>
<event>
 6    1  0.1001928E-005  0.1503491E+04  0.7818608E-02  0.8882135E-01
          1   -1    0    0  501    0  0.00000000000E+00  0.00000000000E+00  0.16452246039E+04  0.16452246039E+04  0.00000000000E+00 0. -1.
         -1   -1    0    0    0  501 -0.00000000000E+00 -0.00000000000E+00 -0.34349187940E+03  0.34349187940E+03  0.00000000000E+00 0.  1.
         23    2    1    2    0    0  0.55253668808E+03  0.40055446599E+03  0.24584583900E+03  0.73148230190E+03  0.94262980694E+02 0.  0.
         11    1    3    3    0    0  0.86704534100E+02  0.48095150771E+02  0.39423900510E+01  0.99228837545E+02  0.00000000000E+00 0.  1.
        -11    1    3    3    0    0  0.46583215398E+03  0.35245931522E+03  0.24190344895E+03  0.63225346435E+03  0.00000000000E+00 0. -1.
         22    1    1    2    0    0 -0.55253668808E+03 -0.40055446599E+03  0.10558868855E+04  0.12572341814E+04  0.00000000000E+00 0. -1.
<mgrwt>
<rscale>  0 0.15034910E+04</rscale>
<asrwt>0</asrwt>
<pdfrwt beam="1">  1        1 0.25311147E+00 0.15034910E+04</pdfrwt>
<pdfrwt beam="2">  1       -1 0.52844905E-01 0.15034910E+04</pdfrwt>
<totfact> 0.18137090E+01</totfact>
</mgrwt>
</event>
<event>
 6    1  0.1001928E-005  0.2429394E+04  0.7818608E-02  0.8428580E-01
         -2   -1    0    0    0  501 -0.00000000000E+00  0.00000000000E+00  0.34657251146E+03  0.34657251146E+03  0.00000000000E+00 0.  1.
          2   -1    0    0  501    0  0.00000000000E+00 -0.00000000000E+00 -0.42573728334E+04  0.42573728334E+04  0.00000000000E+00 0. -1.
         23    2    1    2    0    0  0.32993051428E+03 -0.11671875139E+04 -0.19110486682E+04  0.22651021450E+04  0.86022545911E+02 0.  0.
         13    1    3    3    0    0  0.96415192600E+02 -0.37449766140E+03 -0.53809966406E+03  0.66264291758E+03  0.00000000000E+00 0.  1.
        -13    1    3    3    0    0  0.23351532168E+03 -0.79268985245E+03 -0.13729490042E+04  0.16024592275E+04  0.00000000000E+00 0. -1.
         22    1    1    2    0    0 -0.32993051428E+03  0.11671875139E+04 -0.19997516537E+04  0.23388431998E+04  0.00000000000E+00 0.  1.
<mgrwt>
<rscale>  0 0.24293937E+04</rscale>
<asrwt>0</asrwt>
<pdfrwt beam="1">  1        2 0.65498038E+00 0.24293937E+04</pdfrwt>
<pdfrwt beam="2">  1       -2 0.53318852E-01 0.24293937E+04</pdfrwt>
<totfact> 0.61947911E-01</totfact>
</mgrwt>
</event>
<event>
 6    1  0.1001928E-005  0.1686214E+04  0.7818608E-02  0.8769266E-01
         -1   -1    0    0    0  501 -0.00000000000E+00  0.00000000000E+00  0.96174929529E+03  0.96174929529E+03  0.00000000000E+00 0.  1.
          1   -1    0    0  501    0  0.00000000000E+00 -0.00000000000E+00 -0.73910066531E+03  0.73910066531E+03  0.00000000000E+00 0. -1.
         23    2    1    2    0    0  0.45240918381E+03  0.12692630980E+03  0.81447591135E+03  0.94517550113E+03  0.95923719919E+02 0.  0.
         11    1    3    3    0    0  0.11903618327E+03  0.33022383750E+02  0.30555504817E+03  0.32958151984E+03  0.00000000000E+00 0. -1.
        -11    1    3    3    0    0  0.33337300055E+03  0.93903926055E+02  0.50892086318E+03  0.61559398129E+03  0.00000000000E+00 0.  1.
         22    1    1    2    0    0 -0.45240918381E+03 -0.12692630980E+03 -0.59182728137E+03  0.75567445947E+03  0.00000000000E+00 0. -1.
<mgrwt>
<rscale>  0 0.16862142E+04</rscale>
<asrwt>0</asrwt>
<pdfrwt beam="1">  1        1 0.11370779E+00 0.16862142E+04</pdfrwt>
<pdfrwt beam="2">  1       -1 0.14796143E+00 0.16862142E+04</pdfrwt>
<totfact> 0.86426207E+00</totfact>
</mgrwt>
</event>
<event>
 6    1  0.1001928E-005  0.2302316E+04  0.7818608E-02  0.8477009E-01
          2   -1    0    0  501    0  0.00000000000E+00  0.00000000000E+00  0.92494207147E+03  0.92494207147E+03  0.00000000000E+00 0. -1.
         -2   -1    0    0    0  501 -0.00000000000E+00 -0.00000000000E+00 -0.14327000579E+04  0.14327000579E+04  0.00000000000E+00 0.  1.
         23    2    1    2    0    0  0.35451101914E+03  0.46513740439E+03 -0.12673836556E+04  0.13989649028E+04  0.93864802714E+02 0.  0.
         13    1    3    3    0    0  0.15315177815E+03  0.14076984391E+03 -0.38701579024E+03  0.43937778506E+03  0.00000000000E+00 0. -1.
        -13    1    3    3    0    0  0.20135924099E+03  0.32436756048E+03 -0.88036786535E+03  0.95958711775E+03  0.00000000000E+00 0.  1.
         22    1    1    2    0    0 -0.35451101914E+03 -0.46513740439E+03  0.75962566911E+03  0.95867722661E+03  0.00000000000E+00 0. -1.
<mgrwt>
<rscale>  0 0.23023158E+04</rscale>
<asrwt>0</asrwt>
<pdfrwt beam="1">  1        2 0.14229878E+00 0.23023158E+04</pdfrwt>
<pdfrwt beam="2">  1       -2 0.22041539E+00 0.23023158E+04</pdfrwt>
<totfact> 0.25113222E+00</totfact>
</mgrwt>
</event>
<event>
 6    1  0.1001928E-005  0.1465102E+04  0.7818608E-02  0.8907997E-01
          2   -1    0    0  501    0  0.00000000000E+00  0.00000000000E+00  0.87340135976E+03  0.87340135976E+03  0.00000000000E+00 0. -1.
         -2   -1    0    0    0  501 -0.00000000000E+00 -0.00000000000E+00 -0.61441536162E+03  0.61441536162E+03  0.00000000000E+00 0.  1.
         23    2    1    2    0    0  0.26900005747E+03  0.67747300391E+03  0.97194661255E+02  0.74115271485E+03  0.92357147032E+02 0.  0.
         11    1    3    3    0    0  0.21613646415E+03  0.45094660112E+03  0.92135608537E+02  0.50848478695E+03  0.00000000000E+00 0.  1.
        -11    1    3    3    0    0  0.52863593319E+02  0.22652640280E+03  0.50590527177E+01  0.23266792791E+03  0.00000000000E+00 0. -1.
         22    1    1    2    0    0 -0.26900005747E+03 -0.67747300391E+03  0.16179133689E+03  0.74666400653E+03  0.00000000000E+00 0. -1.
<mgrwt>
<rscale>  0 0.14651023E+04</rscale>
<asrwt>0</asrwt>
<pdfrwt beam="1">  1        2 0.13436944E+00 0.14651023E+04</pdfrwt>
<pdfrwt beam="2">  1       -2 0.94525440E-01 0.14651023E+04</pdfrwt>
<totfact> 0.27935928E+01</totfact>
</mgrwt>
</event>
<event>
 6    1  0.1001928E-005  0.2142840E+04  0.7818608E-02  0.8542603E-01
          2   -1    0    0  501    0  0.00000000000E+00  0.00000000000E+00  0.18434921583E+04  0.18434921583E+04  0.00000000000E+00 0. -1.
         -2   -1    0    0    0  501 -0.00000000000E+00 -0.00000000000E+00 -0.62269919463E+03  0.62269919463E+03  0.00000000000E+00 0.  1.
         23    2    1    2    0    0 -0.53902210368E+03 -0.83374357635E+03  0.15340003225E+03  0.10084530879E+04  0.88163944864E+02 0.  0.
         11    1    3    3    0    0 -0.19133589438E+03 -0.22437729555E+03  0.34936345527E+02  0.29694299701E+03  0.00000000000E+00 0.  1.
        -11    1    3    3    0    0 -0.34768620930E+03 -0.60936628080E+03  0.11846368672E+03  0.71151009085E+03  0.00000000000E+00 0. -1.
         22    1    1    2    0    0  0.53902210368E+03  0.83374357635E+03  0.10673929314E+04  0.14577382650E+04  0.00000000000E+00 0. -1.
<mgrwt>
<rscale>  0 0.21428402E+04</rscale>
<asrwt>0</asrwt>
<pdfrwt beam="1">  1        2 0.28361418E+00 0.21428402E+04</pdfrwt>
<pdfrwt beam="2">  1       -2 0.95799877E-01 0.21428402E+04</pdfrwt>
<totfact> 0.68499679E+00</totfact>
</mgrwt>
</event>
<event>
 6    1  0.1001928E-005  0.9872961E+03  0.7818608E-02  0.9322589E-01
          2   -1    0    0  501    0  0.00000000000E+00  0.00000000000E+00  0.77452843427E+03  0.77452843427E+03  0.00000000000E+00 0. -1.
         -2   -1    0    0    0  501 -0.00000000000E+00 -0.00000000000E+00 -0.31462810695E+03  0.31462810695E+03  0.00000000000E+00 0.  1.
         23    2    1    2    0    0  0.27837631340E+03  0.37865798235E+03  0.81547748488E+02  0.48581094095E+03  0.92124891349E+02 0.  0.
         13    1    3    3    0    0  0.23828511342E+03  0.36626331824E+03  0.74605833388E+02  0.44327716379E+03  0.00000000000E+00 0.  1.
        -13    1    3    3    0    0  0.40091199978E+02  0.12394664111E+02  0.69419150998E+01  0.42533777159E+02  0.00000000000E+00 0. -1.
         22    1    1    2    0    0 -0.27837631340E+03 -0.37865798235E+03  0.37835257883E+03  0.60334560027E+03  0.00000000000E+00 0. -1.
<mgrwt>
<rscale>  0 0.98729614E+03</rscale>
<asrwt>0</asrwt>
<pdfrwt beam="1">  1        2 0.11915822E+00 0.98729614E+03</pdfrwt>
<pdfrwt beam="2">  1       -2 0.48404325E-01 0.98729614E+03</pdfrwt>
<totfact> 0.14520212E+02</totfact>
</mgrwt>
</event>
<event>
 6    1  0.1001928E-005  0.2096159E+04  0.7818608E-02  0.8562937E-01
          1   -1    0    0  501    0  0.00000000000E+00  0.00000000000E+00  0.67580881549E+03  0.67580881549E+03  0.00000000000E+00 0. -1.
         -1   -1    0    0    0  501 -0.00000000000E+00 -0.00000000000E+00 -0.16254164164E+04  0.16254164164E+04  0.00000000000E+00 0.  1.
         23    2    1    2    0    0 -0.42957061289E+03 -0.94926495849E+03 -0.57801709672E+03  0.11950089892E+04  0.91147393115E+02 0.  0.
         11    1    3    3    0    0 -0.12492267895E+03 -0.29260730681E+03 -0.22466727156E+03  0.38948696335E+03  0.00000000000E+00 0.  1.
        -11    1    3    3    0    0 -0.30464793394E+03 -0.65665765168E+03 -0.35334982516E+03  0.80552202584E+03  0.00000000000E+00 0. -1.
         22    1    1    2    0    0  0.42957061289E+03  0.94926495849E+03 -0.37159050423E+03  0.11062162427E+04  0.00000000000E+00 0. -1.
<mgrwt>
<rscale>  0 0.20961591E+04</rscale>
<asrwt>0</asrwt>
<pdfrwt beam="1">  1        1 0.10397059E+00 0.20961591E+04</pdfrwt>
<pdfrwt beam="2">  1       -1 0.25006406E+00 0.20961591E+04</pdfrwt>
<totfact> 0.18411925E+00</totfact>
</mgrwt>
</event>
<event>
 6    1  0.1001928E-005  0.2065881E+04  0.7818608E-02  0.8576424E-01
         -2   -1    0    0    0  501 -0.00000000000E+00  0.00000000000E+00  0.22977099226E+03  0.22977099226E+03  0.00000000000E+00 0.  1.
          2   -1    0    0  501    0  0.00000000000E+00 -0.00000000000E+00 -0.46436065051E+04  0.46436065051E+04  0.00000000000E+00 0. -1.
         23    2    1    2    0    0 -0.89720302290E+03 -0.37314749194E+03 -0.30230434185E+04  0.31767588117E+04  0.93769516619E+02 0.  0.
         11    1    3    3    0    0 -0.30140516076E+03 -0.15200230669E+03 -0.93046293914E+03  0.98980354277E+03  0.00000000000E+00 0. -1.
        -11    1    3    3    0    0 -0.59579786213E+03 -0.22114518524E+03 -0.20925804794E+04  0.21869552689E+04  0.00000000000E+00 0.  1.
         22    1    1    2    0    0  0.89720302290E+03  0.37314749194E+03 -0.13907920943E+04  0.16966186857E+04  0.00000000000E+00 0.  1.
<mgrwt>
<rscale>  0 0.20658810E+04</rscale>
<asrwt>0</asrwt>
<pdfrwt beam="1">  1        2 0.71440103E+00 0.20658810E+04</pdfrwt>
<pdfrwt beam="2">  1       -2 0.35349382E-01 0.20658810E+04</pdfrwt>
<totfact> 0.62215797E-01</totfact>
</mgrwt>
</event>
<event>
 6    1  0.1001928E-005  0.2514729E+04  0.7818608E-02  0.8397757E-01
          1   -1    0    0  501    0  0.00000000000E+00  0.00000000000E+00  0.15460759288E+04  0.15460759288E+04  0.00000000000E+00 0. -1.
         -1   -1    0    0    0  501 -0.00000000000E+00 -0.00000000000E+00 -0.10225668316E+04  0.10225668316E+04  0.00000000000E+00 0.  1.
         23    2    1    2    0    0  0.11116508788E+04 -0.16268323084E+03 -0.31085945002E+03  0.11692127398E+04  0.90505929870E+02 0.  0.
         13    1    3    3    0    0  0.22671710272E+03 -0.19103153401E+02 -0.98329603409E+02  0.24785940781E+03  0.00000000000E+00 0. -1.
        -13    1    3    3    0    0  0.88493377607E+03 -0.14358007744E+03 -0.21252984661E+03  0.92135333199E+03  0.00000000000E+00 0.  1.
         22    1    1    2    0    0 -0.11116508788E+04  0.16268323084E+03  0.83436854729E+03  0.13994300206E+04  0.00000000000E+00 0. -1.
<mgrwt>
<rscale>  0 0.25147294E+04</rscale>
<asrwt>0</asrwt>
<pdfrwt beam="1">  1        1 0.23785784E+00 0.25147294E+04</pdfrwt>
<pdfrwt beam="2">  1       -1 0.15731797E+00 0.25147294E+04</pdfrwt>
<totfact> 0.16520916E+00</totfact>
</mgrwt>
</event>
<event>
 6    1  0.1001928E-005  0.3314277E+04  0.7818608E-02  0.8159272E-01
         -1   -1    0    0    0  501 -0.00000000000E+00  0.00000000000E+00  0.16062329390E+04  0.16062329390E+04  0.00000000000E+00 0. -1.
          1   -1    0    0  501    0  0.00000000000E+00 -0.00000000000E+00 -0.17096577956E+04  0.17096577956E+04  0.00000000000E+00 0.  1.
         23    2    1    2    0    0  0.11379568665E+04 -0.72553047298E+03 -0.10117394198E+04  0.16891222684E+04  0.90427245156E+02 0.  0.
         11    1    3    3    0    0  0.93400871517E+03 -0.56837367929E+03 -0.78413071594E+03  0.13454671676E+04  0.00000000000E+00 0.  1.
        -11    1    3    3    0    0  0.20394815137E+03 -0.15715679369E+03 -0.22760870382E+03  0.34365510080E+03  0.00000000000E+00 0. -1.
         22    1    1    2    0    0 -0.11379568665E+04  0.72553047298E+03  0.90831456316E+03  0.16267684663E+04  0.00000000000E+00 0. -1.
<mgrwt>
<rscale>  0 0.33142774E+04</rscale>
<asrwt>0</asrwt>
<pdfrwt beam="1">  1        1 0.26302428E+00 0.33142774E+04</pdfrwt>
<pdfrwt beam="2">  1       -1 0.24711276E+00 0.33142774E+04</pdfrwt>
<totfact> 0.28325540E-01</totfact>
</mgrwt>
</event>
<event>
 6    1  0.1001928E-005  0.3275225E+04  0.7818608E-02  0.8169228E-01
          1   -1    0    0  501    0  0.00000000000E+00  0.00000000000E+00  0.16167017383E+04  0.16167017383E+04  0.00000000000E+00 0. -1.
         -1   -1    0    0    0  501 -0.00000000000E+00 -0.00000000000E+00 -0.16587937319E+04  0.16587937319E+04  0.00000000000E+00 0.  1.
         23    2    1    2    0    0 -0.15307963197E+04 -0.34482362011E+03 -0.48508510086E+03  0.16450097774E+04  0.92243759281E+02 0.  0.
         11    1    3    3    0    0 -0.91541397740E+03 -0.18229456394E+03 -0.24766841617E+03  0.96568820146E+03  0.00000000000E+00 0. -1.
        -11    1    3    3    0    0 -0.61538234230E+03 -0.16252905617E+03 -0.23741668469E+03  0.67932157590E+03  0.00000000000E+00 0.  1.
         22    1    1    2    0    0  0.15307963197E+04  0.34482362011E+03  0.44299310733E+03  0.16304856928E+04  0.00000000000E+00 0. -1.
<mgrwt>
<rscale>  0 0.32752250E+04</rscale>
<asrwt>0</asrwt>
<pdfrwt beam="1">  1        1 0.24872334E+00 0.32752250E+04</pdfrwt>
<pdfrwt beam="2">  1       -1 0.25519904E+00 0.32752250E+04</pdfrwt>
<totfact> 0.29132051E-01</totfact>
</mgrwt>
</event>
<event>
 6    1  0.1001928E-005  0.2064332E+04  0.7818608E-02  0.8577120E-01
          2   -1    0    0  501    0  0.00000000000E+00  0.00000000000E+00  0.16674015080E+04  0.16674015080E+04  0.00000000000E+00 0. -1.
         -2   -1    0    0    0  501 -0.00000000000E+00 -0.00000000000E+00 -0.63893812303E+03  0.63893812303E+03  0.00000000000E+00 0.  1.
         23    2    1    2    0    0  0.66036097535E+03 -0.67964501491E+03  0.96636479240E+03  0.13566816930E+04  0.93436288753E+02 0.  0.
         13    1    3    3    0    0  0.28717866300E+03 -0.32452020229E+03  0.38207359287E+03  0.57772413533E+03  0.00000000000E+00 0. -1.
        -13    1    3    3    0    0  0.37318231235E+03 -0.35512481262E+03  0.58429119953E+03  0.77895755767E+03  0.00000000000E+00 0.  1.
         22    1    1    2    0    0 -0.66036097535E+03  0.67964501491E+03  0.62098592568E+02  0.94965793803E+03  0.00000000000E+00 0.  1.
<mgrwt>
<rscale>  0 0.20643317E+04</rscale>
<asrwt>0</asrwt>
<pdfrwt beam="1">  1        2 0.25652331E+00 0.20643317E+04</pdfrwt>
<pdfrwt beam="2">  1       -2 0.98298173E-01 0.20643317E+04</pdfrwt>
<totfact> 0.81301830E+00</totfact>
</mgrwt>
</event>
<event>
 6    1  0.1001928E-005  0.2330785E+04  0.7818608E-02  0.8465881E-01
         -2   -1    0    0    0  501 -0.00000000000E+00  0.00000000000E+00  0.10039142125E+04  0.10039142125E+04  0.00000000000E+00 0.  1.
          2   -1    0    0  501    0  0.00000000000E+00 -0.00000000000E+00 -0.13528441867E+04  0.13528441867E+04  0.00000000000E+00 0. -1.
         23    2    1    2    0    0 -0.33168861257E+03  0.15135055437E+03  0.94268181103E+03  0.10146759390E+04  0.89408826719E+02 0.  0.
         11    1    3    3    0    0 -0.20826913622E+03  0.10244018679E+03  0.70766278724E+03  0.74475274112E+03  0.00000000000E+00 0. -1.
        -11    1    3    3    0    0 -0.12341947636E+03  0.48910367587E+02  0.23501902380E+03  0.26992319787E+03  0.00000000000E+00 0.  1.
         22    1    1    2    0    0  0.33168861257E+03 -0.15135055437E+03 -0.12916117852E+04  0.13420824601E+04  0.00000000000E+00 0. -1.
<mgrwt>
<rscale>  0 0.23307849E+04</rscale>
<asrwt>0</asrwt>
<pdfrwt beam="1">  1        2 0.20812988E+00 0.23307849E+04</pdfrwt>
<pdfrwt beam="2">  1       -2 0.15444834E+00 0.23307849E+04</pdfrwt>
<totfact> 0.38613733E+00</totfact>
</mgrwt>
</event>
<event>
 6    1  0.1001928E-005  0.1837504E+04  0.7818608E-02  0.8686605E-01
         -1   -1    0    0    0  501 -0.00000000000E+00  0.00000000000E+00  0.55147535017E+03  0.55147535017E+03  0.00000000000E+00 0.  1.
          1   -1    0    0  501    0  0.00000000000E+00 -0.00000000000E+00 -0.15306315749E+04  0.15306315749E+04  0.00000000000E+00 0. -1.
         23    2    1    2    0    0 -0.13708848837E+03 -0.75670509831E+03 -0.10557272310E+04  0.13092816030E+04  0.90898130633E+02 0.  0.
         13    1    3    3    0    0 -0.51807570191E+02 -0.15254298846E+03 -0.27085657272E+03  0.31514547537E+03  0.00000000000E+00 0. -1.
        -13    1    3    3    0    0 -0.85280918176E+02 -0.60416210985E+03 -0.78487065832E+03  0.99413612764E+03  0.00000000000E+00 0.  1.
         22    1    1    2    0    0  0.13708848837E+03  0.75670509831E+03  0.76571006296E+02  0.77282532208E+03  0.00000000000E+00 0.  1.
<mgrwt>
<rscale>  0 0.18375044E+04</rscale>
<asrwt>0</asrwt>
<pdfrwt beam="1">  1        1 0.23548178E+00 0.18375044E+04</pdfrwt>
<pdfrwt beam="2">  1       -1 0.84842362E-01 0.18375044E+04</pdfrwt>
<totfact> 0.80542618E+00</totfact>
</mgrwt>
</event>
<event>
 6    1  0.1001928E-005  0.2397142E+04  0.7818608E-02  0.8440574E-01
          2   -1    0    0  501    0  0.00000000000E+00  0.00000000000E+00  0.11486981720E+04  0.11486981720E+04  0.00000000000E+00 0. -1.
         -2   -1    0    0    0  501 -0.00000000000E+00 -0.00000000000E+00 -0.12506091415E+04  0.12506091415E+04  0.00000000000E+00 0.  1.
         23    2    1    2    0    0  0.74613292347E+03  0.67713520043E+03  0.59572526483E+03  0.11737777403E+04  0.87402365127E+02 0.  0.
         13    1    3    3    0    0  0.39776969219E+03  0.30210680743E+03  0.29758802897E+03  0.58141885600E+03  0.00000000000E+00 0.  1.
        -13    1    3    3    0    0  0.34836323128E+03  0.37502839300E+03  0.29813723586E+03  0.59235888435E+03  0.00000000000E+00 0. -1.
         22    1    1    2    0    0 -0.74613292347E+03 -0.67713520043E+03 -0.69763623436E+03  0.12255295731E+04  0.00000000000E+00 0.  1.
<mgrwt>
<rscale>  0 0.23971420E+04</rscale>
<asrwt>0</asrwt>
<pdfrwt beam="1">  1        2 0.17672280E+00 0.23971420E+04</pdfrwt>
<pdfrwt beam="2">  1       -2 0.19240140E+00 0.23971420E+04</pdfrwt>
<totfact> 0.27322996E+00</totfact>
</mgrwt>
</event>
<event>
 6    1  0.1001928E-005  0.7025388E+03  0.7818608E-02  0.9712900E-01
          1   -1    0    0  501    0  0.00000000000E+00  0.00000000000E+00  0.11071995694E+04  0.11071995694E+04  0.00000000000E+00 0. -1.
         -1   -1    0    0    0  501 -0.00000000000E+00 -0.00000000000E+00 -0.11144351167E+03  0.11144351167E+03  0.00000000000E+00 0.  1.
         23    2    1    2    0    0  0.26033797147E+03  0.13780424943E+03  0.81932976046E+03  0.87528887778E+03  0.89796952231E+02 0.  0.
         11    1    3    3    0    0  0.12370783198E+03  0.77695033239E+02  0.28173277776E+03  0.31735390962E+03  0.00000000000E+00 0.  1.
        -11    1    3    3    0    0  0.13663013949E+03  0.60109216194E+02  0.53759698270E+03  0.55793496816E+03  0.00000000000E+00 0. -1.
         22    1    1    2    0    0 -0.26033797147E+03 -0.13780424943E+03  0.17642629727E+03  0.34335420329E+03  0.00000000000E+00 0.  1.
<mgrwt>
<rscale>  0 0.70253885E+03</rscale>
<asrwt>0</asrwt>
<pdfrwt beam="1">  1        1 0.17033839E+00 0.70253885E+03</pdfrwt>
<pdfrwt beam="2">  1       -1 0.17145156E-01 0.70253885E+03</pdfrwt>
<totfact> 0.33542304E+02</totfact>
</mgrwt>
</event>
<event>
 6    1  0.1001928E-005  0.2403579E+04  0.7818608E-02  0.8438165E-01
          1   -1    0    0  501    0  0.00000000000E+00  0.00000000000E+00  0.25369267235E+04  0.25369267235E+04  0.00000000000E+00 0. -1.
         -1   -1    0    0    0  501 -0.00000000000E+00 -0.00000000000E+00 -0.56931008173E+03  0.56931008173E+03  0.00000000000E+00 0.  1.
         23    2    1    2    0    0 -0.28660222595E+03 -0.76928825030E+03 -0.14689169722E+03  0.83795755354E+03  0.81550247359E+02 0.  0.
         13    1    3    3    0    0 -0.25601299774E+03 -0.59750342885E+03 -0.12712173166E+03  0.66235408745E+03  0.00000000000E+00 0. -1.
        -13    1    3    3    0    0 -0.30589228207E+02 -0.17178482145E+03 -0.19769965563E+02  0.17560346608E+03  0.00000000000E+00 0.  1.
         22    1    1    2    0    0  0.28660222595E+03  0.76928825030E+03  0.21145083390E+04  0.22682792517E+04  0.00000000000E+00 0. -1.
<mgrwt>
<rscale>  0 0.24035790E+04</rscale>
<asrwt>0</asrwt>
<pdfrwt beam="1">  1        1 0.39029641E+00 0.24035790E+04</pdfrwt>
<pdfrwt beam="2">  1       -1 0.87586168E-01 0.24035790E+04</pdfrwt>
<totfact> 0.14667404E+00</totfact>
</mgrwt>
</event>
<event>
 6    1  0.1001928E-005  0.4628907E+04  0.7818608E-02  0.7888450E-01
         -2   -1    0    0    0  501 -0.00000000000E+00  0.00000000000E+00  0.24254431434E+04  0.24254431434E+04  0.00000000000E+00 0.  1.
          2   -1    0    0  501    0  0.00000000000E+00 -0.00000000000E+00 -0.22085432222E+04  0.22085432222E+04  0.00000000000E+00 0. -1.
         23    2    1    2    0    0 -0.17328612828E+04  0.14804955314E+04  0.50596709374E+03  0.23365453818E+04  0.93628936551E+02 0.  0.
         13    1    3    3    0    0 -0.10542791877E+04  0.84239649227E+03  0.28678435998E+03  0.13796310104E+04  0.00000000000E+00 0.  1.
        -13    1    3    3    0    0 -0.67858209505E+03  0.63809903910E+03  0.21918273376E+03  0.95691437140E+03  0.00000000000E+00 0. -1.
         22    1    1    2    0    0  0.17328612828E+04 -0.14804955314E+04 -0.28906717251E+03  0.22974409838E+04  0.00000000000E+00 0.  1.
<mgrwt>
<rscale>  0 0.46289074E+04</rscale>
<asrwt>0</asrwt>
<pdfrwt beam="1">  1        2 0.33977588E+00 0.46289074E+04</pdfrwt>
<pdfrwt beam="2">  1       -2 0.37314510E+00 0.46289074E+04</pdfrwt>
<totfact> 0.42446164E-02</totfact>
</mgrwt>
</event>
<event>
 6    1  0.1001928E-005  0.1494718E+04  0.7818608E-02  0.8887973E-01
         -1   -1    0    0    0  501 -0.00000000000E+00  0.00000000000E+00  0.11867644180E+04  0.11867644180E+04  0.00000000000E+00 0.  1.
          1   -1    0    0  501    0  0.00000000000E+00 -0.00000000000E+00 -0.47064574536E+03  0.47064574536E+03  0.00000000000E+00 0. -1.
         23    2    1    2    0    0  0.65281252351E+03 -0.28065306858E+03  0.60619686072E+03  0.93837390521E+03  0.90225363789E+02 0.  0.
         13    1    3    3    0    0  0.89225134594E+02 -0.55875336917E+02  0.12861690494E+03  0.16620916387E+03  0.00000000000E+00 0.  1.
        -13    1    3    3    0    0  0.56358738892E+03 -0.22477773166E+03  0.47757995578E+03  0.77216474133E+03  0.00000000000E+00 0. -1.
         22    1    1    2    0    0 -0.65281252351E+03  0.28065306858E+03  0.10992181187E+03  0.71903625811E+03  0.00000000000E+00 0. -1.
<mgrwt>
<rscale>  0 0.14947182E+04</rscale>
<asrwt>0</asrwt>
<pdfrwt beam="1">  1        1 0.72407038E-01 0.14947182E+04</pdfrwt>
<pdfrwt beam="2">  1       -1 0.18257914E+00 0.14947182E+04</pdfrwt>
<totfact> 0.92955279E+00</totfact>
</mgrwt>
</event>
<event>
 6    1  0.1001928E-005  0.1978655E+04  0.7818608E-02  0.8616666E-01
          2   -1    0    0  501    0  0.00000000000E+00  0.00000000000E+00  0.20607464851E+04  0.20607464851E+04  0.00000000000E+00 0. -1.
         -2   -1    0    0    0  501 -0.00000000000E+00 -0.00000000000E+00 -0.47495856999E+03  0.47495856999E+03  0.00000000000E+00 0.  1.
         23    2    1    2    0    0  0.73431558130E+03 -0.63978021353E+03  0.10014735942E+04  0.13999404139E+04  0.91354846686E+02 0.  0.
         13    1    3    3    0    0  0.65806163531E+03 -0.60448015518E+03  0.92886054345E+03  0.12888845111E+04  0.00000000000E+00 0. -1.
        -13    1    3    3    0    0  0.76253945986E+02 -0.35300058351E+02  0.72613050776E+02  0.11105590277E+03  0.00000000000E+00 0.  1.
         22    1    1    2    0    0 -0.73431558130E+03  0.63978021353E+03  0.58431432091E+03  0.11357646412E+04  0.00000000000E+00 0.  1.
<mgrwt>
<rscale>  0 0.19786553E+04</rscale>
<asrwt>0</asrwt>
<pdfrwt beam="1">  1        2 0.31703792E+00 0.19786553E+04</pdfrwt>
<pdfrwt beam="2">  1       -2 0.73070551E-01 0.19786553E+04</pdfrwt>
<totfact> 0.97290751E+00</totfact>
</mgrwt>
</event>
<event>
 6    1  0.1001928E-005  0.1361878E+04  0.7818608E-02  0.8981885E-01
         -2   -1    0    0    0  501 -0.00000000000E+00  0.00000000000E+00  0.27186601259E+03  0.27186601259E+03  0.00000000000E+00 0.  1.
          2   -1    0    0  501    0  0.00000000000E+00 -0.00000000000E+00 -0.17055380433E+04  0.17055380433E+04  0.00000000000E+00 0. -1.
         23    2    1    2    0    0  0.10919210750E+02 -0.54641720709E+03 -0.13022730910E+04  0.14153038204E+04  0.92079896342E+02 0.  0.
         11    1    3    3    0    0 -0.20303458649E+02 -0.36305240354E+02 -0.72889133942E+02  0.83923338572E+02  0.00000000000E+00 0. -1.
        -11    1    3    3    0    0  0.31222669400E+02 -0.51011196673E+03 -0.12293839570E+04  0.13313804818E+04  0.00000000000E+00 0.  1.
         22    1    1    2    0    0 -0.10919210750E+02  0.54641720709E+03 -0.13139893978E+03  0.56210023549E+03  0.00000000000E+00 0.  1.
<mgrwt>
<rscale>  0 0.13618779E+04</rscale>
<asrwt>0</asrwt>
<pdfrwt beam="1">  1        2 0.26239047E+00 0.13618779E+04</pdfrwt>
<pdfrwt beam="2">  1       -2 0.41825540E-01 0.13618779E+04</pdfrwt>
<totfact> 0.51472490E+01</totfact>
</mgrwt>
</event>
<event>
 6    1  0.1001928E-005  0.2849316E+04  0.7818608E-02  0.8288119E-01
          2   -1    0    0  501    0  0.00000000000E+00  0.00000000000E+00  0.13211270580E+04  0.13211270580E+04  0.00000000000E+00 0. -1.
         -2   -1    0    0    0  501 -0.00000000000E+00 -0.00000000000E+00 -0.15363017259E+04  0.15363017259E+04  0.00000000000E+00 0.  1.
         23    2    1    2    0    0  0.10572382076E+04  0.77843476654E+02  0.84469846679E+03  0.13583813210E+04  0.88724737618E+02 0.  0.
         13    1    3    3    0    0  0.91835332696E+03  0.94110282907E+02  0.75103088991E+03  0.11900743574E+04  0.00000000000E+00 0.  1.
        -13    1    3    3    0    0  0.13888488065E+03 -0.16266806254E+02  0.93667576877E+02  0.16830696366E+03  0.00000000000E+00 0. -1.
         22    1    1    2    0    0 -0.10572382076E+04 -0.77843476654E+02 -0.10598731346E+04  0.14990474629E+04  0.00000000000E+00 0.  1.
<mgrwt>
<rscale>  0 0.28493156E+04</rscale>
<asrwt>0</asrwt>
<pdfrwt beam="1">  1        2 0.20325032E+00 0.28493156E+04</pdfrwt>
<pdfrwt beam="2">  1       -2 0.23635411E+00 0.28493156E+04</pdfrwt>
<totfact> 0.10868223E+00</totfact>
</mgrwt>
</event>
<event>
 6    1  0.1001928E-005  0.1049384E+04  0.7818608E-02  0.9255980E-01
          2   -1    0    0  501    0  0.00000000000E+00  0.00000000000E+00  0.11628587543E+04  0.11628587543E+04  0.00000000000E+00 0. -1.
         -2   -1    0    0    0  501 -0.00000000000E+00 -0.00000000000E+00 -0.23674557854E+03  0.23674557854E+03  0.00000000000E+00 0.  1.
         23    2    1    2    0    0 -0.22869554215E+03  0.41421107152E+03  0.75576622775E+03  0.89672209465E+03  0.95160187372E+02 0.  0.
         13    1    3    3    0    0 -0.10605085053E+03  0.21448034624E+03  0.46771779532E+03  0.52536514719E+03  0.00000000000E+00 0. -1.
        -13    1    3    3    0    0 -0.12264469163E+03  0.19973072528E+03  0.28804843242E+03  0.37135694746E+03  0.00000000000E+00 0.  1.
         22    1    1    2    0    0  0.22869554215E+03 -0.41421107152E+03  0.17034694800E+03  0.50288223817E+03  0.00000000000E+00 0.  1.
<mgrwt>
<rscale>  0 0.10493839E+04</rscale>
<asrwt>0</asrwt>
<pdfrwt beam="1">  1        2 0.17890134E+00 0.10493839E+04</pdfrwt>
<pdfrwt beam="2">  1       -2 0.36422397E-01 0.10493839E+04</pdfrwt>
<totfact> 0.14075096E+02</totfact>
</mgrwt>
</event>
<event>
 6    1  0.1001928E-005  0.2093083E+04  0.7818608E-02  0.8564296E-01
          2   -1    0    0  501    0  0.00000000000E+00  0.00000000000E+00  0.22952161623E+04  0.22952161623E+04  0.00000000000E+00 0. -1.
         -2   -1    0    0    0  501 -0.00000000000E+00 -0.00000000000E+00 -0.47718783393E+03  0.47718783393E+03  0.00000000000E+00 0.  1.
         23    2    1    2    0    0  0.56217402362E+03  0.13144857856E+03 -0.24224626832E+03  0.63276622889E+03  0.91605045015E+02 0.  0.
         11    1    3    3    0    0  0.43912753240E+03  0.12804690252E+03 -0.22041534076E+03  0.50775183053E+03  0.00000000000E+00 0. -1.
        -11    1    3    3    0    0  0.12304649122E+03  0.34016760410E+01 -0.21830927557E+02  0.12501439836E+03  0.00000000000E+00 0.  1.
         22    1    1    2    0    0 -0.56217402362E+03 -0.13144857856E+03  0.20602745967E+04  0.21396377674E+04  0.00000000000E+00 0. -1.
<mgrwt>
<rscale>  0 0.20930831E+04</rscale>
<asrwt>0</asrwt>
<pdfrwt beam="1">  1        2 0.35311017E+00 0.20930831E+04</pdfrwt>
<pdfrwt beam="2">  1       -2 0.73413514E-01 0.20930831E+04</pdfrwt>
<totfact> 0.70428159E+00</totfact>
</mgrwt>
</event>
<event>
 6    1  0.1765799E-005  0.4481625E+04  0.7818608E-02  0.7913862E-01
         -2   -1    0    0    0  501 -0.00000000000E+00  0.00000000000E+00  0.14200597614E+04  0.14200597614E+04  0.00000000000E+00 0.  1.
          2   -1    0    0  501    0  0.00000000000E+00 -0.00000000000E+00 -0.35359358558E+04  0.35359358558E+04  0.00000000000E+00 0. -1.
         23    2    1    2    0    0 -0.31956063912E+03 -0.51014647080E+03  0.13275346853E+04  0.14603631677E+04  0.89128093541E+02 0.  0.
         13    1    3    3    0    0 -0.11996909784E+03 -0.23614182184E+03  0.67317470135E+03  0.72340840678E+03  0.00000000000E+00 0. -1.
        -13    1    3    3    0    0 -0.19959154128E+03 -0.27400464896E+03  0.65435998395E+03  0.73695476089E+03  0.00000000000E+00 0.  1.
         22    1    1    2    0    0  0.31956063912E+03  0.51014647080E+03 -0.34434107798E+04  0.34956324495E+04  0.00000000000E+00 0. -1.
<mgrwt>
<rscale>  0 0.44816248E+04</rscale>
<asrwt>0</asrwt>
<pdfrwt beam="1">  1        2 0.54399013E+00 0.44816248E+04</pdfrwt>
<pdfrwt beam="2">  1       -2 0.21847073E+00 0.44816248E+04</pdfrwt>
<totfact> 0.58703546E-02</totfact>
</mgrwt>
</event>
<event>
 6    1  0.1001928E-005  0.2534295E+04  0.7818608E-02  0.8390869E-01
         -2   -1    0    0    0  501 -0.00000000000E+00  0.00000000000E+00  0.71698723501E+03  0.71698723501E+03  0.00000000000E+00 0.  1.
          2   -1    0    0  501    0  0.00000000000E+00 -0.00000000000E+00 -0.22394585679E+04  0.22394585679E+04  0.00000000000E+00 0. -1.
         23    2    1    2    0    0 -0.43767300928E+03  0.11866165746E+04 -0.81644236854E+03  0.15079660976E+04  0.88130880228E+02 0.  0.
         11    1    3    3    0    0 -0.13147808575E+02  0.88449386489E+02 -0.42542028725E+02  0.99025163715E+02  0.00000000000E+00 0.  1.
        -11    1    3    3    0    0 -0.42452520070E+03  0.10981671882E+04 -0.77390033981E+03  0.14089409339E+04  0.00000000000E+00 0. -1.
         22    1    1    2    0    0  0.43767300928E+03 -0.11866165746E+04 -0.70602896438E+03  0.14484797054E+04  0.00000000000E+00 0. -1.
<mgrwt>
<rscale>  0 0.25342953E+04</rscale>
<asrwt>0</asrwt>
<pdfrwt beam="1">  1        2 0.34453209E+00 0.25342953E+04</pdfrwt>
<pdfrwt beam="2">  1       -2 0.11030573E+00 0.25342953E+04</pdfrwt>
<totfact> 0.28470849E+00</totfact>
</mgrwt>
</event>
<event>
 6    1  0.1001928E-005  0.7707458E+03  0.7818608E-02  0.9603354E-01
          2   -1    0    0  501    0  0.00000000000E+00  0.00000000000E+00  0.13445934260E+04  0.13445934260E+04  0.00000000000E+00 0.  1.
         -2   -1    0    0    0  501 -0.00000000000E+00 -0.00000000000E+00 -0.11045142982E+03  0.11045142982E+03  0.00000000000E+00 0. -1.
         23    2    1    2    0    0  0.23463862158E+03 -0.29854102692E+03  0.67162241232E+03  0.77636208036E+03  0.86483452689E+02 0.  0.
         13    1    3    3    0    0  0.98459233407E+02 -0.19361335783E+03  0.35940146056E+03  0.41994018958E+03  0.00000000000E+00 0. -1.
        -13    1    3    3    0    0  0.13617938818E+03 -0.10492766910E+03  0.31222095176E+03  0.35642189077E+03  0.00000000000E+00 0.  1.
         22    1    1    2    0    0 -0.23463862158E+03  0.29854102692E+03  0.56251958384E+03  0.67868277546E+03  0.00000000000E+00 0.  1.
<mgrwt>
<rscale>  0 0.77074579E+03</rscale>
<asrwt>0</asrwt>
<pdfrwt beam="1">  1        2 0.20686052E+00 0.77074579E+03</pdfrwt>
<pdfrwt beam="2">  1       -2 0.16992529E-01 0.77074579E+03</pdfrwt>
<totfact> 0.44497387E+02</totfact>
</mgrwt>
</event>
<event>
 6    1  0.1001928E-005  0.3528682E+04  0.7818608E-02  0.8107026E-01
          1   -1    0    0  501    0  0.00000000000E+00  0.00000000000E+00  0.26395356704E+04  0.26395356704E+04  0.00000000000E+00 0. -1.
         -1   -1    0    0    0  501 -0.00000000000E+00 -0.00000000000E+00 -0.11793362053E+04  0.11793362053E+04  0.00000000000E+00 0.  1.
         23    2    1    2    0    0 -0.15599053480E+04 -0.80976185574E+03  0.57939402013E+03  0.18529529584E+04  0.93371719307E+02 0.  0.
         13    1    3    3    0    0 -0.62632860082E+03 -0.32188679747E+03  0.18422757536E+03  0.72790001107E+03  0.00000000000E+00 0.  1.
        -13    1    3    3    0    0 -0.93357674714E+03 -0.48787505827E+03  0.39516644477E+03  0.11250529474E+04  0.00000000000E+00 0. -1.
         22    1    1    2    0    0  0.15599053480E+04  0.80976185574E+03  0.88080544491E+03  0.19659189173E+04  0.00000000000E+00 0.  1.
<mgrwt>
<rscale>  0 0.35286825E+04</rscale>
<asrwt>0</asrwt>
<pdfrwt beam="1">  1        1 0.40608241E+00 0.35286825E+04</pdfrwt>
<pdfrwt beam="2">  1       -1 0.18143634E+00 0.35286825E+04</pdfrwt>
<totfact> 0.17899855E-01</totfact>
</mgrwt>
</event>
<event>
 6    1  0.1001928E-005  0.2491680E+04  0.7818608E-02  0.8405956E-01
          2   -1    0    0  501    0  0.00000000000E+00  0.00000000000E+00  0.12856056973E+04  0.12856056973E+04  0.00000000000E+00 0. -1.
         -2   -1    0    0    0  501 -0.00000000000E+00 -0.00000000000E+00 -0.12073043582E+04  0.12073043582E+04  0.00000000000E+00 0.  1.
         23    2    1    2    0    0 -0.11209774586E+04  0.25151165058E+03 -0.43867187320E+03  0.12331045644E+04  0.90913593273E+02 0.  0.
         13    1    3    3    0    0 -0.26651745385E+03  0.96311429923E+02 -0.90736576719E+02  0.29755767692E+03  0.00000000000E+00 0.  1.
        -13    1    3    3    0    0 -0.85446000475E+03  0.15520022066E+03 -0.34793529648E+03  0.93554688752E+03  0.00000000000E+00 0. -1.
         22    1    1    2    0    0  0.11209774586E+04 -0.25151165058E+03  0.51697321230E+03  0.12598054911E+04  0.00000000000E+00 0. -1.
<mgrwt>
<rscale>  0 0.24916800E+04</rscale>
<asrwt>0</asrwt>
<pdfrwt beam="1">  1        2 0.19778549E+00 0.24916800E+04</pdfrwt>
<pdfrwt beam="2">  1       -2 0.18573913E+00 0.24916800E+04</pdfrwt>
<totfact> 0.24915690E+00</totfact>
</mgrwt>
</event>
<event>
 6    1  0.1001928E-005  0.1527993E+04  0.7818608E-02  0.8866049E-01
          1   -1    0    0  501    0  0.00000000000E+00  0.00000000000E+00  0.12368452720E+04  0.12368452720E+04  0.00000000000E+00 0. -1.
         -1   -1    0    0    0  501 -0.00000000000E+00 -0.00000000000E+00 -0.47191871203E+03  0.47191871203E+03  0.00000000000E+00 0.  1.
         23    2    1    2    0    0  0.67735741167E+03  0.34741198646E+03  0.40371875221E+03  0.86616133043E+03  0.87968562441E+02 0.  0.
         11    1    3    3    0    0  0.57563472287E+03  0.32871744697E+03  0.34747007261E+03  0.74842898492E+03  0.00000000000E+00 0.  1.
        -11    1    3    3    0    0  0.10172268879E+03  0.18694539494E+02  0.56248679602E+02  0.11773234551E+03  0.00000000000E+00 0. -1.
         22    1    1    2    0    0 -0.67735741167E+03 -0.34741198646E+03  0.36120780777E+03  0.84260265361E+03  0.00000000000E+00 0.  1.
<mgrwt>
<rscale>  0 0.15279927E+04</rscale>
<asrwt>0</asrwt>
<pdfrwt beam="1">  1        1 0.19028389E+00 0.15279927E+04</pdfrwt>
<pdfrwt beam="2">  1       -1 0.72602879E-01 0.15279927E+04</pdfrwt>
<totfact> 0.18549575E+01</totfact>
</mgrwt>
</event>
<event>
 6    1  0.1001928E-005  0.2449051E+04  0.7818608E-02  0.8421364E-01
         -1   -1    0    0    0  501 -0.00000000000E+00  0.00000000000E+00  0.66978752227E+03  0.66978752227E+03  0.00000000000E+00 0.  1.
          1   -1    0    0  501    0  0.00000000000E+00 -0.00000000000E+00 -0.22387146799E+04  0.22387146799E+04  0.00000000000E+00 0. -1.
         23    2    1    2    0    0  0.98229326573E+03  0.72775233263E+03 -0.75188816380E+03  0.14381021767E+04  0.90986494053E+02 0.  0.
         13    1    3    3    0    0  0.55944740138E+03  0.44571370459E+03 -0.48289824107E+03  0.86303697059E+03  0.00000000000E+00 0.  1.
        -13    1    3    3    0    0  0.42284586435E+03  0.28203862804E+03 -0.26898992273E+03  0.57506520607E+03  0.00000000000E+00 0. -1.
         22    1    1    2    0    0 -0.98229326573E+03 -0.72775233263E+03 -0.81703899378E+03  0.14704000255E+04  0.00000000000E+00 0. -1.
<mgrwt>
<rscale>  0 0.24490514E+04</rscale>
<asrwt>0</asrwt>
<pdfrwt beam="1">  1        1 0.34441764E+00 0.24490514E+04</pdfrwt>
<pdfrwt beam="2">  1       -1 0.10304423E+00 0.24490514E+04</pdfrwt>
<totfact> 0.16264510E+00</totfact>
</mgrwt>
</event>
<event>
 6    1  0.1001928E-005  0.3821827E+04  0.7818608E-02  0.8041487E-01
         -1   -1    0    0    0  501 -0.00000000000E+00  0.00000000000E+00  0.14915583361E+04  0.14915583361E+04  0.00000000000E+00 0.  1.
          1   -1    0    0  501    0  0.00000000000E+00 -0.00000000000E+00 -0.24481712686E+04  0.24481712686E+04  0.00000000000E+00 0. -1.
         23    2    1    2    0    0 -0.16388370791E+04 -0.27529871671E+03  0.49170351519E+03  0.17353709933E+04  0.90353652164E+02 0.  0.
         13    1    3    3    0    0 -0.46353059218E+03 -0.37568921162E+02  0.12911100772E+03  0.48264032782E+03  0.00000000000E+00 0.  1.
        -13    1    3    3    0    0 -0.11753064869E+04 -0.23772979555E+03  0.36259250747E+03  0.12527306655E+04  0.00000000000E+00 0. -1.
         22    1    1    2    0    0  0.16388370791E+04  0.27529871671E+03 -0.14483164477E+04  0.22043586114E+04  0.00000000000E+00 0. -1.
<mgrwt>
<rscale>  0 0.38218269E+04</rscale>
<asrwt>0</asrwt>
<pdfrwt beam="1">  1        1 0.37664173E+00 0.38218269E+04</pdfrwt>
<pdfrwt beam="2">  1       -1 0.22947052E+00 0.38218269E+04</pdfrwt>
<totfact> 0.11121693E-01</totfact>
</mgrwt>
</event>
<event>
 6    1  0.1001928E-005  0.1955139E+04  0.7818608E-02  0.8627887E-01
         -1   -1    0    0    0  501 -0.00000000000E+00  0.00000000000E+00  0.11136339591E+04  0.11136339591E+04  0.00000000000E+00 0.  1.
          1   -1    0    0  501    0  0.00000000000E+00 -0.00000000000E+00 -0.85812925563E+03  0.85812925563E+03  0.00000000000E+00 0. -1.
         23    2    1    2    0    0 -0.42222021572E+03  0.48301268174E+03  0.86916388430E+03  0.10839857925E+04  0.89488430983E+02 0.  0.
         13    1    3    3    0    0 -0.74795157281E+02  0.44054201859E+02  0.95898228536E+02  0.12935052567E+03  0.00000000000E+00 0.  1.
        -13    1    3    3    0    0 -0.34742505844E+03  0.43895847988E+03  0.77326565577E+03  0.95463526683E+03  0.00000000000E+00 0. -1.
         22    1    1    2    0    0  0.42222021572E+03 -0.48301268174E+03 -0.61365918080E+03  0.88777742225E+03  0.00000000000E+00 0. -1.
<mgrwt>
<rscale>  0 0.19551387E+04</rscale>
<asrwt>0</asrwt>
<pdfrwt beam="1">  1        1 0.13201988E+00 0.19551387E+04</pdfrwt>
<pdfrwt beam="2">  1       -1 0.17132830E+00 0.19551387E+04</pdfrwt>
<totfact> 0.44169178E+00</totfact>
</mgrwt>
</event>
<event>
 6    1  0.1001928E-005  0.3517482E+04  0.7818608E-02  0.8109659E-01
          1   -1    0    0  501    0  0.00000000000E+00  0.00000000000E+00  0.12684366064E+04  0.12684366064E+04  0.00000000000E+00 0. -1.
         -1   -1    0    0    0  501 -0.00000000000E+00 -0.00000000000E+00 -0.24385688979E+04  0.24385688979E+04  0.00000000000E+00 0.  1.
         23    2    1    2    0    0  0.42803338631E+03 -0.16713333459E+04 -0.23238343639E+03  0.17433505835E+04  0.93281630355E+02 0.  0.
         11    1    3    3    0    0  0.18045133181E+03 -0.55060864705E+03 -0.55885029846E+02  0.58211313498E+03  0.00000000000E+00 0. -1.
        -11    1    3    3    0    0  0.24758205450E+03 -0.11207246988E+04 -0.17649840655E+03  0.11612374485E+04  0.00000000000E+00 0.  1.
         22    1    1    2    0    0 -0.42803338631E+03  0.16713333459E+04 -0.93774885507E+03  0.19636549208E+04  0.00000000000E+00 0.  1.
<mgrwt>
<rscale>  0 0.35174821E+04</rscale>
<asrwt>0</asrwt>
<pdfrwt beam="1">  1        1 0.19514409E+00 0.35174821E+04</pdfrwt>
<pdfrwt beam="2">  1       -1 0.37516444E+00 0.35174821E+04</pdfrwt>
<totfact> 0.81836698E-02</totfact>
</mgrwt>
</event>
<event>
 6    1  0.1001928E-005  0.1073692E+04  0.7818608E-02  0.9231220E-01
         -2   -1    0    0    0  501 -0.00000000000E+00  0.00000000000E+00  0.99537902664E+03  0.99537902664E+03  0.00000000000E+00 0.  1.
          2   -1    0    0  501    0  0.00000000000E+00 -0.00000000000E+00 -0.28954136399E+03  0.28954136399E+03  0.00000000000E+00 0. -1.
         23    2    1    2    0    0  0.69204324728E+02  0.44926081581E+03  0.23313164165E+02  0.46488123899E+03  0.94586169993E+02 0.  0.
         13    1    3    3    0    0  0.20994593998E+01  0.24060894354E+03  0.44442140029E+02  0.24468791399E+03  0.00000000000E+00 0.  1.
        -13    1    3    3    0    0  0.67104865328E+02  0.20865187227E+03 -0.21128975864E+02  0.22019332500E+03  0.00000000000E+00 0. -1.
         22    1    1    2    0    0 -0.69204324728E+02 -0.44926081581E+03  0.68252449849E+03  0.82003915164E+03  0.00000000000E+00 0.  1.
<mgrwt>
<rscale>  0 0.10736916E+04</rscale>
<asrwt>0</asrwt>
<pdfrwt beam="1">  1        2 0.44544826E-01 0.10736916E+04</pdfrwt>
<pdfrwt beam="2">  1       -2 0.15313523E+00 0.10736916E+04</pdfrwt>
<totfact> 0.32173629E+01</totfact>
</mgrwt>
</event>
<event>
 6    1  0.1001928E-005  0.1204237E+04  0.7818608E-02  0.9109156E-01
         -1   -1    0    0    0  501 -0.00000000000E+00  0.00000000000E+00  0.33331428383E+03  0.33331428383E+03  0.00000000000E+00 0.  1.
          1   -1    0    0  501    0  0.00000000000E+00 -0.00000000000E+00 -0.10877020747E+04  0.10877020747E+04  0.00000000000E+00 0. -1.
         23    2    1    2    0    0  0.12587977056E+03 -0.22854361408E+03  0.25653415642E+03  0.37696603229E+03  0.90640586487E+02 0.  0.
         13    1    3    3    0    0  0.27198816282E+02 -0.13838535030E+03  0.15137446634E+03  0.20689250795E+03  0.00000000000E+00 0. -1.
        -13    1    3    3    0    0  0.98680954282E+02 -0.90158263779E+02  0.10515969008E+03  0.17007352435E+03  0.00000000000E+00 0.  1.
         22    1    1    2    0    0 -0.12587977056E+03  0.22854361408E+03 -0.10109219473E+04  0.10440503262E+04  0.00000000000E+00 0. -1.
<mgrwt>
<rscale>  0 0.12042369E+04</rscale>
<asrwt>0</asrwt>
<pdfrwt beam="1">  1        1 0.16733878E+00 0.12042369E+04</pdfrwt>
<pdfrwt beam="2">  1       -1 0.51279121E-01 0.12042369E+04</pdfrwt>
<totfact> 0.49004472E+01</totfact>
</mgrwt>
</event>
<event>
 6    1  0.1001928E-005  0.1580955E+04  0.7818608E-02  0.8832334E-01
         -2   -1    0    0    0  501 -0.00000000000E+00  0.00000000000E+00  0.82451527912E+03  0.82451527912E+03  0.00000000000E+00 0.  1.
          2   -1    0    0  501    0  0.00000000000E+00 -0.00000000000E+00 -0.75784466579E+03  0.75784466579E+03  0.00000000000E+00 0. -1.
         23    2    1    2    0    0  0.61503365029E+02  0.40142157338E+03  0.71089131037E+03  0.82082055001E+03  0.58804563419E+02 0.  0.
         11    1    3    3    0    0  0.28326204559E+02  0.33052815889E+03  0.56190786218E+03  0.65252715136E+03  0.00000000000E+00 0.  1.
        -11    1    3    3    0    0  0.33177160471E+02  0.70893414484E+02  0.14898344819E+03  0.16829339865E+03  0.00000000000E+00 0. -1.
         22    1    1    2    0    0 -0.61503365029E+02 -0.40142157338E+03 -0.64422069704E+03  0.76153939489E+03  0.00000000000E+00 0. -1.
<mgrwt>
<rscale>  0 0.15809548E+04</rscale>
<asrwt>0</asrwt>
<pdfrwt beam="1">  1        2 0.11659149E+00 0.15809548E+04</pdfrwt>
<pdfrwt beam="2">  1       -2 0.12684851E+00 0.15809548E+04</pdfrwt>
<totfact> 0.16413939E+01</totfact>
</mgrwt>
</event>
<event>
 6    1  0.1001928E-005  0.2064472E+04  0.7818608E-02  0.8577057E-01
          1   -1    0    0  501    0  0.00000000000E+00  0.00000000000E+00  0.11006829235E+04  0.11006829235E+04  0.00000000000E+00 0. -1.
         -1   -1    0    0    0  501 -0.00000000000E+00 -0.00000000000E+00 -0.96804525095E+03  0.96804525095E+03  0.00000000000E+00 0.  1.
         23    2    1    2    0    0  0.87273093460E+02 -0.65174189579E+03 -0.72841768515E+03  0.98530747103E+03  0.88625035101E+02 0.  0.
         13    1    3    3    0    0  0.94378630415E+02 -0.39085171258E+03 -0.42422662093E+03  0.58450031054E+03  0.00000000000E+00 0.  1.
        -13    1    3    3    0    0 -0.71055369556E+01 -0.26089018321E+03 -0.30419106422E+03  0.40080716049E+03  0.00000000000E+00 0. -1.
         22    1    1    2    0    0 -0.87273093460E+02  0.65174189579E+03  0.86105535773E+03  0.10834207034E+04  0.00000000000E+00 0. -1.
<mgrwt>
<rscale>  0 0.20644717E+04</rscale>
<asrwt>0</asrwt>
<pdfrwt beam="1">  1        1 0.16933583E+00 0.20644717E+04</pdfrwt>
<pdfrwt beam="2">  1       -1 0.14893004E+00 0.20644717E+04</pdfrwt>
<totfact> 0.41557640E+00</totfact>
</mgrwt>
</event>
<event>
 6    1  0.1001928E-005  0.1553745E+04  0.7818608E-02  0.8849479E-01
         -1   -1    0    0    0  501 -0.00000000000E+00  0.00000000000E+00  0.10276844722E+04  0.10276844722E+04  0.00000000000E+00 0.  1.
          1   -1    0    0  501    0  0.00000000000E+00 -0.00000000000E+00 -0.58727223853E+03  0.58727223853E+03  0.00000000000E+00 0. -1.
         23    2    1    2    0    0 -0.10514305096E+03 -0.72054895156E+03 -0.52499939267E+02  0.73563409475E+03  0.90307391551E+02 0.  0.
         13    1    3    3    0    0 -0.30120603082E+02 -0.49605009177E+03 -0.41006161554E+02  0.49865263416E+03  0.00000000000E+00 0. -1.
        -13    1    3    3    0    0 -0.75022447873E+02 -0.22449885980E+03 -0.11493777713E+02  0.23698146058E+03  0.00000000000E+00 0.  1.
         22    1    1    2    0    0  0.10514305096E+03  0.72054895156E+03  0.49291217295E+03  0.87932261600E+03  0.00000000000E+00 0.  1.
<mgrwt>
<rscale>  0 0.15537446E+04</rscale>
<asrwt>0</asrwt>
<pdfrwt beam="1">  1        1 0.90349575E-01 0.15537446E+04</pdfrwt>
<pdfrwt beam="2">  1       -1 0.15810530E+00 0.15537446E+04</pdfrwt>
<totfact> 0.10278684E+01</totfact>
</mgrwt>
</event>
<event>
 6    1  0.1001928E-005  0.1646751E+04  0.7818608E-02  0.8792331E-01
         -2   -1    0    0    0  501 -0.00000000000E+00  0.00000000000E+00  0.95692057853E+03  0.95692057853E+03  0.00000000000E+00 0.  1.
          2   -1    0    0  501    0  0.00000000000E+00 -0.00000000000E+00 -0.70846746931E+03  0.70846746931E+03  0.00000000000E+00 0. -1.
         23    2    1    2    0    0  0.40377293586E+03  0.49555488006E+03 -0.39627839765E+03  0.75748610444E+03  0.90229746139E+02 0.  0.
         11    1    3    3    0    0  0.16406495588E+03  0.16423428703E+03 -0.10142872623E+03  0.25333376658E+03  0.00000000000E+00 0.  1.
        -11    1    3    3    0    0  0.23970797997E+03  0.33132059303E+03 -0.29484967142E+03  0.50415233786E+03  0.00000000000E+00 0. -1.
         22    1    1    2    0    0 -0.40377293586E+03 -0.49555488006E+03  0.64473150687E+03  0.90790194340E+03  0.00000000000E+00 0.  1.
<mgrwt>
<rscale>  0 0.16467509E+04</rscale>
<asrwt>0</asrwt>
<pdfrwt beam="1">  1        2 0.10899500E+00 0.16467509E+04</pdfrwt>
<pdfrwt beam="2">  1       -2 0.14721855E+00 0.16467509E+04</pdfrwt>
<totfact> 0.12132363E+01</totfact>
</mgrwt>
</event>
<event>
 6    1  0.1001928E-005  0.4454265E+04  0.7818608E-02  0.7918693E-01
          1   -1    0    0  501    0  0.00000000000E+00  0.00000000000E+00  0.22822425791E+04  0.22822425791E+04  0.00000000000E+00 0. -1.
         -1   -1    0    0    0  501 -0.00000000000E+00 -0.00000000000E+00 -0.21733531408E+04  0.21733531408E+04  0.00000000000E+00 0.  1.
         23    2    1    2    0    0  0.35563070642E+03  0.83687302435E+03 -0.19781648341E+04  0.21790577355E+04  0.91251551566E+02 0.  0.
         11    1    3    3    0    0  0.29978768352E+03  0.61657462545E+03 -0.15288985286E+04  0.16755797906E+04  0.00000000000E+00 0. -1.
        -11    1    3    3    0    0  0.55843022903E+02  0.22029839890E+03 -0.44926630552E+03  0.50347794494E+03  0.00000000000E+00 0.  1.
         22    1    1    2    0    0 -0.35563070642E+03 -0.83687302435E+03  0.20870542724E+04  0.22765379843E+04  0.00000000000E+00 0. -1.
<mgrwt>
<rscale>  0 0.44542650E+04</rscale>
<asrwt>0</asrwt>
<pdfrwt beam="1">  1        1 0.35111424E+00 0.44542650E+04</pdfrwt>
<pdfrwt beam="2">  1       -1 0.33436202E+00 0.44542650E+04</pdfrwt>
<totfact> 0.28450205E-02</totfact>
</mgrwt>
</event>
<event>
 6    1  0.1001928E-005  0.1413588E+04  0.7818608E-02  0.8944041E-01
         -2   -1    0    0    0  501 -0.00000000000E+00  0.00000000000E+00  0.20497114348E+03  0.20497114348E+03  0.00000000000E+00 0.  1.
          2   -1    0    0  501    0  0.00000000000E+00 -0.00000000000E+00 -0.24372105378E+04  0.24372105378E+04  0.00000000000E+00 0. -1.
         23    2    1    2    0    0 -0.40551127330E+03 -0.20796979691E+03 -0.11816756387E+03  0.47954659104E+03  0.91162111835E+02 0.  0.
         13    1    3    3    0    0 -0.49817395234E+02 -0.56926904277E+02 -0.69266370399E+00  0.75650017062E+02  0.00000000000E+00 0. -1.
        -13    1    3    3    0    0 -0.35569387806E+03 -0.15104289263E+03 -0.11747490016E+03  0.40389657398E+03  0.00000000000E+00 0.  1.
         22    1    1    2    0    0  0.40551127330E+03  0.20796979691E+03 -0.21140718304E+04  0.21626350902E+04  0.00000000000E+00 0. -1.
<mgrwt>
<rscale>  0 0.14135881E+04</rscale>
<asrwt>0</asrwt>
<pdfrwt beam="1">  1        2 0.37495549E+00 0.14135881E+04</pdfrwt>
<pdfrwt beam="2">  1       -2 0.31534020E-01 0.14135881E+04</pdfrwt>
<totfact> 0.34470158E+01</totfact>
</mgrwt>
</event>
<event>
 6    1  0.1001928E-005  0.2172872E+04  0.7818608E-02  0.8529805E-01
         -2   -1    0    0    0  501 -0.00000000000E+00  0.00000000000E+00  0.11683368995E+04  0.11683368995E+04  0.00000000000E+00 0. -1.
          2   -1    0    0  501    0  0.00000000000E+00 -0.00000000000E+00 -0.10102764595E+04  0.10102764595E+04  0.00000000000E+00 0.  1.
         23    2    1    2    0    0 -0.94222515899E+03 -0.15099148546E+03 -0.43754814458E+03  0.10537416930E+04  0.91304424024E+02 0.  0.
         11    1    3    3    0    0 -0.20398757836E+03  0.37578255676E+01 -0.10402713924E+03  0.22901244307E+03  0.00000000000E+00 0.  1.
        -11    1    3    3    0    0 -0.73823758062E+03 -0.15474931103E+03 -0.33352100533E+03  0.82472924994E+03  0.00000000000E+00 0. -1.
         22    1    1    2    0    0  0.94222515899E+03  0.15099148546E+03  0.59560858458E+03  0.11248716660E+04  0.00000000000E+00 0. -1.
<mgrwt>
<rscale>  0 0.21728721E+04</rscale>
<asrwt>0</asrwt>
<pdfrwt beam="1">  1        2 0.15542715E+00 0.21728721E+04</pdfrwt>
<pdfrwt beam="2">  1       -2 0.17974414E+00 0.21728721E+04</pdfrwt>
<totfact> 0.41369913E+00</totfact>
</mgrwt>
</event>
<event>
 6    1  0.1001928E-005  0.2541048E+04  0.7818608E-02  0.8388506E-01
          1   -1    0    0  501    0  0.00000000000E+00  0.00000000000E+00  0.19649103381E+04  0.19649103381E+04  0.00000000000E+00 0. -1.
         -1   -1    0    0    0  501 -0.00000000000E+00 -0.00000000000E+00 -0.82152897977E+03  0.82152897977E+03  0.00000000000E+00 0.  1.
         23    2    1    2    0    0 -0.26847530232E+03 -0.68590033214E+03  0.17053528980E+04  0.18599673728E+04  0.93337385596E+02 0.  0.
         11    1    3    3    0    0 -0.17686854793E+03 -0.54232823839E+03  0.12579489311E+04  0.13812450596E+04  0.00000000000E+00 0. -1.
        -11    1    3    3    0    0 -0.91606754390E+02 -0.14357209374E+03  0.44740396693E+03  0.47872231323E+03  0.00000000000E+00 0.  1.
         22    1    1    2    0    0  0.26847530232E+03  0.68590033214E+03 -0.56197153968E+03  0.92647194506E+03  0.00000000000E+00 0.  1.
<mgrwt>
<rscale>  0 0.25410476E+04</rscale>
<asrwt>0</asrwt>
<pdfrwt beam="1">  1        1 0.30229390E+00 0.25410476E+04</pdfrwt>
<pdfrwt beam="2">  1       -1 0.12638907E+00 0.25410476E+04</pdfrwt>
<totfact> 0.15168704E+00</totfact>
</mgrwt>
</event>
<event>
 6    1  0.1001928E-005  0.4127011E+04  0.7818608E-02  0.7979403E-01
         -2   -1    0    0    0  501 -0.00000000000E+00  0.00000000000E+00  0.23307009337E+04  0.23307009337E+04  0.00000000000E+00 0.  1.
          2   -1    0    0  501    0  0.00000000000E+00 -0.00000000000E+00 -0.18269417696E+04  0.18269417696E+04  0.00000000000E+00 0. -1.
         23    2    1    2    0    0 -0.10102470538E+04 -0.13433908254E+03 -0.15545083904E+04  0.18608816307E+04  0.87965952572E+02 0.  0.
         13    1    3    3    0    0 -0.71693115348E+03 -0.97443437219E+02 -0.10286056608E+04  0.12575830421E+04  0.00000000000E+00 0. -1.
        -13    1    3    3    0    0 -0.29331590031E+03 -0.36895645319E+02 -0.52590272959E+03  0.60329858860E+03  0.00000000000E+00 0.  1.
         22    1    1    2    0    0  0.10102470538E+04  0.13433908254E+03  0.20582675545E+04  0.22967610726E+04  0.00000000000E+00 0.  1.
<mgrwt>
<rscale>  0 0.41270110E+04</rscale>
<asrwt>0</asrwt>
<pdfrwt beam="1">  1        2 0.28106796E+00 0.41270110E+04</pdfrwt>
<pdfrwt beam="2">  1       -2 0.35856938E+00 0.41270110E+04</pdfrwt>
<totfact> 0.89369790E-02</totfact>
</mgrwt>
</event>
<event>
 6    1  0.1001928E-005  0.2756561E+04  0.7818608E-02  0.8316883E-01
         -3   -1    0    0    0  501 -0.00000000000E+00  0.00000000000E+00  0.12168264389E+04  0.12168264389E+04  0.00000000000E+00 0.  1.
          3   -1    0    0  501    0  0.00000000000E+00 -0.00000000000E+00 -0.15611567374E+04  0.15611567374E+04  0.00000000000E+00 0. -1.
         23    2    1    2    0    0  0.60107070959E+03 -0.53696005545E+03  0.95286378686E+03  0.12507881678E+04  0.83123674979E+02 0.  0.
         13    1    3    3    0    0  0.32268914139E+03 -0.24197391306E+03  0.51081702485E+03  0.65085612039E+03  0.00000000000E+00 0. -1.
        -13    1    3    3    0    0  0.27838156820E+03 -0.29498614238E+03  0.44204676201E+03  0.59993204742E+03  0.00000000000E+00 0.  1.
         22    1    1    2    0    0 -0.60107070959E+03  0.53696005545E+03 -0.12971940853E+04  0.15271950085E+04  0.00000000000E+00 0. -1.
<mgrwt>
<rscale>  0 0.27565608E+04</rscale>
<asrwt>0</asrwt>
<pdfrwt beam="1">  1        3 0.24017796E+00 0.27565608E+04</pdfrwt>
<pdfrwt beam="2">  1       -3 0.18720407E+00 0.27565608E+04</pdfrwt>
<totfact> 0.33842315E-02</totfact>
</mgrwt>
</event>
<event>
 6    1  0.1001928E-005  0.2911398E+04  0.7818608E-02  0.8269494E-01
         -2   -1    0    0    0  501 -0.00000000000E+00  0.00000000000E+00  0.19788776598E+04  0.19788776598E+04  0.00000000000E+00 0.  1.
          2   -1    0    0  501    0  0.00000000000E+00 -0.00000000000E+00 -0.10708391676E+04  0.10708391676E+04  0.00000000000E+00 0. -1.
         23    2    1    2    0    0 -0.32171428448E+03  0.11027621883E+04  0.13878469606E+04  0.18048069146E+04  0.10781599172E+03 0.  0.
         11    1    3    3    0    0 -0.91009323555E+02  0.26152478073E+03  0.40601137827E+03  0.49145004547E+03  0.00000000000E+00 0. -1.
        -11    1    3    3    0    0 -0.23070496092E+03  0.84123740759E+03  0.98183558232E+03  0.13133568691E+04  0.00000000000E+00 0.  1.
         22    1    1    2    0    0  0.32171428448E+03 -0.11027621883E+04 -0.47980846833E+03  0.12449099129E+04  0.00000000000E+00 0. -1.
<mgrwt>
<rscale>  0 0.29113981E+04</rscale>
<asrwt>0</asrwt>
<pdfrwt beam="1">  1        2 0.16474449E+00 0.29113981E+04</pdfrwt>
<pdfrwt beam="2">  1       -2 0.30444272E+00 0.29113981E+04</pdfrwt>
<totfact> 0.58463456E-01</totfact>
</mgrwt>
</event>
<event>
 6    1  0.1001928E-005  0.3009373E+04  0.7818608E-02  0.8241059E-01
          1   -1    0    0  501    0  0.00000000000E+00  0.00000000000E+00  0.22181225302E+04  0.22181225302E+04  0.00000000000E+00 0. -1.
         -1   -1    0    0    0  501 -0.00000000000E+00 -0.00000000000E+00 -0.10207198403E+04  0.10207198403E+04  0.00000000000E+00 0.  1.
         23    2    1    2    0    0  0.87334802452E+03  0.12659974365E+02  0.19160817266E+04  0.21077382176E+04  0.91072299854E+02 0.  0.
         11    1    3    3    0    0  0.22037812793E+03  0.10198352501E+02  0.39519564194E+03  0.45260371306E+03  0.00000000000E+00 0. -1.
        -11    1    3    3    0    0  0.65296989660E+03  0.24616218642E+01  0.15208860847E+04  0.16551345045E+04  0.00000000000E+00 0.  1.
         22    1    1    2    0    0 -0.87334802452E+03 -0.12659974365E+02 -0.71867903676E+03  0.11311041529E+04  0.00000000000E+00 0.  1.
<mgrwt>
<rscale>  0 0.30093731E+04</rscale>
<asrwt>0</asrwt>
<pdfrwt beam="1">  1        1 0.34124962E+00 0.30093731E+04</pdfrwt>
<pdfrwt beam="2">  1       -1 0.15703382E+00 0.30093731E+04</pdfrwt>
<totfact> 0.55421788E-01</totfact>
</mgrwt>
</event>
<event>
 6    1  0.1001928E-005  0.2229797E+04  0.7818608E-02  0.8506127E-01
          2   -1    0    0  501    0  0.00000000000E+00  0.00000000000E+00  0.16652335388E+04  0.16652335388E+04  0.00000000000E+00 0. -1.
         -2   -1    0    0    0  501 -0.00000000000E+00 -0.00000000000E+00 -0.74644108444E+03  0.74644108444E+03  0.00000000000E+00 0.  1.
         23    2    1    2    0    0  0.35860417612E+03  0.15136721827E+03 -0.66769522909E+03  0.77813485953E+03  0.90376715836E+02 0.  0.
         13    1    3    3    0    0  0.16023915451E+03  0.19695982681E+02 -0.26306289698E+03  0.30865288941E+03  0.00000000000E+00 0. -1.
        -13    1    3    3    0    0  0.19836502161E+03  0.13167123559E+03 -0.40463233211E+03  0.46948197012E+03  0.00000000000E+00 0.  1.
         22    1    1    2    0    0 -0.35860417612E+03 -0.15136721827E+03  0.15864876834E+04  0.16335397637E+04  0.00000000000E+00 0. -1.
<mgrwt>
<rscale>  0 0.22297971E+04</rscale>
<asrwt>0</asrwt>
<pdfrwt beam="1">  1        2 0.25618977E+00 0.22297971E+04</pdfrwt>
<pdfrwt beam="2">  1       -2 0.11483709E+00 0.22297971E+04</pdfrwt>
<totfact> 0.55329016E+00</totfact>
</mgrwt>
</event>
<event>
 6    1  0.1001928E-005  0.1021606E+04  0.7818608E-02  0.9285160E-01
         -1   -1    0    0    0  501 -0.00000000000E+00  0.00000000000E+00  0.29244913925E+03  0.29244913925E+03  0.00000000000E+00 0.  1.
          1   -1    0    0  501    0  0.00000000000E+00 -0.00000000000E+00 -0.89218881939E+03  0.89218881939E+03  0.00000000000E+00 0. -1.
         23    2    1    2    0    0 -0.39898001293E+03 -0.14946530482E+03  0.15919661220E+02  0.43593150571E+03  0.90873065282E+02 0.  0.
         13    1    3    3    0    0 -0.39064239010E+03 -0.14437393169E+03 -0.91376863721E+00  0.41646865916E+03  0.00000000000E+00 0. -1.
        -13    1    3    3    0    0 -0.83376228316E+01 -0.50913731265E+01  0.16833429857E+02  0.19462846543E+02  0.00000000000E+00 0.  1.
         22    1    1    2    0    0  0.39898001293E+03  0.14946530482E+03 -0.61565934136E+03  0.74870645293E+03  0.00000000000E+00 0. -1.
<mgrwt>
<rscale>  0 0.10216063E+04</rscale>
<asrwt>0</asrwt>
<pdfrwt beam="1">  1        1 0.13725982E+00 0.10216063E+04</pdfrwt>
<pdfrwt beam="2">  1       -1 0.44992175E-01 0.10216063E+04</pdfrwt>
<totfact> 0.90539487E+01</totfact>
</mgrwt>
</event>
<event>
 6    1  0.1001928E-005  0.2853895E+04  0.7818608E-02  0.8286729E-01
         -2   -1    0    0    0  501 -0.00000000000E+00  0.00000000000E+00  0.51041117876E+03  0.51041117876E+03  0.00000000000E+00 0.  1.
          2   -1    0    0  501    0  0.00000000000E+00 -0.00000000000E+00 -0.39892925006E+04  0.39892925006E+04  0.00000000000E+00 0. -1.
         23    2    1    2    0    0 -0.27010398301E+03  0.89245934211E+03 -0.41093129332E+02  0.93770599612E+03  0.90355137798E+02 0.  0.
         11    1    3    3    0    0 -0.67736729973E+02  0.14838714178E+03  0.19247533153E+02  0.16424821450E+03  0.00000000000E+00 0. -1.
        -11    1    3    3    0    0 -0.20236725303E+03  0.74407220033E+03 -0.60340662484E+02  0.77345778162E+03  0.00000000000E+00 0.  1.
         22    1    1    2    0    0  0.27010398301E+03 -0.89245934211E+03 -0.34377881925E+04  0.35619976833E+04  0.00000000000E+00 0. -1.
<mgrwt>
<rscale>  0 0.28538952E+04</rscale>
<asrwt>0</asrwt>
<pdfrwt beam="1">  1        2 0.61373731E+00 0.28538952E+04</pdfrwt>
<pdfrwt beam="2">  1       -2 0.78524796E-01 0.28538952E+04</pdfrwt>
<totfact> 0.43593642E-01</totfact>
</mgrwt>
</event>
<event>
 6    1  0.1035543E-005  0.3805451E+04  0.7818608E-02  0.8044986E-01
          2   -1    0    0  501    0  0.00000000000E+00  0.00000000000E+00  0.23928743276E+04  0.23928743276E+04  0.00000000000E+00 0. -1.
         -2   -1    0    0    0  501 -0.00000000000E+00 -0.00000000000E+00 -0.15129773611E+04  0.15129773611E+04  0.00000000000E+00 0.  1.
         23    2    1    2    0    0  0.18217973679E+04 -0.52634208855E+03  0.29494352106E+03  0.19213738791E+04  0.93296615928E+02 0.  0.
         13    1    3    3    0    0  0.87538466611E+03 -0.22231783668E+03  0.10382873701E+03  0.90912262143E+03  0.00000000000E+00 0.  1.
        -13    1    3    3    0    0  0.94641270182E+03 -0.30402425187E+03  0.19111478405E+03  0.10122512576E+04  0.00000000000E+00 0. -1.
         22    1    1    2    0    0 -0.18217973679E+04  0.52634208855E+03  0.58495344543E+03  0.19844778097E+04  0.00000000000E+00 0.  1.
<mgrwt>
<rscale>  0 0.38054512E+04</rscale>
<asrwt>0</asrwt>
<pdfrwt beam="1">  1        2 0.36813451E+00 0.38054512E+04</pdfrwt>
<pdfrwt beam="2">  1       -2 0.23276575E+00 0.38054512E+04</pdfrwt>
<totfact> 0.26425888E-01</totfact>
</mgrwt>
</event>
<event>
 6    1  0.1001928E-005  0.1680971E+04  0.7818608E-02  0.8772292E-01
          2   -1    0    0  501    0  0.00000000000E+00  0.00000000000E+00  0.15399263502E+04  0.15399263502E+04  0.00000000000E+00 0.  1.
         -2   -1    0    0    0  501 -0.00000000000E+00 -0.00000000000E+00 -0.45873348292E+03  0.45873348292E+03  0.00000000000E+00 0. -1.
         23    2    1    2    0    0 -0.80316268819E+03  0.57242061146E+02  0.26746609572E+03  0.85388989290E+03  0.96139895840E+02 0.  0.
         13    1    3    3    0    0 -0.42099638119E+03  0.52075737657E+02  0.95701492712E+02  0.43486619912E+03  0.00000000000E+00 0. -1.
        -13    1    3    3    0    0 -0.38216630699E+03  0.51663234894E+01  0.17176460301E+03  0.41902369378E+03  0.00000000000E+00 0.  1.
         22    1    1    2    0    0  0.80316268819E+03 -0.57242061146E+02  0.81372677156E+03  0.11447699402E+04  0.00000000000E+00 0.  1.
<mgrwt>
<rscale>  0 0.16809709E+04</rscale>
<asrwt>0</asrwt>
<pdfrwt beam="1">  1        2 0.23691174E+00 0.16809709E+04</pdfrwt>
<pdfrwt beam="2">  1       -2 0.70574383E-01 0.16809709E+04</pdfrwt>
<totfact> 0.20970546E+01</totfact>
</mgrwt>
</event>
<event>
 6    1  0.1001928E-005  0.7641508E+03  0.7818608E-02  0.9613408E-01
         -2   -1    0    0    0  501 -0.00000000000E+00  0.00000000000E+00  0.72714427658E+02  0.72714427658E+02  0.00000000000E+00 0.  1.
          2   -1    0    0  501    0  0.00000000000E+00 -0.00000000000E+00 -0.20076018185E+04  0.20076018185E+04  0.00000000000E+00 0. -1.
         23    2    1    2    0    0 -0.13480770326E+03  0.34364457552E+03 -0.78057830012E+03  0.86841930827E+03  0.92654742005E+02 0.  0.
         11    1    3    3    0    0 -0.32608913170E+02  0.18970224380E+02 -0.11199548179E+03  0.11817867224E+03  0.00000000000E+00 0.  1.
        -11    1    3    3    0    0 -0.10219879009E+03  0.32467435114E+03 -0.66858281832E+03  0.75024063602E+03  0.00000000000E+00 0. -1.
         22    1    1    2    0    0  0.13480770326E+03 -0.34364457552E+03 -0.11543090908E+04  0.12118969379E+04  0.00000000000E+00 0.  1.
<mgrwt>
<rscale>  0 0.76415082E+03</rscale>
<asrwt>0</asrwt>
<pdfrwt beam="1">  1        2 0.30886179E+00 0.76415082E+03</pdfrwt>
<pdfrwt beam="2">  1       -2 0.11186836E-01 0.76415082E+03</pdfrwt>
<totfact> 0.38661500E+02</totfact>
</mgrwt>
</event>
<event>
 6    1  0.1001928E-005  0.1995529E+04  0.7818608E-02  0.8608714E-01
         -1   -1    0    0    0  501 -0.00000000000E+00  0.00000000000E+00  0.21405029563E+04  0.21405029563E+04  0.00000000000E+00 0.  1.
          1   -1    0    0  501    0  0.00000000000E+00 -0.00000000000E+00 -0.46509336625E+03  0.46509336625E+03  0.00000000000E+00 0. -1.
         23    2    1    2    0    0 -0.52022577501E+03 -0.79792026322E+03  0.46092623949E+03  0.10621322277E+04  0.91434497444E+02 0.  0.
         13    1    3    3    0    0 -0.32512187103E+03 -0.56500077861E+03  0.33898231361E+03  0.73473744956E+03  0.00000000000E+00 0.  1.
        -13    1    3    3    0    0 -0.19510390398E+03 -0.23291948462E+03  0.12194392588E+03  0.32739477809E+03  0.00000000000E+00 0. -1.
         22    1    1    2    0    0  0.52022577501E+03  0.79792026322E+03  0.12144833505E+04  0.15434640949E+04  0.00000000000E+00 0.  1.
<mgrwt>
<rscale>  0 0.19955287E+04</rscale>
<asrwt>0</asrwt>
<pdfrwt beam="1">  1        1 0.71552827E-01 0.19955287E+04</pdfrwt>
<pdfrwt beam="2">  1       -1 0.32930814E+00 0.19955287E+04</pdfrwt>
<totfact> 0.96763120E-01</totfact>
</mgrwt>
</event>
<event>
 6    1  0.1001928E-005  0.1858261E+04  0.7818608E-02  0.8675916E-01
          2   -1    0    0  501    0  0.00000000000E+00  0.00000000000E+00  0.18327148105E+04  0.18327148105E+04  0.00000000000E+00 0. -1.
         -2   -1    0    0    0  501 -0.00000000000E+00 -0.00000000000E+00 -0.47104062858E+03  0.47104062858E+03  0.00000000000E+00 0.  1.
         23    2    1    2    0    0 -0.52609279457E+03 -0.32415703584E+03 -0.17399043046E+03  0.64842549794E+03  0.91277292390E+02 0.  0.
         13    1    3    3    0    0 -0.23723128657E+03 -0.19651852342E+03 -0.10217650914E+03  0.32455855002E+03  0.00000000000E+00 0. -1.
        -13    1    3    3    0    0 -0.28886150800E+03 -0.12763851242E+03 -0.71813921320E+02  0.32386694791E+03  0.00000000000E+00 0.  1.
         22    1    1    2    0    0  0.52609279457E+03  0.32415703584E+03  0.15356646124E+04  0.16553299412E+04  0.00000000000E+00 0. -1.
<mgrwt>
<rscale>  0 0.18582606E+04</rscale>
<asrwt>0</asrwt>
<pdfrwt beam="1">  1        2 0.28195612E+00 0.18582606E+04</pdfrwt>
<pdfrwt beam="2">  1       -2 0.72467790E-01 0.18582606E+04</pdfrwt>
<totfact> 0.13395631E+01</totfact>
</mgrwt>
</event>
<event>
 6    1  0.1001928E-005  0.2535346E+04  0.7818608E-02  0.8390500E-01
         -1   -1    0    0    0  501 -0.00000000000E+00  0.00000000000E+00  0.15789814972E+04  0.15789814972E+04  0.00000000000E+00 0.  1.
          1   -1    0    0  501    0  0.00000000000E+00 -0.00000000000E+00 -0.10177415009E+04  0.10177415009E+04  0.00000000000E+00 0. -1.
         23    2    1    2    0    0 -0.11795456637E+04  0.15580966458E+03 -0.16185275574E+03  0.12044343239E+04  0.94133424677E+02 0.  0.
         13    1    3    3    0    0 -0.64244831695E+03  0.40317484347E+02 -0.10331172125E+03  0.65194988399E+03  0.00000000000E+00 0.  1.
        -13    1    3    3    0    0 -0.53709734677E+03  0.11549218024E+03 -0.58541034492E+02  0.55248443989E+03  0.00000000000E+00 0. -1.
         22    1    1    2    0    0  0.11795456637E+04 -0.15580966458E+03  0.72309275207E+03  0.13922886743E+04  0.00000000000E+00 0.  1.
<mgrwt>
<rscale>  0 0.25353461E+04</rscale>
<asrwt>0</asrwt>
<pdfrwt beam="1">  1        1 0.15657562E+00 0.25353461E+04</pdfrwt>
<pdfrwt beam="2">  1       -1 0.24292023E+00 0.25353461E+04</pdfrwt>
<totfact> 0.10069130E+00</totfact>
</mgrwt>
</event>
<event>
 6    1  0.1001928E-005  0.3604730E+04  0.7818608E-02  0.8089409E-01
          2   -1    0    0  501    0  0.00000000000E+00  0.00000000000E+00  0.20987630811E+04  0.20987630811E+04  0.00000000000E+00 0. -1.
         -2   -1    0    0    0  501 -0.00000000000E+00 -0.00000000000E+00 -0.15478260743E+04  0.15478260743E+04  0.00000000000E+00 0.  1.
         23    2    1    2    0    0 -0.12287053262E+04  0.11918206048E+04  0.84261246940E+03  0.19101480513E+04  0.92285814832E+02 0.  0.
         13    1    3    3    0    0 -0.78411041240E+03  0.81762696427E+03  0.57381052344E+03  0.12698824782E+04  0.00000000000E+00 0.  1.
        -13    1    3    3    0    0 -0.44459491375E+03  0.37419364055E+03  0.26880194596E+03  0.64026557311E+03  0.00000000000E+00 0. -1.
         22    1    1    2    0    0  0.12287053262E+04 -0.11918206048E+04 -0.29167546263E+03  0.17364411041E+04  0.00000000000E+00 0.  1.
<mgrwt>
<rscale>  0 0.36047303E+04</rscale>
<asrwt>0</asrwt>
<pdfrwt beam="1">  1        2 0.32288663E+00 0.36047303E+04</pdfrwt>
<pdfrwt beam="2">  1       -2 0.23812709E+00 0.36047303E+04</pdfrwt>
<totfact> 0.36482746E-01</totfact>
</mgrwt>
</event>
<event>
 6    1  0.1001928E-005  0.1955714E+04  0.7818608E-02  0.8627610E-01
         -1   -1    0    0    0  501 -0.00000000000E+00  0.00000000000E+00  0.92816621279E+03  0.92816621279E+03  0.00000000000E+00 0.  1.
          1   -1    0    0  501    0  0.00000000000E+00 -0.00000000000E+00 -0.10302084528E+04  0.10302084528E+04  0.00000000000E+00 0. -1.
         23    2    1    2    0    0  0.21317063566E+03 -0.22833612517E+03  0.87489561529E+03  0.93271064697E+03  0.83232850129E+02 0.  0.
         11    1    3    3    0    0  0.13281397705E+03 -0.19522542936E+03  0.62311401372E+03  0.66635095473E+03  0.00000000000E+00 0.  1.
        -11    1    3    3    0    0  0.80356658607E+02 -0.33110695803E+02  0.25178160158E+03  0.26635969224E+03  0.00000000000E+00 0. -1.
         22    1    1    2    0    0 -0.21317063566E+03  0.22833612517E+03 -0.97693785535E+03  0.10256640187E+04  0.00000000000E+00 0. -1.
<mgrwt>
<rscale>  0 0.19557144E+04</rscale>
<asrwt>0</asrwt>
<pdfrwt beam="1">  1        1 0.15849361E+00 0.19557144E+04</pdfrwt>
<pdfrwt beam="2">  1       -1 0.14279480E+00 0.19557144E+04</pdfrwt>
<totfact> 0.53117299E+00</totfact>
</mgrwt>
</event>
<event>
 6    1  0.1001928E-005  0.1168893E+04  0.7818608E-02  0.9140529E-01
         -1   -1    0    0    0  501 -0.00000000000E+00  0.00000000000E+00  0.13106429549E+03  0.13106429549E+03  0.00000000000E+00 0.  1.
          1   -1    0    0  501    0  0.00000000000E+00 -0.00000000000E+00 -0.26061832533E+04  0.26061832533E+04  0.00000000000E+00 0. -1.
         23    2    1    2    0    0  0.10914784429E+03 -0.76301866141E+02 -0.25687980848E+04  0.25744255432E+04  0.10586807863E+03 0.  0.
         13    1    3    3    0    0  0.77947300335E+01 -0.64212639402E+02 -0.75896545572E+03  0.76171686593E+03  0.00000000000E+00 0.  1.
        -13    1    3    3    0    0  0.10135311426E+03 -0.12089226739E+02 -0.18098326291E+04  0.18127086772E+04  0.00000000000E+00 0. -1.
         22    1    1    2    0    0 -0.10914784429E+03  0.76301866141E+02  0.93679126988E+02  0.16282200565E+03  0.00000000000E+00 0.  1.
<mgrwt>
<rscale>  0 0.11688928E+04</rscale>
<asrwt>0</asrwt>
<pdfrwt beam="1">  1        1 0.40095123E+00 0.11688928E+04</pdfrwt>
<pdfrwt beam="2">  1       -1 0.20163740E-01 0.11688928E+04</pdfrwt>
<totfact> 0.23055571E+01</totfact>
</mgrwt>
</event>
<event>
 6    1  0.1001928E-005  0.1673839E+04  0.7818608E-02  0.8776427E-01
          2   -1    0    0  501    0  0.00000000000E+00  0.00000000000E+00  0.11675521996E+04  0.11675521996E+04  0.00000000000E+00 0. -1.
         -2   -1    0    0    0  501 -0.00000000000E+00 -0.00000000000E+00 -0.59991698389E+03  0.59991698389E+03  0.00000000000E+00 0.  1.
         23    2    1    2    0    0 -0.61916040083E+03 -0.78173384618E+01  0.87529362231E+03  0.10760399334E+04  0.91116958814E+02 0.  0.
         11    1    3    3    0    0 -0.38680862460E+03  0.12461457931E+02  0.61402230690E+03  0.72580961234E+03  0.00000000000E+00 0.  1.
        -11    1    3    3    0    0 -0.23235177624E+03 -0.20278796393E+02  0.26127131541E+03  0.35023032102E+03  0.00000000000E+00 0. -1.
         22    1    1    2    0    0  0.61916040083E+03  0.78173384618E+01 -0.30765840663E+03  0.69142925011E+03  0.00000000000E+00 0.  1.
<mgrwt>
<rscale>  0 0.16738392E+04</rscale>
<asrwt>0</asrwt>
<pdfrwt beam="1">  1        2 0.17962342E+00 0.16738392E+04</pdfrwt>
<pdfrwt beam="2">  1       -2 0.92294921E-01 0.16738392E+04</pdfrwt>
<totfact> 0.18835237E+01</totfact>
</mgrwt>
</event>
<event>
 6    1  0.1001928E-005  0.3656812E+04  0.7818608E-02  0.8077601E-01
         -2   -1    0    0    0  501 -0.00000000000E+00  0.00000000000E+00  0.15738833558E+04  0.15738833558E+04  0.00000000000E+00 0.  1.
          2   -1    0    0  501    0  0.00000000000E+00 -0.00000000000E+00 -0.21240887523E+04  0.21240887523E+04  0.00000000000E+00 0. -1.
         23    2    1    2    0    0  0.34868819476E+03 -0.10585583603E+04 -0.17395934745E+04  0.20680109862E+04  0.91404175829E+02 0.  0.
         13    1    3    3    0    0  0.71882197527E+02 -0.22267687988E+03 -0.43750488321E+03  0.49614772598E+03  0.00000000000E+00 0.  1.
        -13    1    3    3    0    0  0.27680599723E+03 -0.83588148037E+03 -0.13020885912E+04  0.15718632602E+04  0.00000000000E+00 0. -1.
         22    1    1    2    0    0 -0.34868819476E+03  0.10585583603E+04  0.11893880779E+04  0.16299611220E+04  0.00000000000E+00 0.  1.
<mgrwt>
<rscale>  0 0.36568117E+04</rscale>
<asrwt>0</asrwt>
<pdfrwt beam="1">  1        2 0.32678289E+00 0.36568117E+04</pdfrwt>
<pdfrwt beam="2">  1       -2 0.24213590E+00 0.36568117E+04</pdfrwt>
<totfact> 0.33207218E-01</totfact>
</mgrwt>
</event>
<event>
 6    1  0.1001928E-005  0.1442153E+04  0.7818608E-02  0.8923859E-01
          2   -1    0    0  501    0  0.00000000000E+00  0.00000000000E+00  0.64649750693E+03  0.64649750693E+03  0.00000000000E+00 0. -1.
         -2   -1    0    0    0  501 -0.00000000000E+00 -0.00000000000E+00 -0.80425862659E+03  0.80425862659E+03  0.00000000000E+00 0.  1.
         23    2    1    2    0    0 -0.48312811475E+03  0.38643339944E+03  0.28824293027E+03  0.68808768655E+03  0.87390674948E+02 0.  0.
         11    1    3    3    0    0 -0.91129865550E+02  0.11886140685E+03  0.79967069303E+02  0.16978639111E+03  0.00000000000E+00 0. -1.
        -11    1    3    3    0    0 -0.39199824920E+03  0.26757199259E+03  0.20827586097E+03  0.51830129544E+03  0.00000000000E+00 0.  1.
         22    1    1    2    0    0  0.48312811475E+03 -0.38643339944E+03 -0.44600404992E+03  0.76266844697E+03  0.00000000000E+00 0. -1.
<mgrwt>
<rscale>  0 0.14421528E+04</rscale>
<asrwt>0</asrwt>
<pdfrwt beam="1">  1        2 0.99461155E-01 0.14421528E+04</pdfrwt>
<pdfrwt beam="2">  1       -2 0.12373210E+00 0.14421528E+04</pdfrwt>
<totfact> 0.21600036E+01</totfact>
</mgrwt>
</event>
<event>
 6    1  0.1001928E-005  0.2332168E+04  0.7818608E-02  0.8465345E-01
         -1   -1    0    0    0  501 -0.00000000000E+00  0.00000000000E+00  0.64199559462E+03  0.64199559462E+03  0.00000000000E+00 0. -1.
          1   -1    0    0  501    0  0.00000000000E+00 -0.00000000000E+00 -0.21180079019E+04  0.21180079019E+04  0.00000000000E+00 0.  1.
         23    2    1    2    0    0  0.58738040276E+02 -0.11616570390E+04 -0.80128422041E+03  0.14153268719E+04  0.90534627740E+02 0.  0.
         11    1    3    3    0    0  0.17926457595E+02 -0.78577215676E+03 -0.58454468429E+03  0.97951606835E+03  0.00000000000E+00 0. -1.
        -11    1    3    3    0    0  0.40811582682E+02 -0.37588488224E+03 -0.21673953612E+03  0.43581080355E+03  0.00000000000E+00 0.  1.
         22    1    1    2    0    0 -0.58738040276E+02  0.11616570390E+04 -0.67472808689E+03  0.13446766246E+04  0.00000000000E+00 0.  1.
<mgrwt>
<rscale>  0 0.23321679E+04</rscale>
<asrwt>0</asrwt>
<pdfrwt beam="1">  1        1 0.32584737E+00 0.23321679E+04</pdfrwt>
<pdfrwt beam="2">  1       -1 0.98768552E-01 0.23321679E+04</pdfrwt>
<totfact> 0.21891998E+00</totfact>
</mgrwt>
</event>
<event>
 6    1  0.1001928E-005  0.1935404E+04  0.7818608E-02  0.8637432E-01
          2   -1    0    0  501    0  0.00000000000E+00  0.00000000000E+00  0.18059138460E+04  0.18059138460E+04  0.00000000000E+00 0.  1.
         -2   -1    0    0    0  501 -0.00000000000E+00 -0.00000000000E+00 -0.51854471114E+03  0.51854471114E+03  0.00000000000E+00 0. -1.
         23    2    1    2    0    0  0.64556378317E+02 -0.57098837194E+03 -0.28647033180E+03  0.64899864604E+03  0.94544934758E+02 0.  0.
         11    1    3    3    0    0 -0.64133430395E+01 -0.27967104268E+03 -0.16991097730E+03  0.32730225067E+03  0.00000000000E+00 0. -1.
        -11    1    3    3    0    0  0.70969721357E+02 -0.29131732925E+03 -0.11655935450E+03  0.32169639537E+03  0.00000000000E+00 0.  1.
         22    1    1    2    0    0 -0.64556378317E+02  0.57098837194E+03  0.15738394667E+04  0.16754599111E+04  0.00000000000E+00 0.  1.
<mgrwt>
<rscale>  0 0.19354039E+04</rscale>
<asrwt>0</asrwt>
<pdfrwt beam="1">  1        2 0.27783290E+00 0.19354039E+04</pdfrwt>
<pdfrwt beam="2">  1       -2 0.79776110E-01 0.19354039E+04</pdfrwt>
<totfact> 0.11124424E+01</totfact>
</mgrwt>
</event>
<event>
 6    1  0.1001928E-005  0.8418614E+03  0.7818608E-02  0.9501326E-01
         -2   -1    0    0    0  501 -0.00000000000E+00  0.00000000000E+00  0.22045633659E+03  0.22045633659E+03  0.00000000000E+00 0.  1.
          2   -1    0    0  501    0  0.00000000000E+00 -0.00000000000E+00 -0.80370867899E+03  0.80370867899E+03  0.00000000000E+00 0. -1.
         23    2    1    2    0    0 -0.33654767222E+03  0.18522654218E+03 -0.48948744749E+03  0.62873479022E+03  0.90201261528E+02 0.  0.
         11    1    3    3    0    0 -0.25412040096E+03  0.18113415791E+03 -0.38812078342E+03  0.49802058579E+03  0.00000000000E+00 0. -1.
        -11    1    3    3    0    0 -0.82427271258E+02  0.40923842691E+01 -0.10136666407E+03  0.13071420444E+03  0.00000000000E+00 0.  1.
         22    1    1    2    0    0  0.33654767222E+03 -0.18522654218E+03 -0.93764894915E+02  0.39543022535E+03  0.00000000000E+00 0.  1.
<mgrwt>
<rscale>  0 0.84186144E+03</rscale>
<asrwt>0</asrwt>
<pdfrwt beam="1">  1        2 0.12364749E+00 0.84186144E+03</pdfrwt>
<pdfrwt beam="2">  1       -2 0.33916360E-01 0.84186144E+03</pdfrwt>
<totfact> 0.27952320E+02</totfact>
</mgrwt>
</event>
<event>
 6    1  0.1001928E-005  0.2559038E+04  0.7818608E-02  0.8382250E-01
         -1   -1    0    0    0  501 -0.00000000000E+00  0.00000000000E+00  0.11938937980E+04  0.11938937980E+04  0.00000000000E+00 0.  1.
          1   -1    0    0  501    0  0.00000000000E+00 -0.00000000000E+00 -0.13712851458E+04  0.13712851458E+04  0.00000000000E+00 0. -1.
         23    2    1    2    0    0  0.27263408497E+03  0.58521547724E+03 -0.11942998814E+04  0.13606419105E+04  0.90485926070E+02 0.  0.
         13    1    3    3    0    0  0.12084882043E+03  0.22521496618E+03 -0.38714769252E+03  0.46390683786E+03  0.00000000000E+00 0. -1.
        -13    1    3    3    0    0  0.15178526454E+03  0.36000051106E+03 -0.80715218883E+03  0.89673507260E+03  0.00000000000E+00 0.  1.
         22    1    1    2    0    0 -0.27263408497E+03 -0.58521547724E+03  0.10169085335E+04  0.12045370333E+04  0.00000000000E+00 0.  1.
<mgrwt>
<rscale>  0 0.25590380E+04</rscale>
<asrwt>0</asrwt>
<pdfrwt beam="1">  1        1 0.21096695E+00 0.25590380E+04</pdfrwt>
<pdfrwt beam="2">  1       -1 0.18367597E+00 0.25590380E+04</pdfrwt>
<totfact> 0.13936570E+00</totfact>
</mgrwt>
</event>
<event>
 6    1  0.1001928E-005  0.2663715E+04  0.7818608E-02  0.8346875E-01
          1   -1    0    0  501    0  0.00000000000E+00  0.00000000000E+00  0.19702115158E+04  0.19702115158E+04  0.00000000000E+00 0. -1.
         -1   -1    0    0    0  501 -0.00000000000E+00 -0.00000000000E+00 -0.90033210677E+03  0.90033210677E+03  0.00000000000E+00 0.  1.
         23    2    1    2    0    0  0.32173651891E+03  0.70921256358E+03 -0.62678489256E+03  0.10036835313E+04  0.89579470887E+02 0.  0.
         13    1    3    3    0    0  0.13137718033E+03  0.35035936975E+03 -0.25320688337E+03  0.45180236528E+03  0.00000000000E+00 0.  1.
        -13    1    3    3    0    0  0.19035933858E+03  0.35885319382E+03 -0.37357800919E+03  0.55188116606E+03  0.00000000000E+00 0. -1.
         22    1    1    2    0    0 -0.32173651891E+03 -0.70921256358E+03  0.16966643016E+04  0.18668600913E+04  0.00000000000E+00 0. -1.
<mgrwt>
<rscale>  0 0.26637152E+04</rscale>
<asrwt>0</asrwt>
<pdfrwt beam="1">  1        1 0.30310946E+00 0.26637152E+04</pdfrwt>
<pdfrwt beam="2">  1       -1 0.13851263E+00 0.26637152E+04</pdfrwt>
<totfact> 0.11785110E+00</totfact>
</mgrwt>
</event>
<event>
 6    1  0.1001928E-005  0.3790651E+04  0.7818608E-02  0.8048164E-01
         -1   -1    0    0    0  501 -0.00000000000E+00  0.00000000000E+00  0.13983338653E+04  0.13983338653E+04  0.00000000000E+00 0.  1.
          1   -1    0    0  501    0  0.00000000000E+00 -0.00000000000E+00 -0.25689565326E+04  0.25689565326E+04  0.00000000000E+00 0. -1.
         23    2    1    2    0    0 -0.40876763489E+03  0.10624725039E+04 -0.21701850909E+04  0.24523435871E+04  0.91361584965E+02 0.  0.
         13    1    3    3    0    0 -0.35041715418E+03  0.82356706433E+03 -0.17456503684E+04  0.19617212085E+04  0.00000000000E+00 0. -1.
        -13    1    3    3    0    0 -0.58350480709E+02  0.23890543958E+03 -0.42453472258E+03  0.49062237855E+03  0.00000000000E+00 0.  1.
         22    1    1    2    0    0  0.40876763489E+03 -0.10624725039E+04  0.99956242364E+03  0.15149468108E+04  0.00000000000E+00 0.  1.
<mgrwt>
<rscale>  0 0.37906511E+04</rscale>
<asrwt>0</asrwt>
<pdfrwt beam="1">  1        1 0.39522408E+00 0.37906511E+04</pdfrwt>
<pdfrwt beam="2">  1       -1 0.21512829E+00 0.37906511E+04</pdfrwt>
<totfact> 0.11461561E-01</totfact>
</mgrwt>
</event>
<event>
 6    1  0.1001928E-005  0.6747178E+03  0.7818608E-02  0.9761472E-01
         -1   -1    0    0    0  501 -0.00000000000E+00  0.00000000000E+00  0.15379499257E+04  0.15379499257E+04  0.00000000000E+00 0.  1.
          1   -1    0    0  501    0  0.00000000000E+00 -0.00000000000E+00 -0.74001779112E+02  0.74001779112E+02  0.00000000000E+00 0. -1.
         23    2    1    2    0    0  0.11211839809E+03 -0.27777830597E+03  0.40667896967E+03  0.51306616258E+03  0.90098725593E+02 0.  0.
         11    1    3    3    0    0  0.55272836477E+02 -0.64610547257E+02  0.16641227398E+03  0.18687603966E+03  0.00000000000E+00 0.  1.
        -11    1    3    3    0    0  0.56845561616E+02 -0.21316775872E+03  0.24026669569E+03  0.32619012292E+03  0.00000000000E+00 0. -1.
         22    1    1    2    0    0 -0.11211839809E+03  0.27777830597E+03  0.10572691769E+04  0.10988855422E+04  0.00000000000E+00 0.  1.
<mgrwt>
<rscale>  0 0.67471781E+03</rscale>
<asrwt>0</asrwt>
<pdfrwt beam="1">  1        1 0.11384890E-01 0.67471781E+03</pdfrwt>
<pdfrwt beam="2">  1       -1 0.23660766E+00 0.67471781E+03</pdfrwt>
<totfact> 0.49582647E+01</totfact>
</mgrwt>
</event>
<event>
 6    1  0.1001928E-005  0.2415409E+04  0.7818608E-02  0.8433757E-01
          2   -1    0    0  501    0  0.00000000000E+00  0.00000000000E+00  0.19124075978E+04  0.19124075978E+04  0.00000000000E+00 0. -1.
         -2   -1    0    0    0  501 -0.00000000000E+00 -0.00000000000E+00 -0.76267743872E+03  0.76267743872E+03  0.00000000000E+00 0.  1.
         23    2    1    2    0    0 -0.69787698830E+03 -0.98329179809E+03  0.54990000893E+03  0.13283514845E+04  0.90733652220E+02 0.  0.
         11    1    3    3    0    0 -0.33172065591E+03 -0.42308000118E+03  0.20432244218E+03  0.57513732390E+03  0.00000000000E+00 0. -1.
        -11    1    3    3    0    0 -0.36615633239E+03 -0.56021179690E+03  0.34557756674E+03  0.75321416063E+03  0.00000000000E+00 0.  1.
         22    1    1    2    0    0  0.69787698830E+03  0.98329179809E+03  0.59983015010E+03  0.13467335520E+04  0.00000000000E+00 0.  1.
<mgrwt>
<rscale>  0 0.24154090E+04</rscale>
<asrwt>0</asrwt>
<pdfrwt beam="1">  1        2 0.29421655E+00 0.24154090E+04</pdfrwt>
<pdfrwt beam="2">  1       -2 0.11733499E+00 0.24154090E+04</pdfrwt>
<totfact> 0.37679216E+00</totfact>
</mgrwt>
</event>
<event>
 6    1  0.1001928E-005  0.1743641E+04  0.7818608E-02  0.8736859E-01
         -2   -1    0    0    0  501 -0.00000000000E+00  0.00000000000E+00  0.63864039577E+03  0.63864039577E+03  0.00000000000E+00 0.  1.
          2   -1    0    0  501    0  0.00000000000E+00 -0.00000000000E+00 -0.11901388807E+04  0.11901388807E+04  0.00000000000E+00 0. -1.
         23    2    1    2    0    0  0.83407881405E+03  0.11393791912E+03 -0.50459773252E+03  0.98564880133E+03  0.90638680781E+02 0.  0.
         13    1    3    3    0    0  0.46960785695E+03  0.71510367472E+02 -0.33595940144E+03  0.58181955225E+03  0.00000000000E+00 0.  1.
        -13    1    3    3    0    0  0.36447095710E+03  0.42427551652E+02 -0.16863833107E+03  0.40382924908E+03  0.00000000000E+00 0. -1.
         22    1    1    2    0    0 -0.83407881405E+03 -0.11393791912E+03 -0.46900752366E+02  0.84313047509E+03  0.00000000000E+00 0.  1.
<mgrwt>
<rscale>  0 0.17436407E+04</rscale>
<asrwt>0</asrwt>
<pdfrwt beam="1">  1        2 0.18309829E+00 0.17436407E+04</pdfrwt>
<pdfrwt beam="2">  1       -2 0.98252369E-01 0.17436407E+04</pdfrwt>
<totfact> 0.15682430E+01</totfact>
</mgrwt>
</event>
<event>
 6    1  0.1001928E-005  0.1063115E+04  0.7818608E-02  0.9241907E-01
         -2   -1    0    0    0  501 -0.00000000000E+00  0.00000000000E+00  0.26640399105E+03  0.26640399105E+03  0.00000000000E+00 0.  1.
          2   -1    0    0  501    0  0.00000000000E+00 -0.00000000000E+00 -0.10606202064E+04  0.10606202064E+04  0.00000000000E+00 0. -1.
         23    2    1    2    0    0  0.11461549815E+03 -0.41826798735E+03 -0.77507325106E+03  0.89291444781E+03  0.92048057772E+02 0.  0.
         13    1    3    3    0    0  0.59650013395E+02 -0.11498949640E+03 -0.16864784172E+03  0.21265653740E+03  0.00000000000E+00 0. -1.
        -13    1    3    3    0    0  0.54965484752E+02 -0.30327849095E+03 -0.60642540933E+03  0.68025791041E+03  0.00000000000E+00 0.  1.
         22    1    1    2    0    0 -0.11461549815E+03  0.41826798735E+03 -0.19142964302E+02  0.43410974965E+03  0.00000000000E+00 0.  1.
<mgrwt>
<rscale>  0 0.10631152E+04</rscale>
<asrwt>0</asrwt>
<pdfrwt beam="1">  1        2 0.16317234E+00 0.10631152E+04</pdfrwt>
<pdfrwt beam="2">  1       -2 0.40985228E-01 0.10631152E+04</pdfrwt>
<totfact> 0.12921615E+02</totfact>
</mgrwt>
</event>
<event>
 6    1  0.1001928E-005  0.1058179E+04  0.7818608E-02  0.9246940E-01
          1   -1    0    0  501    0  0.00000000000E+00  0.00000000000E+00  0.67554948931E+03  0.67554948931E+03  0.00000000000E+00 0. -1.
         -1   -1    0    0    0  501 -0.00000000000E+00 -0.00000000000E+00 -0.41438208079E+03  0.41438208079E+03  0.00000000000E+00 0.  1.
         23    2    1    2    0    0  0.12024493980E+03 -0.42559819227E+03 -0.16014438447E+03  0.47911548180E+03  0.91174306746E+02 0.  0.
         11    1    3    3    0    0  0.12121882784E+03 -0.27029084739E+03 -0.10721618654E+03  0.31503405698E+03  0.00000000000E+00 0. -1.
        -11    1    3    3    0    0 -0.97388803991E+00 -0.15530734489E+03 -0.52928197936E+02  0.16408142482E+03  0.00000000000E+00 0.  1.
         22    1    1    2    0    0 -0.12024493980E+03  0.42559819227E+03  0.42131179299E+03  0.61081608830E+03  0.00000000000E+00 0.  1.
<mgrwt>
<rscale>  0 0.10581788E+04</rscale>
<asrwt>0</asrwt>
<pdfrwt beam="1">  1        1 0.10393069E+00 0.10581788E+04</pdfrwt>
<pdfrwt beam="2">  1       -1 0.63751089E-01 0.10581788E+04</pdfrwt>
<totfact> 0.71699426E+01</totfact>
</mgrwt>
</event>
<event>
 6    1  0.1001928E-005  0.2247440E+04  0.7818608E-02  0.8498938E-01
         -1   -1    0    0    0  501 -0.00000000000E+00  0.00000000000E+00  0.92851311950E+03  0.92851311950E+03  0.00000000000E+00 0.  1.
          1   -1    0    0  501    0  0.00000000000E+00 -0.00000000000E+00 -0.13599666288E+04  0.13599666288E+04  0.00000000000E+00 0. -1.
         23    2    1    2    0    0  0.59735381028E+03 -0.24588719002E+03  0.71788642535E+03  0.97004341299E+03  0.91275508888E+02 0.  0.
         11    1    3    3    0    0  0.48357309334E+03 -0.20168366488E+03  0.63122001858E+03  0.82034014234E+03  0.00000000000E+00 0.  1.
        -11    1    3    3    0    0  0.11378071694E+03 -0.44203525145E+02  0.86666406773E+02  0.14970327066E+03  0.00000000000E+00 0. -1.
         22    1    1    2    0    0 -0.59735381028E+03  0.24588719002E+03 -0.11493399346E+04  0.13184363353E+04  0.00000000000E+00 0. -1.
<mgrwt>
<rscale>  0 0.22474402E+04</rscale>
<asrwt>0</asrwt>
<pdfrwt beam="1">  1        1 0.20922563E+00 0.22474402E+04</pdfrwt>
<pdfrwt beam="2">  1       -1 0.14284817E+00 0.22474402E+04</pdfrwt>
<totfact> 0.29596451E+00</totfact>
</mgrwt>
</event>
<event>
 6    1  0.1001928E-005  0.4038920E+04  0.7818608E-02  0.7996741E-01
         -1   -1    0    0    0  501 -0.00000000000E+00  0.00000000000E+00  0.19586193071E+04  0.19586193071E+04  0.00000000000E+00 0.  1.
          1   -1    0    0  501    0  0.00000000000E+00 -0.00000000000E+00 -0.20821908996E+04  0.20821908996E+04  0.00000000000E+00 0. -1.
         23    2    1    2    0    0  0.84342475932E+03  0.17974740215E+04 -0.42495396186E+03  0.20325498862E+04  0.91624165704E+02 0.  0.
         11    1    3    3    0    0  0.80521082168E+03  0.16613190797E+04 -0.39125073743E+03  0.18871732013E+04  0.00000000000E+00 0.  1.
        -11    1    3    3    0    0  0.38213937648E+02  0.13615494171E+03 -0.33703224436E+02  0.14537668493E+03  0.00000000000E+00 0. -1.
         22    1    1    2    0    0 -0.84342475932E+03 -0.17974740215E+04  0.30138236938E+03  0.20082603205E+04  0.00000000000E+00 0. -1.
<mgrwt>
<rscale>  0 0.40389203E+04</rscale>
<asrwt>0</asrwt>
<pdfrwt beam="1">  1        1 0.32033706E+00 0.40389203E+04</pdfrwt>
<pdfrwt beam="2">  1       -1 0.30132605E+00 0.40389203E+04</pdfrwt>
<totfact> 0.66192933E-02</totfact>
</mgrwt>
</event>
<event>
 6    1  0.1001928E-005  0.2258276E+04  0.7818608E-02  0.8494556E-01
          1   -1    0    0  501    0  0.00000000000E+00  0.00000000000E+00  0.16186585854E+04  0.16186585854E+04  0.00000000000E+00 0. -1.
         -1   -1    0    0    0  501 -0.00000000000E+00 -0.00000000000E+00 -0.78766028731E+03  0.78766028731E+03  0.00000000000E+00 0.  1.
         23    2    1    2    0    0 -0.37477798863E+03 -0.61931614568E+03 -0.50323599009E+03  0.88836229730E+03  0.10922490775E+03 0.  0.
         11    1    3    3    0    0 -0.74608344435E+02 -0.22015339892E+03 -0.16944101791E+03  0.28765288573E+03  0.00000000000E+00 0. -1.
        -11    1    3    3    0    0 -0.30016964419E+03 -0.39916274676E+03 -0.33379497218E+03  0.60070941157E+03  0.00000000000E+00 0.  1.
         22    1    1    2    0    0  0.37477798863E+03  0.61931614568E+03  0.13342342882E+04  0.15179565754E+04  0.00000000000E+00 0. -1.
<mgrwt>
<rscale>  0 0.22582764E+04</rscale>
<asrwt>0</asrwt>
<pdfrwt beam="1">  1        1 0.24902440E+00 0.22582764E+04</pdfrwt>
<pdfrwt beam="2">  1       -1 0.12117851E+00 0.22582764E+04</pdfrwt>
<totfact> 0.29702797E+00</totfact>
</mgrwt>
</event>
<event>
 6    1  0.1001928E-005  0.2265411E+04  0.7818608E-02  0.8491685E-01
         -1   -1    0    0    0  501 -0.00000000000E+00  0.00000000000E+00  0.62845169584E+03  0.62845169584E+03  0.00000000000E+00 0.  1.
          1   -1    0    0  501    0  0.00000000000E+00 -0.00000000000E+00 -0.20415607106E+04  0.20415607106E+04  0.00000000000E+00 0. -1.
         23    2    1    2    0    0 -0.36056409232E+02  0.94607312055E+03  0.21444519179E+02  0.95120518752E+03  0.89314205396E+02 0.  0.
         13    1    3    3    0    0  0.18728896710E+02  0.59799208069E+03  0.25263047733E+02  0.59881843802E+03  0.00000000000E+00 0. -1.
        -13    1    3    3    0    0 -0.54785305942E+02  0.34808103986E+03 -0.38185285541E+01  0.35238674949E+03  0.00000000000E+00 0.  1.
         22    1    1    2    0    0  0.36056409232E+02 -0.94607312055E+03 -0.14345535339E+04  0.17188072189E+04  0.00000000000E+00 0. -1.
<mgrwt>
<rscale>  0 0.22654115E+04</rscale>
<asrwt>0</asrwt>
<pdfrwt beam="1">  1        1 0.31408626E+00 0.22654115E+04</pdfrwt>
<pdfrwt beam="2">  1       -1 0.96684878E-01 0.22654115E+04</pdfrwt>
<totfact> 0.26048769E+00</totfact>
</mgrwt>
</event>
<event>
 6    1  0.1001928E-005  0.1847114E+04  0.7818608E-02  0.8681638E-01
         -1   -1    0    0    0  501 -0.00000000000E+00  0.00000000000E+00  0.83086622581E+03  0.83086622581E+03  0.00000000000E+00 0. -1.
          1   -1    0    0  501    0  0.00000000000E+00 -0.00000000000E+00 -0.10265881373E+04  0.10265881373E+04  0.00000000000E+00 0.  1.
         23    2    1    2    0    0 -0.85754983824E+03 -0.18774338744E+03 -0.37961800682E+03  0.96053905024E+03  0.88803892585E+02 0.  0.
         13    1    3    3    0    0 -0.45303783368E+03 -0.54406871683E+02 -0.20448267561E+03  0.50001655078E+03  0.00000000000E+00 0. -1.
        -13    1    3    3    0    0 -0.40451200456E+03 -0.13333651576E+03 -0.17513533121E+03  0.46052249946E+03  0.00000000000E+00 0.  1.
         22    1    1    2    0    0  0.85754983824E+03  0.18774338744E+03  0.18389609533E+03  0.89691531287E+03  0.00000000000E+00 0. -1.
<mgrwt>
<rscale>  0 0.18471139E+04</rscale>
<asrwt>0</asrwt>
<pdfrwt beam="1">  1        1 0.15793664E+00 0.18471139E+04</pdfrwt>
<pdfrwt beam="2">  1       -1 0.12782557E+00 0.18471139E+04</pdfrwt>
<totfact> 0.71758997E+00</totfact>
</mgrwt>
</event>
<event>
 6    1  0.1001928E-005  0.3149790E+04  0.7818608E-02  0.8202205E-01
          1   -1    0    0  501    0  0.00000000000E+00  0.00000000000E+00  0.30856141884E+04  0.30856141884E+04  0.00000000000E+00 0. -1.
         -1   -1    0    0    0  501 -0.00000000000E+00 -0.00000000000E+00 -0.80382507935E+03  0.80382507935E+03  0.00000000000E+00 0.  1.
         23    2    1    2    0    0  0.31636060835E+03 -0.89401708981E+03  0.26928261833E+04  0.28558522768E+04  0.72310316953E+02 0.  0.
         11    1    3    3    0    0  0.79151811693E+02 -0.20188550949E+03  0.70824991466E+03  0.74070284855E+03  0.00000000000E+00 0. -1.
        -11    1    3    3    0    0  0.23720879665E+03 -0.69213158032E+03  0.19845762686E+04  0.21151494282E+04  0.00000000000E+00 0.  1.
         22    1    1    2    0    0 -0.31636060835E+03  0.89401708981E+03 -0.41103707428E+03  0.10335869909E+04  0.00000000000E+00 0.  1.
<mgrwt>
<rscale>  0 0.31497899E+04</rscale>
<asrwt>0</asrwt>
<pdfrwt beam="1">  1        1 0.47470987E+00 0.31497899E+04</pdfrwt>
<pdfrwt beam="2">  1       -1 0.12366540E+00 0.31497899E+04</pdfrwt>
<totfact> 0.24954444E-01</totfact>
</mgrwt>
</event>
<event>
 6    1  0.1001928E-005  0.8361262E+03  0.7818608E-02  0.9509149E-01
         -2   -1    0    0    0  501 -0.00000000000E+00  0.00000000000E+00  0.12811550725E+03  0.12811550725E+03  0.00000000000E+00 0.  1.
          2   -1    0    0  501    0  0.00000000000E+00 -0.00000000000E+00 -0.13642124604E+04  0.13642124604E+04  0.00000000000E+00 0. -1.
         23    2    1    2    0    0  0.33660556990E+03  0.22524919899E+03 -0.48071723014E+03  0.63521710128E+03  0.91494257002E+02 0.  0.
         11    1    3    3    0    0  0.31955031696E+03  0.19226158318E+03 -0.46168091272E+03  0.59348646708E+03  0.00000000000E+00 0. -1.
        -11    1    3    3    0    0  0.17055252939E+02  0.32987615809E+02 -0.19036317429E+02  0.41730634201E+02  0.00000000000E+00 0.  1.
         22    1    1    2    0    0 -0.33660556990E+03 -0.22524919899E+03 -0.75537972304E+03  0.85711086641E+03  0.00000000000E+00 0. -1.
<mgrwt>
<rscale>  0 0.83612624E+03</rscale>
<asrwt>0</asrwt>
<pdfrwt beam="1">  1        2 0.20987885E+00 0.83612624E+03</pdfrwt>
<pdfrwt beam="2">  1       -2 0.19710077E-01 0.83612624E+03</pdfrwt>
<totfact> 0.33419185E+02</totfact>
</mgrwt>
</event>
<event>
 6    1  0.1001928E-005  0.8200540E+03  0.7818608E-02  0.9531435E-01
          1   -1    0    0  501    0  0.00000000000E+00  0.00000000000E+00  0.13871761130E+04  0.13871761130E+04  0.00000000000E+00 0. -1.
         -1   -1    0    0    0  501 -0.00000000000E+00 -0.00000000000E+00 -0.12119741273E+03  0.12119741273E+03  0.00000000000E+00 0.  1.
         23    2    1    2    0    0  0.25113093584E+03  0.20900772066E+03  0.10812402821E+04  0.11330346690E+04  0.89084450294E+02 0.  0.
         11    1    3    3    0    0  0.10330175803E+03  0.14228707537E+03  0.52773067821E+03  0.55625222135E+03  0.00000000000E+00 0. -1.
        -11    1    3    3    0    0  0.14782917781E+03  0.66720645289E+02  0.55350960385E+03  0.57678244761E+03  0.00000000000E+00 0.  1.
         22    1    1    2    0    0 -0.25113093584E+03 -0.20900772066E+03  0.18473841820E+03  0.37533885675E+03  0.00000000000E+00 0.  1.
<mgrwt>
<rscale>  0 0.82005404E+03</rscale>
<asrwt>0</asrwt>
<pdfrwt beam="1">  1        1 0.21341170E+00 0.82005404E+03</pdfrwt>
<pdfrwt beam="2">  1       -1 0.18645757E-01 0.82005404E+03</pdfrwt>
<totfact> 0.18257913E+02</totfact>
</mgrwt>
</event>
<event>
 6    1  0.1001928E-005  0.1040313E+04  0.7818608E-02  0.9265403E-01
         -2   -1    0    0    0  501 -0.00000000000E+00  0.00000000000E+00  0.19838243048E+03  0.19838243048E+03  0.00000000000E+00 0.  1.
          2   -1    0    0  501    0  0.00000000000E+00 -0.00000000000E+00 -0.13638447404E+04  0.13638447404E+04  0.00000000000E+00 0. -1.
         23    2    1    2    0    0  0.47153150208E+03  0.13857451909E+03 -0.82381845498E+03  0.96367443436E+03  0.91906005726E+02 0.  0.
         11    1    3    3    0    0  0.20295948382E+03  0.13492159714E+02 -0.31870081021E+03  0.37808041059E+03  0.00000000000E+00 0. -1.
        -11    1    3    3    0    0  0.26857201826E+03  0.12508235937E+03 -0.50511764476E+03  0.58559402377E+03  0.00000000000E+00 0.  1.
         22    1    1    2    0    0 -0.47153150208E+03 -0.13857451909E+03 -0.34164385496E+03  0.59855273655E+03  0.00000000000E+00 0.  1.
<mgrwt>
<rscale>  0 0.10403131E+04</rscale>
<asrwt>0</asrwt>
<pdfrwt beam="1">  1        2 0.20982226E+00 0.10403131E+04</pdfrwt>
<pdfrwt beam="2">  1       -2 0.30520375E-01 0.10403131E+04</pdfrwt>
<totfact> 0.14999205E+02</totfact>
</mgrwt>
</event>
<event>
 6    1  0.1001928E-005  0.1554236E+04  0.7818608E-02  0.8849166E-01
         -2   -1    0    0    0  501 -0.00000000000E+00  0.00000000000E+00  0.62991873875E+03  0.62991873875E+03  0.00000000000E+00 0.  1.
          2   -1    0    0  501    0  0.00000000000E+00 -0.00000000000E+00 -0.95871527200E+03  0.95871527200E+03  0.00000000000E+00 0. -1.
         23    2    1    2    0    0  0.29225754014E+03 -0.24165228191E+03  0.52521634963E+03  0.65420996394E+03  0.91258796141E+02 0.  0.
         11    1    3    3    0    0  0.11724085051E+03 -0.43171841354E+02  0.15338486427E+03  0.19782856594E+03  0.00000000000E+00 0. -1.
        -11    1    3    3    0    0  0.17501668963E+03 -0.19848044056E+03  0.37183148536E+03  0.45638139800E+03  0.00000000000E+00 0.  1.
         22    1    1    2    0    0 -0.29225754014E+03  0.24165228191E+03 -0.85401288288E+03  0.93442404681E+03  0.00000000000E+00 0. -1.
<mgrwt>
<rscale>  0 0.15542364E+04</rscale>
<asrwt>0</asrwt>
<pdfrwt beam="1">  1        2 0.14749466E+00 0.15542364E+04</pdfrwt>
<pdfrwt beam="2">  1       -2 0.96910576E-01 0.15542364E+04</pdfrwt>
<totfact> 0.22938643E+01</totfact>
</mgrwt>
</event>
<event>
 6    1  0.1001928E-005  0.2071408E+04  0.7818608E-02  0.8573944E-01
         -2   -1    0    0    0  501 -0.00000000000E+00  0.00000000000E+00  0.11096387791E+04  0.11096387791E+04  0.00000000000E+00 0.  1.
          2   -1    0    0  501    0  0.00000000000E+00 -0.00000000000E+00 -0.96669551608E+03  0.96669551608E+03  0.00000000000E+00 0. -1.
         23    2    1    2    0    0  0.14085315448E+03  0.88190786923E+03  0.59292240922E+03  0.10762931295E+04  0.96170766347E+02 0.  0.
         13    1    3    3    0    0  0.49895253313E+02  0.15874546131E+03  0.14562596034E+03  0.22112570659E+03  0.00000000000E+00 0.  1.
        -13    1    3    3    0    0  0.90957901166E+02  0.72316240792E+03  0.44729644888E+03  0.85516742290E+03  0.00000000000E+00 0. -1.
         22    1    1    2    0    0 -0.14085315448E+03 -0.88190786923E+03 -0.44997914625E+03  0.10000411656E+04  0.00000000000E+00 0. -1.
<mgrwt>
<rscale>  0 0.20714081E+04</rscale>
<asrwt>0</asrwt>
<pdfrwt beam="1">  1        2 0.14872239E+00 0.20714081E+04</pdfrwt>
<pdfrwt beam="2">  1       -2 0.17071366E+00 0.20714081E+04</pdfrwt>
<totfact> 0.51500305E+00</totfact>
</mgrwt>
</event>
<event>
 6    1  0.1001928E-005  0.4573877E+04  0.7818608E-02  0.7897829E-01
         -1   -1    0    0    0  501 -0.00000000000E+00  0.00000000000E+00  0.16283584747E+04  0.16283584747E+04  0.00000000000E+00 0. -1.
          1   -1    0    0  501    0  0.00000000000E+00 -0.00000000000E+00 -0.32118768456E+04  0.32118768456E+04  0.00000000000E+00 0.  1.
         23    2    1    2    0    0 -0.10566382380E+04  0.19907736458E+04 -0.38738094290E+03  0.22886850423E+04  0.91384643646E+02 0.  0.
         13    1    3    3    0    0 -0.53959813702E+03  0.91968969197E+03 -0.18715145815E+03  0.10825991628E+04  0.00000000000E+00 0. -1.
        -13    1    3    3    0    0 -0.51704010094E+03  0.10710839538E+04 -0.20022948475E+03  0.12060858795E+04  0.00000000000E+00 0.  1.
         22    1    1    2    0    0  0.10566382380E+04 -0.19907736458E+04 -0.11961374280E+04  0.25515502781E+04  0.00000000000E+00 0.  1.
<mgrwt>
<rscale>  0 0.45738766E+04</rscale>
<asrwt>0</asrwt>
<pdfrwt beam="1">  1        1 0.49413490E+00 0.45738766E+04</pdfrwt>
<pdfrwt beam="2">  1       -1 0.25051669E+00 0.45738766E+04</pdfrwt>
<totfact> 0.21505439E-02</totfact>
</mgrwt>
</event>
<event>
 6    1  0.1001928E-005  0.2306990E+04  0.7818608E-02  0.8475170E-01
         -1   -1    0    0    0  501 -0.00000000000E+00  0.00000000000E+00  0.79136126848E+03  0.79136126848E+03  0.00000000000E+00 0.  1.
          1   -1    0    0  501    0  0.00000000000E+00 -0.00000000000E+00 -0.16813436496E+04  0.16813436496E+04  0.00000000000E+00 0. -1.
         23    2    1    2    0    0  0.10742074727E+04 -0.39731429526E+03 -0.57556542199E+03  0.12850019384E+04  0.90410636396E+02 0.  0.
         11    1    3    3    0    0  0.42277174450E+03 -0.16744745095E+03 -0.18072418549E+03  0.48932180413E+03  0.00000000000E+00 0.  1.
        -11    1    3    3    0    0  0.65143572822E+03 -0.22986684431E+03 -0.39484123650E+03  0.79568013432E+03  0.00000000000E+00 0. -1.
         22    1    1    2    0    0 -0.10742074727E+04  0.39731429526E+03 -0.31441695913E+03  0.11877029796E+04  0.00000000000E+00 0.  1.
<mgrwt>
<rscale>  0 0.23069896E+04</rscale>
<asrwt>0</asrwt>
<pdfrwt beam="1">  1        1 0.25866825E+00 0.23069896E+04</pdfrwt>
<pdfrwt beam="2">  1       -1 0.12174789E+00 0.23069896E+04</pdfrwt>
<totfact> 0.26486090E+00</totfact>
</mgrwt>
</event>
<event>
 6    1  0.1001928E-005  0.4444931E+04  0.7818608E-02  0.7920349E-01
          1   -1    0    0  501    0  0.00000000000E+00  0.00000000000E+00  0.20437926238E+04  0.20437926238E+04  0.00000000000E+00 0. -1.
         -1   -1    0    0    0  501 -0.00000000000E+00 -0.00000000000E+00 -0.24167587811E+04  0.24167587811E+04  0.00000000000E+00 0.  1.
         23    2    1    2    0    0 -0.10950760117E+04 -0.19172687302E+04 -0.43187331024E+03  0.22518004212E+04  0.94761415178E+02 0.  0.
         13    1    3    3    0    0 -0.49277543204E+03 -0.80363222031E+03 -0.14709952145E+03  0.95409152661E+03  0.00000000000E+00 0. -1.
        -13    1    3    3    0    0 -0.60230057964E+03 -0.11136365099E+04 -0.28477378880E+03  0.12977088946E+04  0.00000000000E+00 0.  1.
         22    1    1    2    0    0  0.10950760117E+04  0.19172687302E+04  0.58907152892E+02  0.22087509836E+04  0.00000000000E+00 0.  1.
<mgrwt>
<rscale>  0 0.44449314E+04</rscale>
<asrwt>0</asrwt>
<pdfrwt beam="1">  1        1 0.31442964E+00 0.44449314E+04</pdfrwt>
<pdfrwt beam="2">  1       -1 0.37180904E+00 0.44449314E+04</pdfrwt>
<totfact> 0.23332564E-02</totfact>
</mgrwt>
</event>
<event>
 6    1  0.1002592E-005  0.2776451E+04  0.7818608E-02  0.8310617E-01
         -2   -1    0    0    0  501 -0.00000000000E+00  0.00000000000E+00  0.12499297206E+04  0.12499297206E+04  0.00000000000E+00 0.  1.
          2   -1    0    0  501    0  0.00000000000E+00 -0.00000000000E+00 -0.15418230952E+04  0.15418230952E+04  0.00000000000E+00 0. -1.
         23    2    1    2    0    0  0.65749222243E+03  0.76768282419E+03 -0.11007155749E+04  0.14972157199E+04  0.91908617009E+02 0.  0.
         13    1    3    3    0    0  0.21721186518E+03  0.32223121674E+03 -0.41900670178E+03  0.57147228065E+03  0.00000000000E+00 0.  1.
        -13    1    3    3    0    0  0.44028035726E+03  0.44545160744E+03 -0.68170887315E+03  0.92574343924E+03  0.00000000000E+00 0. -1.
         22    1    1    2    0    0 -0.65749222243E+03 -0.76768282419E+03  0.80882220035E+03  0.12945370960E+04  0.00000000000E+00 0.  1.
<mgrwt>
<rscale>  0 0.27764513E+04</rscale>
<asrwt>0</asrwt>
<pdfrwt beam="1">  1        2 0.23720355E+00 0.27764513E+04</pdfrwt>
<pdfrwt beam="2">  1       -2 0.19229688E+00 0.27764513E+04</pdfrwt>
<totfact> 0.15683327E+00</totfact>
</mgrwt>
</event>
<event>
 6    1  0.1001928E-005  0.1997301E+04  0.7818608E-02  0.8607884E-01
         -1   -1    0    0    0  501 -0.00000000000E+00  0.00000000000E+00  0.91462136337E+03  0.91462136337E+03  0.00000000000E+00 0.  1.
          1   -1    0    0  501    0  0.00000000000E+00 -0.00000000000E+00 -0.10903995133E+04  0.10903995133E+04  0.00000000000E+00 0. -1.
         23    2    1    2    0    0  0.44301432593E+03  0.89196215627E+03 -0.12376077558E+03  0.10077425863E+04  0.91488848565E+02 0.  0.
         11    1    3    3    0    0  0.26067035932E+03  0.60127726916E+03 -0.10841391574E+03  0.66425670321E+03  0.00000000000E+00 0. -1.
        -11    1    3    3    0    0  0.18234396660E+03  0.29068488711E+03 -0.15346859842E+02  0.34348588306E+03  0.00000000000E+00 0.  1.
         22    1    1    2    0    0 -0.44301432593E+03 -0.89196215627E+03 -0.52017374298E+02  0.99727829036E+03  0.00000000000E+00 0. -1.
<mgrwt>
<rscale>  0 0.19973009E+04</rscale>
<asrwt>0</asrwt>
<pdfrwt beam="1">  1        1 0.16775377E+00 0.19973009E+04</pdfrwt>
<pdfrwt beam="2">  1       -1 0.14071098E+00 0.19973009E+04</pdfrwt>
<totfact> 0.49484185E+00</totfact>
</mgrwt>
</event>
<event>
 6    1  0.1001928E-005  0.2688225E+04  0.7818608E-02  0.8338836E-01
         -2   -1    0    0    0  501 -0.00000000000E+00  0.00000000000E+00  0.86725303243E+03  0.86725303243E+03  0.00000000000E+00 0.  1.
          2   -1    0    0  501    0  0.00000000000E+00 -0.00000000000E+00 -0.20831732557E+04  0.20831732557E+04  0.00000000000E+00 0. -1.
         23    2    1    2    0    0  0.50493115922E+03  0.12393762797E+04 -0.72670610364E+03  0.15255264696E+04  0.90112208550E+02 0.  0.
         13    1    3    3    0    0  0.19284012748E+03  0.54646185626E+03 -0.27461419691E+03  0.64126502498E+03  0.00000000000E+00 0.  1.
        -13    1    3    3    0    0  0.31209103174E+03  0.69291442341E+03 -0.45209190673E+03  0.88426144459E+03  0.00000000000E+00 0. -1.
         22    1    1    2    0    0 -0.50493115922E+03 -0.12393762797E+04 -0.48921411966E+03  0.14248998186E+04  0.00000000000E+00 0. -1.
<mgrwt>
<rscale>  0 0.26882249E+04</rscale>
<asrwt>0</asrwt>
<pdfrwt beam="1">  1        2 0.32048819E+00 0.26882249E+04</pdfrwt>
<pdfrwt beam="2">  1       -2 0.13342354E+00 0.26882249E+04</pdfrwt>
<totfact> 0.21435450E+00</totfact>
</mgrwt>
</event>
<event>
 6    1  0.1001928E-005  0.2006528E+04  0.7818608E-02  0.8603575E-01
         -2   -1    0    0    0  501 -0.00000000000E+00  0.00000000000E+00  0.70466609762E+03  0.70466609762E+03  0.00000000000E+00 0. -1.
          2   -1    0    0  501    0  0.00000000000E+00 -0.00000000000E+00 -0.14283906876E+04  0.14283906876E+04  0.00000000000E+00 0.  1.
         23    2    1    2    0    0  0.86612457358E+03 -0.50037740570E+03 -0.40337044994E+03  0.10827348821E+04  0.95172370030E+02 0.  0.
         13    1    3    3    0    0  0.73907459678E+03 -0.39476793708E+03 -0.35974166001E+03  0.91185911505E+03  0.00000000000E+00 0. -1.
        -13    1    3    3    0    0  0.12704997680E+03 -0.10560946862E+03 -0.43628789933E+02  0.17087576709E+03  0.00000000000E+00 0.  1.
         22    1    1    2    0    0 -0.86612457358E+03  0.50037740570E+03 -0.32035414006E+03  0.10503219031E+04  0.00000000000E+00 0.  1.
<mgrwt>
<rscale>  0 0.20065278E+04</rscale>
<asrwt>0</asrwt>
<pdfrwt beam="1">  1        2 0.21975241E+00 0.20065278E+04</pdfrwt>
<pdfrwt beam="2">  1       -2 0.10841017E+00 0.20065278E+04</pdfrwt>
<totfact> 0.88108667E+00</totfact>
</mgrwt>
</event>
<event>
 6    1  0.1001928E-005  0.1982844E+04  0.7818608E-02  0.8614684E-01
          2   -1    0    0  501    0  0.00000000000E+00  0.00000000000E+00  0.11361367706E+04  0.11361367706E+04  0.00000000000E+00 0. -1.
         -2   -1    0    0    0  501 -0.00000000000E+00 -0.00000000000E+00 -0.86514036025E+03  0.86514036025E+03  0.00000000000E+00 0.  1.
         23    2    1    2    0    0  0.49155091384E+03  0.77095964926E+03 -0.24555838949E+03  0.95112002694E+03  0.91265005934E+02 0.  0.
         11    1    3    3    0    0  0.25244580386E+03  0.32431176011E+03 -0.13487451508E+03  0.43254842093E+03  0.00000000000E+00 0.  1.
        -11    1    3    3    0    0  0.23910510998E+03  0.44664788915E+03 -0.11068387441E+03  0.51857160601E+03  0.00000000000E+00 0. -1.
         22    1    1    2    0    0 -0.49155091384E+03 -0.77095964926E+03  0.51655479985E+03  0.10501571039E+04  0.00000000000E+00 0. -1.
<mgrwt>
<rscale>  0 0.19828442E+04</rscale>
<asrwt>0</asrwt>
<pdfrwt beam="1">  1        2 0.17479027E+00 0.19828442E+04</pdfrwt>
<pdfrwt beam="2">  1       -2 0.13309852E+00 0.19828442E+04</pdfrwt>
<totfact> 0.78789322E+00</totfact>
</mgrwt>
</event>
<event>
 6    1  0.1001928E-005  0.1261446E+04  0.7818608E-02  0.9060710E-01
          2   -1    0    0  501    0  0.00000000000E+00  0.00000000000E+00  0.25942752122E+04  0.25942752122E+04  0.00000000000E+00 0. -1.
         -2   -1    0    0    0  501 -0.00000000000E+00 -0.00000000000E+00 -0.15334214391E+03  0.15334214391E+03  0.00000000000E+00 0.  1.
         23    2    1    2    0    0 -0.18297496143E+03  0.50872123512E+03  0.53333830304E+03  0.76489324015E+03  0.91295080752E+02 0.  0.
         13    1    3    3    0    0 -0.11449944151E+03  0.19192106509E+03  0.19901578319E+03  0.29925089689E+03  0.00000000000E+00 0. -1.
        -13    1    3    3    0    0 -0.68475519922E+02  0.31680017003E+03  0.33432251985E+03  0.46564234326E+03  0.00000000000E+00 0.  1.
         22    1    1    2    0    0  0.18297496143E+03 -0.50872123512E+03  0.19075947652E+04  0.19827241159E+04  0.00000000000E+00 0. -1.
<mgrwt>
<rscale>  0 0.12614463E+04</rscale>
<asrwt>0</asrwt>
<pdfrwt beam="1">  1        2 0.39911923E+00 0.12614463E+04</pdfrwt>
<pdfrwt beam="2">  1       -2 0.23591101E-01 0.12614463E+04</pdfrwt>
<totfact> 0.48330278E+01</totfact>
</mgrwt>
</event>
<event>
 6    1  0.1001928E-005  0.2121450E+04  0.7818608E-02  0.8551853E-01
          2   -1    0    0  501    0  0.00000000000E+00  0.00000000000E+00  0.90175910308E+03  0.90175910308E+03  0.00000000000E+00 0. -1.
         -2   -1    0    0    0  501 -0.00000000000E+00 -0.00000000000E+00 -0.12477145806E+04  0.12477145806E+04  0.00000000000E+00 0.  1.
         23    2    1    2    0    0  0.10424514261E+04  0.11288541145E+03 -0.32222750705E+03  0.11006595397E+04  0.90403341294E+02 0.  0.
         11    1    3    3    0    0  0.57853462834E+03  0.10326609492E+03 -0.20052934509E+03  0.62094945107E+03  0.00000000000E+00 0. -1.
        -11    1    3    3    0    0  0.46391679780E+03  0.96193165300E+01 -0.12169816196E+03  0.47971008865E+03  0.00000000000E+00 0.  1.
         22    1    1    2    0    0 -0.10424514261E+04 -0.11288541145E+03 -0.23727970478E+02  0.10488141440E+04  0.00000000000E+00 0. -1.
<mgrwt>
<rscale>  0 0.21214504E+04</rscale>
<asrwt>0</asrwt>
<pdfrwt beam="1">  1        2 0.13873217E+00 0.21214504E+04</pdfrwt>
<pdfrwt beam="2">  1       -2 0.19195609E+00 0.21214504E+04</pdfrwt>
<totfact> 0.40441285E+00</totfact>
</mgrwt>
</event>
<event>
 6    1  0.1001928E-005  0.1919087E+04  0.7818608E-02  0.8645413E-01
         -2   -1    0    0    0  501 -0.00000000000E+00  0.00000000000E+00  0.10271807064E+04  0.10271807064E+04  0.00000000000E+00 0. -1.
          2   -1    0    0  501    0  0.00000000000E+00 -0.00000000000E+00 -0.89636030325E+03  0.89636030325E+03  0.00000000000E+00 0.  1.
         23    2    1    2    0    0  0.31985227158E+03 -0.21244089156E+03  0.94485921932E+03  0.10234877877E+04  0.85625341568E+02 0.  0.
         13    1    3    3    0    0  0.69968989059E+02 -0.93006345237E+02  0.28782401076E+03  0.31046497524E+03  0.00000000000E+00 0.  1.
        -13    1    3    3    0    0  0.24988328253E+03 -0.11943454632E+03  0.65703520856E+03  0.71302281242E+03  0.00000000000E+00 0. -1.
         22    1    1    2    0    0 -0.31985227158E+03  0.21244089156E+03 -0.81403881621E+03  0.90005322195E+03  0.00000000000E+00 0.  1.
<mgrwt>
<rscale>  0 0.19190873E+04</rscale>
<asrwt>0</asrwt>
<pdfrwt beam="1">  1        2 0.13790159E+00 0.19190873E+04</pdfrwt>
<pdfrwt beam="2">  1       -2 0.15802780E+00 0.19190873E+04</pdfrwt>
<totfact> 0.71823948E+00</totfact>
</mgrwt>
</event>
<event>
 6    1  0.1001928E-005  0.8133913E+04  0.7818608E-02  0.7470604E-01
          2   -1    0    0  501    0  0.00000000000E+00  0.00000000000E+00  0.35481804233E+04  0.35481804233E+04  0.00000000000E+00 0. -1.
         -2   -1    0    0    0  501 -0.00000000000E+00 -0.00000000000E+00 -0.46615827180E+04  0.46615827180E+04  0.00000000000E+00 0.  1.
         23    2    1    2    0    0  0.11049254861E+04  0.21334614523E+04  0.27543570515E+04  0.36565137018E+04  0.10531660055E+03 0.  0.
         13    1    3    3    0    0  0.53352469886E+03  0.99743581426E+03  0.13733882615E+04  0.17792476289E+04  0.00000000000E+00 0. -1.
        -13    1    3    3    0    0  0.57140078722E+03  0.11360256380E+04  0.13809687899E+04  0.18772660730E+04  0.00000000000E+00 0.  1.
         22    1    1    2    0    0 -0.11049254861E+04 -0.21334614523E+04 -0.38677593462E+04  0.45532494395E+04  0.00000000000E+00 0.  1.
<mgrwt>
<rscale>  0 0.81339133E+04</rscale>
<asrwt>0</asrwt>
<pdfrwt beam="1">  1        2 0.54587392E+00 0.81339133E+04</pdfrwt>
<pdfrwt beam="2">  1       -2 0.71716656E+00 0.81339133E+04</pdfrwt>
<totfact> 0.87062267E-05</totfact>
</mgrwt>
</event>
<event>
 6    1  0.1001928E-005  0.7381614E+03  0.7818608E-02  0.9654108E-01
         -2   -1    0    0    0  501 -0.00000000000E+00  0.00000000000E+00  0.12078539198E+03  0.12078539198E+03  0.00000000000E+00 0. -1.
          2   -1    0    0  501    0  0.00000000000E+00 -0.00000000000E+00 -0.11277900175E+04  0.11277900175E+04  0.00000000000E+00 0.  1.
         23    2    1    2    0    0  0.74387642851E+02  0.31903070908E+03 -0.77740160895E+03  0.84853583648E+03  0.91354745033E+02 0.  0.
         13    1    3    3    0    0  0.45451608826E+02  0.18503966580E+03 -0.55997314690E+03  0.59150270660E+03  0.00000000000E+00 0. -1.
        -13    1    3    3    0    0  0.28936034025E+02  0.13399104329E+03 -0.21742846205E+03  0.25703312988E+03  0.00000000000E+00 0.  1.
         22    1    1    2    0    0 -0.74387642851E+02 -0.31903070908E+03 -0.22960301655E+03  0.40003957299E+03  0.00000000000E+00 0. -1.
<mgrwt>
<rscale>  0 0.73816139E+03</rscale>
<asrwt>0</asrwt>
<pdfrwt beam="1">  1        2 0.17350615E+00 0.73816139E+03</pdfrwt>
<pdfrwt beam="2">  1       -2 0.18582368E-01 0.73816139E+03</pdfrwt>
<totfact> 0.51199337E+02</totfact>
</mgrwt>
</event>
<event>
 6    1  0.1001928E-005  0.2864067E+04  0.7818608E-02  0.8283650E-01
          2   -1    0    0  501    0  0.00000000000E+00  0.00000000000E+00  0.19652104112E+04  0.19652104112E+04  0.00000000000E+00 0. -1.
         -2   -1    0    0    0  501 -0.00000000000E+00 -0.00000000000E+00 -0.10435113224E+04  0.10435113224E+04  0.00000000000E+00 0.  1.
         23    2    1    2    0    0 -0.13736792240E+04 -0.39990485619E+03  0.48334189957E+03  0.15123676546E+04  0.81963566825E+02 0.  0.
         13    1    3    3    0    0 -0.30733244875E+03 -0.72062119236E+02  0.13817857435E+03  0.34458598563E+03  0.00000000000E+00 0. -1.
        -13    1    3    3    0    0 -0.10663467752E+04 -0.32784273696E+03  0.34516332523E+03  0.11677816689E+04  0.00000000000E+00 0.  1.
         22    1    1    2    0    0  0.13736792240E+04  0.39990485619E+03  0.43835718929E+03  0.14963540790E+04  0.00000000000E+00 0.  1.
<mgrwt>
<rscale>  0 0.28640666E+04</rscale>
<asrwt>0</asrwt>
<pdfrwt beam="1">  1        2 0.30234006E+00 0.28640666E+04</pdfrwt>
<pdfrwt beam="2">  1       -2 0.16054020E+00 0.28640666E+04</pdfrwt>
<totfact> 0.15093548E+00</totfact>
</mgrwt>
</event>
<event>
 6    1  0.1001928E-005  0.8891495E+03  0.7818608E-02  0.9439248E-01
          1   -1    0    0  501    0  0.00000000000E+00  0.00000000000E+00  0.14680031984E+04  0.14680031984E+04  0.00000000000E+00 0. -1.
         -1   -1    0    0    0  501 -0.00000000000E+00 -0.00000000000E+00 -0.13463644141E+03  0.13463644141E+03  0.00000000000E+00 0.  1.
         23    2    1    2    0    0  0.31005115864E+02 -0.13201275562E+03  0.14279617036E+04  0.14373009305E+04  0.91491272545E+02 0.  0.
         13    1    3    3    0    0 -0.73447764629E+01 -0.77021600094E+02  0.41688953034E+03  0.42400843521E+03  0.00000000000E+00 0.  1.
        -13    1    3    3    0    0  0.38349892326E+02 -0.54991155527E+02  0.10110721733E+04  0.10132924953E+04  0.00000000000E+00 0. -1.
         22    1    1    2    0    0 -0.31005115864E+02  0.13201275562E+03 -0.94594946658E+02  0.16533870929E+03  0.00000000000E+00 0.  1.
<mgrwt>
<rscale>  0 0.88914954E+03</rscale>
<asrwt>0</asrwt>
<pdfrwt beam="1">  1        1 0.22584663E+00 0.88914954E+03</pdfrwt>
<pdfrwt beam="2">  1       -1 0.20713300E-01 0.88914954E+03</pdfrwt>
<totfact> 0.13399555E+02</totfact>
</mgrwt>
</event>
<event>
 6    1  0.1001928E-005  0.1639986E+04  0.7818608E-02  0.8796353E-01
          2   -1    0    0  501    0  0.00000000000E+00  0.00000000000E+00  0.72385717152E+03  0.72385717152E+03  0.00000000000E+00 0. -1.
         -2   -1    0    0    0  501 -0.00000000000E+00 -0.00000000000E+00 -0.92889679286E+03  0.92889679286E+03  0.00000000000E+00 0.  1.
         23    2    1    2    0    0  0.65029197581E+03 -0.40834033096E+03 -0.38535422102E+03  0.86399872063E+03  0.91511933098E+02 0.  0.
         13    1    3    3    0    0  0.60088746139E+03 -0.38907048493E+03 -0.38064558894E+03  0.81076053670E+03  0.00000000000E+00 0.  1.
        -13    1    3    3    0    0  0.49404514424E+02 -0.19269846032E+02 -0.47086320730E+01  0.53238183924E+02  0.00000000000E+00 0. -1.
         22    1    1    2    0    0 -0.65029197581E+03  0.40834033096E+03  0.18031459968E+03  0.78875524375E+03  0.00000000000E+00 0. -1.
<mgrwt>
<rscale>  0 0.16399861E+04</rscale>
<asrwt>0</asrwt>
<pdfrwt beam="1">  1        2 0.11136264E+00 0.16399861E+04</pdfrwt>
<pdfrwt beam="2">  1       -2 0.14290720E+00 0.16399861E+04</pdfrwt>
<totfact> 0.12770062E+01</totfact>
</mgrwt>
</event>
<event>
 6    1  0.1001928E-005  0.1623470E+04  0.7818608E-02  0.8806258E-01
          1   -1    0    0  501    0  0.00000000000E+00  0.00000000000E+00  0.18514613274E+04  0.18514613274E+04  0.00000000000E+00 0. -1.
         -1   -1    0    0    0  501 -0.00000000000E+00 -0.00000000000E+00 -0.35588837067E+03  0.35588837067E+03  0.00000000000E+00 0.  1.
         23    2    1    2    0    0 -0.78487588963E+03 -0.19236821801E+03  0.70630140126E+03  0.10777545132E+04  0.98272212946E+02 0.  0.
         11    1    3    3    0    0 -0.46123992356E+03 -0.10971746398E+03  0.34954106569E+03  0.58903238076E+03  0.00000000000E+00 0. -1.
        -11    1    3    3    0    0 -0.32363596607E+03 -0.82650754038E+02  0.35676033557E+03  0.48872213242E+03  0.00000000000E+00 0.  1.
         22    1    1    2    0    0  0.78487588963E+03  0.19236821801E+03  0.78927155546E+03  0.11295951849E+04  0.00000000000E+00 0. -1.
<mgrwt>
<rscale>  0 0.16234698E+04</rscale>
<asrwt>0</asrwt>
<pdfrwt beam="1">  1        1 0.28484020E+00 0.16234698E+04</pdfrwt>
<pdfrwt beam="2">  1       -1 0.54752058E-01 0.16234698E+04</pdfrwt>
<totfact> 0.12134918E+01</totfact>
</mgrwt>
</event>
<event>
 6    1  0.1001928E-005  0.2356171E+04  0.7818608E-02  0.8456097E-01
          1   -1    0    0  501    0  0.00000000000E+00  0.00000000000E+00  0.12688327134E+04  0.12688327134E+04  0.00000000000E+00 0. -1.
         -1   -1    0    0    0  501 -0.00000000000E+00 -0.00000000000E+00 -0.10938289580E+04  0.10938289580E+04  0.00000000000E+00 0.  1.
         23    2    1    2    0    0 -0.56176928136E+02 -0.43737906306E+03  0.11811759489E+04  0.12640995315E+04  0.91185038201E+02 0.  0.
         13    1    3    3    0    0 -0.74744330680E+01 -0.13929649251E+03  0.49732324065E+03  0.51651697520E+03  0.00000000000E+00 0.  1.
        -13    1    3    3    0    0 -0.48702495068E+02 -0.29808257055E+03  0.68385270827E+03  0.74758255631E+03  0.00000000000E+00 0. -1.
         22    1    1    2    0    0  0.56176928136E+02  0.43737906306E+03 -0.10061721936E+04  0.10985621399E+04  0.00000000000E+00 0.  1.
<mgrwt>
<rscale>  0 0.23561714E+04</rscale>
<asrwt>0</asrwt>
<pdfrwt beam="1">  1        1 0.19520503E+00 0.23561714E+04</pdfrwt>
<pdfrwt beam="2">  1       -1 0.16828138E+00 0.23561714E+04</pdfrwt>
<totfact> 0.21706179E+00</totfact>
</mgrwt>
</event>
<event>
 6    1  0.1001928E-005  0.2903547E+04  0.7818608E-02  0.8271823E-01
          2   -1    0    0  501    0  0.00000000000E+00  0.00000000000E+00  0.16762332745E+04  0.16762332745E+04  0.00000000000E+00 0. -1.
         -2   -1    0    0    0  501 -0.00000000000E+00 -0.00000000000E+00 -0.12573704476E+04  0.12573704476E+04  0.00000000000E+00 0.  1.
         23    2    1    2    0    0  0.69096846688E+03  0.11121492351E+04  0.83990855289E+03  0.15582518229E+04  0.91591610593E+02 0.  0.
         11    1    3    3    0    0  0.48092755260E+02  0.52778308145E+02  0.27540845353E+02  0.76530785191E+02  0.00000000000E+00 0. -1.
        -11    1    3    3    0    0  0.64287571162E+03  0.10593709269E+04  0.81236770754E+03  0.14817210377E+04  0.00000000000E+00 0.  1.
         22    1    1    2    0    0 -0.69096846688E+03 -0.11121492351E+04 -0.42104572591E+03  0.13753518992E+04  0.00000000000E+00 0.  1.
<mgrwt>
<rscale>  0 0.29035469E+04</rscale>
<asrwt>0</asrwt>
<pdfrwt beam="1">  1        2 0.25788204E+00 0.29035469E+04</pdfrwt>
<pdfrwt beam="2">  1       -2 0.19344161E+00 0.29035469E+04</pdfrwt>
<totfact> 0.12824306E+00</totfact>
</mgrwt>
</event>
<event>
 6    1  0.1001928E-005  0.3664990E+04  0.7818608E-02  0.8075765E-01
         -2   -1    0    0    0  501 -0.00000000000E+00  0.00000000000E+00  0.20680512599E+04  0.20680512599E+04  0.00000000000E+00 0.  1.
          2   -1    0    0  501    0  0.00000000000E+00 -0.00000000000E+00 -0.16237694138E+04  0.16237694138E+04  0.00000000000E+00 0. -1.
         23    2    1    2    0    0 -0.29446412861E+03  0.10165808712E+04  0.17274107490E+04  0.20285210699E+04  0.10394250597E+03 0.  0.
         11    1    3    3    0    0 -0.12176866473E+03  0.25742399701E+03  0.44824936921E+03  0.53105764183E+03  0.00000000000E+00 0.  1.
        -11    1    3    3    0    0 -0.17269546388E+03  0.75915687417E+03  0.12791613797E+04  0.14974634280E+04  0.00000000000E+00 0. -1.
         22    1    1    2    0    0  0.29446412861E+03 -0.10165808712E+04 -0.12831289029E+04  0.16632996038E+04  0.00000000000E+00 0. -1.
<mgrwt>
<rscale>  0 0.36649902E+04</rscale>
<asrwt>0</asrwt>
<pdfrwt beam="1">  1        2 0.24981068E+00 0.36649902E+04</pdfrwt>
<pdfrwt beam="2">  1       -2 0.31816173E+00 0.36649902E+04</pdfrwt>
<totfact> 0.21547755E-01</totfact>
</mgrwt>
</event>
<event>
 6    1  0.1001928E-005  0.1245072E+04  0.7818608E-02  0.9074295E-01
          3   -1    0    0  501    0  0.00000000000E+00  0.00000000000E+00  0.21036753452E+03  0.21036753452E+03  0.00000000000E+00 0. -1.
         -3   -1    0    0    0  501 -0.00000000000E+00 -0.00000000000E+00 -0.18422573158E+04  0.18422573158E+04  0.00000000000E+00 0.  1.
         23    2    1    2    0    0 -0.31523631038E+03  0.40205168260E+02  0.55889180450E+02  0.33518832730E+03  0.90759172137E+02 0.  0.
         13    1    3    3    0    0 -0.13667558489E+03  0.38726630664E+02  0.65358889174E+02  0.15637055932E+03  0.00000000000E+00 0. -1.
        -13    1    3    3    0    0 -0.17856072549E+03  0.14785375958E+01 -0.94697087239E+01  0.17881776798E+03  0.00000000000E+00 0.  1.
         22    1    1    2    0    0  0.31523631038E+03 -0.40205168260E+02 -0.16877789618E+04  0.17174365230E+04  0.00000000000E+00 0.  1.
<mgrwt>
<rscale>  0 0.12450721E+04</rscale>
<asrwt>0</asrwt>
<pdfrwt beam="1">  1        3 0.32364236E-01 0.12450721E+04</pdfrwt>
<pdfrwt beam="2">  1       -3 0.28342420E+00 0.12450721E+04</pdfrwt>
<totfact> 0.11480101E+00</totfact>
</mgrwt>
</event>
<event>
 6    1  0.1001928E-005  0.1272141E+04  0.7818608E-02  0.9051954E-01
         -2   -1    0    0    0  501 -0.00000000000E+00  0.00000000000E+00  0.16462276164E+03  0.16462276164E+03  0.00000000000E+00 0. -1.
          2   -1    0    0  501    0  0.00000000000E+00 -0.00000000000E+00 -0.24576518004E+04  0.24576518004E+04  0.00000000000E+00 0.  1.
         23    2    1    2    0    0 -0.51879830460E+03 -0.18249522459E+03 -0.17976138298E+04  0.18820770093E+04  0.91335643939E+02 0.  0.
         13    1    3    3    0    0 -0.35280432981E+03 -0.91976831913E+02 -0.10753895313E+04  0.11355145428E+04  0.00000000000E+00 0. -1.
        -13    1    3    3    0    0 -0.16599397479E+03 -0.90518392677E+02 -0.72222429849E+03  0.74656246652E+03  0.00000000000E+00 0.  1.
         22    1    1    2    0    0  0.51879830460E+03  0.18249522459E+03 -0.49541520896E+03  0.74019755277E+03  0.00000000000E+00 0. -1.
<mgrwt>
<rscale>  0 0.12721406E+04</rscale>
<asrwt>0</asrwt>
<pdfrwt beam="1">  1        2 0.37810025E+00 0.12721406E+04</pdfrwt>
<pdfrwt beam="2">  1       -2 0.25326580E-01 0.12721406E+04</pdfrwt>
<totfact> 0.50918527E+01</totfact>
</mgrwt>
</event>
<event>
 6    1  0.1001928E-005  0.1023573E+04  0.7818608E-02  0.9283061E-01
          2   -1    0    0  501    0  0.00000000000E+00  0.00000000000E+00  0.21007650981E+04  0.21007650981E+04  0.00000000000E+00 0. -1.
         -2   -1    0    0    0  501 -0.00000000000E+00 -0.00000000000E+00 -0.12468100689E+03  0.12468100689E+03  0.00000000000E+00 0.  1.
         23    2    1    2    0    0 -0.35119506246E+03  0.32742008911E+03  0.13538858546E+04  0.14395246507E+04  0.93179537038E+02 0.  0.
         11    1    3    3    0    0 -0.24031534125E+03  0.24792958102E+03  0.84890509932E+03  0.91643898216E+03  0.00000000000E+00 0. -1.
        -11    1    3    3    0    0 -0.11087972121E+03  0.79490508091E+02  0.50498075527E+03  0.52308566855E+03  0.00000000000E+00 0.  1.
         22    1    1    2    0    0  0.35119506246E+03 -0.32742008911E+03  0.62219823663E+03  0.78592145429E+03  0.00000000000E+00 0.  1.
<mgrwt>
<rscale>  0 0.10235732E+04</rscale>
<asrwt>0</asrwt>
<pdfrwt beam="1">  1        2 0.32319460E+00 0.10235732E+04</pdfrwt>
<pdfrwt beam="2">  1       -2 0.19181695E-01 0.10235732E+04</pdfrwt>
<totfact> 0.13524475E+02</totfact>
</mgrwt>
</event>
<event>
 6    1  0.1001928E-005  0.3230049E+04  0.7818608E-02  0.8180926E-01
         -2   -1    0    0    0  501 -0.00000000000E+00  0.00000000000E+00  0.96511698068E+03  0.96511698068E+03  0.00000000000E+00 0.  1.
          2   -1    0    0  501    0  0.00000000000E+00 -0.00000000000E+00 -0.27025784046E+04  0.27025784046E+04  0.00000000000E+00 0. -1.
         23    2    1    2    0    0 -0.89453141017E+03  0.73329276636E+03 -0.21472011593E+04  0.24405884724E+04  0.89969705084E+02 0.  0.
         11    1    3    3    0    0 -0.65278525386E+03  0.50038418039E+03 -0.15879788660E+04  0.17883483426E+04  0.00000000000E+00 0. -1.
        -11    1    3    3    0    0 -0.24174615631E+03  0.23290858596E+03 -0.55922229332E+03  0.65224012975E+03  0.00000000000E+00 0.  1.
         22    1    1    2    0    0  0.89453141017E+03 -0.73329276636E+03  0.40973973540E+03  0.12271069129E+04  0.00000000000E+00 0.  1.
<mgrwt>
<rscale>  0 0.32300491E+04</rscale>
<asrwt>0</asrwt>
<pdfrwt beam="1">  1        2 0.41578129E+00 0.32300491E+04</pdfrwt>
<pdfrwt beam="2">  1       -2 0.14847954E+00 0.32300491E+04</pdfrwt>
<totfact> 0.68392113E-01</totfact>
</mgrwt>
</event>
<event>
 6    1  0.1001928E-005  0.2605156E+04  0.7818608E-02  0.8366452E-01
          1   -1    0    0  501    0  0.00000000000E+00  0.00000000000E+00  0.15119107848E+04  0.15119107848E+04  0.00000000000E+00 0. -1.
         -1   -1    0    0    0  501 -0.00000000000E+00 -0.00000000000E+00 -0.11222281627E+04  0.11222281627E+04  0.00000000000E+00 0.  1.
         23    2    1    2    0    0  0.52227748926E+03 -0.40875526943E+03 -0.93663834431E+03  0.11512424738E+04  0.90626703132E+02 0.  0.
         13    1    3    3    0    0  0.10328569435E+03 -0.50181729598E+02 -0.20595533339E+03  0.23580445287E+03  0.00000000000E+00 0. -1.
        -13    1    3    3    0    0  0.41899179491E+03 -0.35857353983E+03 -0.73068301093E+03  0.91543802091E+03  0.00000000000E+00 0.  1.
         22    1    1    2    0    0 -0.52227748926E+03  0.40875526943E+03  0.13263209664E+04  0.14828964737E+04  0.00000000000E+00 0. -1.
<mgrwt>
<rscale>  0 0.26051556E+04</rscale>
<asrwt>0</asrwt>
<pdfrwt beam="1">  1        1 0.23260166E+00 0.26051556E+04</pdfrwt>
<pdfrwt beam="2">  1       -1 0.17265049E+00 0.26051556E+04</pdfrwt>
<totfact> 0.13295909E+00</totfact>
</mgrwt>
</event>
<event>
 6    1  0.1001928E-005  0.9126181E+03  0.7818608E-02  0.9409944E-01
          1   -1    0    0  501    0  0.00000000000E+00  0.00000000000E+00  0.97998213526E+03  0.97998213526E+03  0.00000000000E+00 0.  1.
         -1   -1    0    0    0  501 -0.00000000000E+00 -0.00000000000E+00 -0.21247118627E+03  0.21247118627E+03  0.00000000000E+00 0. -1.
         23    2    1    2    0    0 -0.44903232213E+03 -0.37757914428E+02  0.35386273854E+03  0.58076669553E+03  0.94949620844E+02 0.  0.
         11    1    3    3    0    0 -0.20209942815E+03  0.30069150563E+02  0.15077727409E+03  0.25393329647E+03  0.00000000000E+00 0.  1.
        -11    1    3    3    0    0 -0.24693289398E+03 -0.67827064991E+02  0.20308546445E+03  0.32683339907E+03  0.00000000000E+00 0. -1.
         22    1    1    2    0    0  0.44903232213E+03  0.37757914428E+02  0.41364821045E+03  0.61168662600E+03  0.00000000000E+00 0. -1.
<mgrwt>
<rscale>  0 0.91261814E+03</rscale>
<asrwt>0</asrwt>
<pdfrwt beam="1">  1        1 0.15076648E+00 0.91261814E+03</pdfrwt>
<pdfrwt beam="2">  1       -1 0.32687875E-01 0.91261814E+03</pdfrwt>
<totfact> 0.13834533E+02</totfact>
</mgrwt>
</event>
<event>
 6    1  0.1001928E-005  0.2459271E+04  0.7818608E-02  0.8417641E-01
         -2   -1    0    0    0  501 -0.00000000000E+00  0.00000000000E+00  0.52802323001E+03  0.52802323001E+03  0.00000000000E+00 0.  1.
          2   -1    0    0  501    0  0.00000000000E+00 -0.00000000000E+00 -0.28635167850E+04  0.28635167850E+04  0.00000000000E+00 0. -1.
         23    2    1    2    0    0  0.75887109968E+03 -0.82286871470E+03 -0.47309471071E+03  0.12186323495E+04  0.90818117307E+02 0.  0.
         11    1    3    3    0    0  0.70718118655E+03 -0.74186492108E+03 -0.45245352112E+03  0.11203494903E+04  0.00000000000E+00 0.  1.
        -11    1    3    3    0    0  0.51689913137E+02 -0.81003793614E+02 -0.20641189587E+02  0.98282859175E+02  0.00000000000E+00 0. -1.
         22    1    1    2    0    0 -0.75887109968E+03  0.82286871470E+03 -0.18623988443E+04  0.21729076655E+04  0.00000000000E+00 0. -1.
<mgrwt>
<rscale>  0 0.24592709E+04</rscale>
<asrwt>0</asrwt>
<pdfrwt beam="1">  1        2 0.44054104E+00 0.24592709E+04</pdfrwt>
<pdfrwt beam="2">  1       -2 0.81234344E-01 0.24592709E+04</pdfrwt>
<totfact> 0.25281481E+00</totfact>
</mgrwt>
</event>
<event>
 6    1  0.1001928E-005  0.1798941E+04  0.7818608E-02  0.8706863E-01
          2   -1    0    0  501    0  0.00000000000E+00  0.00000000000E+00  0.18653206269E+04  0.18653206269E+04  0.00000000000E+00 0. -1.
         -2   -1    0    0    0  501 -0.00000000000E+00 -0.00000000000E+00 -0.43373099876E+03  0.43373099876E+03  0.00000000000E+00 0.  1.
         23    2    1    2    0    0  0.17448027725E+02 -0.64737170145E+03 -0.75645963541E+02  0.65857801040E+03  0.92780011197E+02 0.  0.
         13    1    3    3    0    0  0.66721579774E+01 -0.43407585416E+03 -0.94119612791E+02  0.44421263643E+03  0.00000000000E+00 0. -1.
        -13    1    3    3    0    0  0.10775869748E+02 -0.21329584729E+03  0.18473649251E+02  0.21436537397E+03  0.00000000000E+00 0.  1.
         22    1    1    2    0    0 -0.17448027725E+02  0.64737170145E+03  0.15072355917E+04  0.16404736153E+04  0.00000000000E+00 0.  1.
<mgrwt>
<rscale>  0 0.17989412E+04</rscale>
<asrwt>0</asrwt>
<pdfrwt beam="1">  1        2 0.28697240E+00 0.17989412E+04</pdfrwt>
<pdfrwt beam="2">  1       -2 0.66727847E-01 0.17989412E+04</pdfrwt>
<totfact> 0.15459035E+01</totfact>
</mgrwt>
</event>
<event>
 6    1  0.1001928E-005  0.1317250E+04  0.7818608E-02  0.9015997E-01
         -4   -1    0    0    0  501 -0.00000000000E+00  0.00000000000E+00  0.53352663463E+03  0.53352663463E+03  0.00000000000E+00 0.  1.
          4   -1    0    0  501    0  0.00000000000E+00 -0.00000000000E+00 -0.81305513966E+03  0.81305513966E+03  0.00000000000E+00 0. -1.
         23    2    1    2    0    0  0.47244387953E+03  0.44640554613E+03 -0.22697313792E+03  0.69447503645E+03  0.91091382645E+02 0.  0.
         11    1    3    3    0    0  0.52927884229E+02  0.85000202570E+02 -0.57168026096E+02  0.11530211869E+03  0.00000000000E+00 0.  1.
        -11    1    3    3    0    0  0.41951599530E+03  0.36140534356E+03 -0.16980511182E+03  0.57917291776E+03  0.00000000000E+00 0. -1.
         22    1    1    2    0    0 -0.47244387953E+03 -0.44640554613E+03 -0.52555367107E+02  0.65210673784E+03  0.00000000000E+00 0. -1.
<mgrwt>
<rscale>  0 0.13172495E+04</rscale>
<asrwt>0</asrwt>
<pdfrwt beam="1">  1        4 0.12508541E+00 0.13172495E+04</pdfrwt>
<pdfrwt beam="2">  1       -4 0.82081021E-01 0.13172495E+04</pdfrwt>
<totfact> 0.12202732E+00</totfact>
</mgrwt>
</event>
<event>
 6    1  0.1001928E-005  0.2394221E+04  0.7818608E-02  0.8441670E-01
          2   -1    0    0  501    0  0.00000000000E+00  0.00000000000E+00  0.35952390401E+04  0.35952390401E+04  0.00000000000E+00 0. -1.
         -2   -1    0    0    0  501 -0.00000000000E+00 -0.00000000000E+00 -0.39860296783E+03  0.39860296783E+03  0.00000000000E+00 0.  1.
         23    2    1    2    0    0  0.38687485641E+03 -0.64378665179E+03  0.31519056972E+04  0.32414230993E+04  0.90447650067E+02 0.  0.
         13    1    3    3    0    0  0.21644600055E+03 -0.35773780266E+03  0.19445260526E+04  0.19889712858E+04  0.00000000000E+00 0.  1.
        -13    1    3    3    0    0  0.17042885586E+03 -0.28604884913E+03  0.12073796446E+04  0.12524518136E+04  0.00000000000E+00 0. -1.
         22    1    1    2    0    0 -0.38687485641E+03  0.64378665179E+03  0.44730375088E+02  0.75241890859E+03  0.00000000000E+00 0.  1.
<mgrwt>
<rscale>  0 0.23942205E+04</rscale>
<asrwt>0</asrwt>
<pdfrwt beam="1">  1        2 0.55311368E+00 0.23942205E+04</pdfrwt>
<pdfrwt beam="2">  1       -2 0.61323536E-01 0.23942205E+04</pdfrwt>
<totfact> 0.15517807E+00</totfact>
</mgrwt>
</event>
<event>
 6    1  0.1001928E-005  0.2828321E+04  0.7818608E-02  0.8294529E-01
         -2   -1    0    0    0  501 -0.00000000000E+00  0.00000000000E+00  0.14436059642E+04  0.14436059642E+04  0.00000000000E+00 0.  1.
          2   -1    0    0  501    0  0.00000000000E+00 -0.00000000000E+00 -0.13853152950E+04  0.13853152950E+04  0.00000000000E+00 0. -1.
         23    2    1    2    0    0 -0.52034354265E+03  0.73067275258E+02  0.13408452497E+04  0.14429044914E+04  0.89505075389E+02 0.  0.
         13    1    3    3    0    0 -0.34398805581E+03  0.24684215367E+02  0.96860617209E+03  0.10281707104E+04  0.00000000000E+00 0. -1.
        -13    1    3    3    0    0 -0.17635548684E+03  0.48383059891E+02  0.37223907758E+03  0.41473378100E+03  0.00000000000E+00 0.  1.
         22    1    1    2    0    0  0.52034354265E+03 -0.73067275258E+02 -0.12825545804E+04  0.13860167679E+04  0.00000000000E+00 0. -1.
<mgrwt>
<rscale>  0 0.28283206E+04</rscale>
<asrwt>0</asrwt>
<pdfrwt beam="1">  1        2 0.21312543E+00 0.28283206E+04</pdfrwt>
<pdfrwt beam="2">  1       -2 0.22209322E+00 0.28283206E+04</pdfrwt>
<totfact> 0.12279692E+00</totfact>
</mgrwt>
</event>
<event>
 6    1  0.1001928E-005  0.1644508E+04  0.7818608E-02  0.8793662E-01
          1   -1    0    0  501    0  0.00000000000E+00  0.00000000000E+00  0.13931649024E+04  0.13931649024E+04  0.00000000000E+00 0.  1.
         -1   -1    0    0    0  501 -0.00000000000E+00 -0.00000000000E+00 -0.48529920774E+03  0.48529920774E+03  0.00000000000E+00 0. -1.
         23    2    1    2    0    0  0.54170376388E+03 -0.60693161513E+03  0.33872271792E+03  0.88562339723E+03  0.88242670230E+02 0.  0.
         13    1    3    3    0    0  0.23462218356E+03 -0.22417149137E+03  0.97567150028E+02  0.33885066818E+03  0.00000000000E+00 0. -1.
        -13    1    3    3    0    0  0.30708158031E+03 -0.38276012376E+03  0.24115556789E+03  0.54677272905E+03  0.00000000000E+00 0.  1.
         22    1    1    2    0    0 -0.54170376388E+03  0.60693161513E+03  0.56914297676E+03  0.99284071292E+03  0.00000000000E+00 0.  1.
<mgrwt>
<rscale>  0 0.16445082E+04</rscale>
<asrwt>0</asrwt>
<pdfrwt beam="1">  1        1 0.21433306E+00 0.16445082E+04</pdfrwt>
<pdfrwt beam="2">  1       -1 0.74661417E-01 0.16445082E+04</pdfrwt>
<totfact> 0.13404545E+01</totfact>
</mgrwt>
</event>
<event>
 6    1  0.1001928E-005  0.2187273E+04  0.7818608E-02  0.8523744E-01
         -2   -1    0    0    0  501 -0.00000000000E+00  0.00000000000E+00  0.99761549343E+03  0.99761549343E+03  0.00000000000E+00 0.  1.
          2   -1    0    0  501    0  0.00000000000E+00 -0.00000000000E+00 -0.11988998456E+04  0.11988998456E+04  0.00000000000E+00 0. -1.
         23    2    1    2    0    0  0.84463475031E+03 -0.47358314659E+03  0.40545982310E+03  0.10537873082E+04  0.91548701116E+02 0.  0.
         11    1    3    3    0    0  0.17027666451E+03 -0.60259178389E+02  0.56242458319E+02  0.18917855368E+03  0.00000000000E+00 0.  1.
        -11    1    3    3    0    0  0.67435808580E+03 -0.41332396820E+03  0.34921736478E+03  0.86460875455E+03  0.00000000000E+00 0. -1.
         22    1    1    2    0    0 -0.84463475031E+03  0.47358314659E+03 -0.60674417529E+03  0.11427280308E+04  0.00000000000E+00 0. -1.
<mgrwt>
<rscale>  0 0.21872732E+04</rscale>
<asrwt>0</asrwt>
<pdfrwt beam="1">  1        2 0.18444613E+00 0.21872732E+04</pdfrwt>
<pdfrwt beam="2">  1       -2 0.15347931E+00 0.21872732E+04</pdfrwt>
<totfact> 0.48927544E+00</totfact>
</mgrwt>
</event>
<event>
 6    1  0.1001928E-005  0.1672242E+04  0.7818608E-02  0.8777356E-01
          1   -1    0    0  501    0  0.00000000000E+00  0.00000000000E+00  0.78622522801E+03  0.78622522801E+03  0.00000000000E+00 0. -1.
         -1   -1    0    0    0  501 -0.00000000000E+00 -0.00000000000E+00 -0.88918370365E+03  0.88918370365E+03  0.00000000000E+00 0.  1.
         23    2    1    2    0    0 -0.59957815118E+03 -0.56355970911E+03  0.82161379297E+02  0.83198562998E+03  0.91411657597E+02 0.  0.
         11    1    3    3    0    0 -0.30111687119E+03 -0.34238092038E+03  0.31177460602E+02  0.45702089537E+03  0.00000000000E+00 0. -1.
        -11    1    3    3    0    0 -0.29846127999E+03 -0.22117878873E+03  0.50983918695E+02  0.37496473461E+03  0.00000000000E+00 0.  1.
         22    1    1    2    0    0  0.59957815118E+03  0.56355970911E+03 -0.18511985494E+03  0.84342330167E+03  0.00000000000E+00 0. -1.
<mgrwt>
<rscale>  0 0.16722424E+04</rscale>
<asrwt>0</asrwt>
<pdfrwt beam="1">  1        1 0.12095773E+00 0.16722424E+04</pdfrwt>
<pdfrwt beam="2">  1       -1 0.13679749E+00 0.16722424E+04</pdfrwt>
<totfact> 0.96555315E+00</totfact>
</mgrwt>
</event>
<event>
 6    1  0.1001928E-005  0.2880874E+04  0.7818608E-02  0.8278591E-01
         -2   -1    0    0    0  501 -0.00000000000E+00  0.00000000000E+00  0.85589435025E+03  0.85589435025E+03  0.00000000000E+00 0.  1.
          2   -1    0    0  501    0  0.00000000000E+00 -0.00000000000E+00 -0.24241994528E+04  0.24241994528E+04  0.00000000000E+00 0. -1.
         23    2    1    2    0    0 -0.72902583983E+03 -0.38290227651E+03  0.55873039923E+03  0.99922272946E+03  0.90407829043E+02 0.  0.
         13    1    3    3    0    0 -0.45947340847E+03 -0.26156270934E+03  0.30993969748E+03  0.61285681858E+03  0.00000000000E+00 0. -1.
        -13    1    3    3    0    0 -0.26955243136E+03 -0.12133956717E+03  0.24879070175E+03  0.38636591088E+03  0.00000000000E+00 0.  1.
         22    1    1    2    0    0  0.72902583983E+03  0.38290227651E+03 -0.21270355017E+04  0.22808710735E+04  0.00000000000E+00 0. -1.
<mgrwt>
<rscale>  0 0.28808739E+04</rscale>
<asrwt>0</asrwt>
<pdfrwt beam="1">  1        2 0.37295376E+00 0.28808739E+04</pdfrwt>
<pdfrwt beam="2">  1       -2 0.13167606E+00 0.28808739E+04</pdfrwt>
<totfact> 0.13989776E+00</totfact>
</mgrwt>
</event>
<event>
 6    1  0.1001928E-005  0.1647374E+04  0.7818608E-02  0.8791961E-01
          1   -1    0    0  501    0  0.00000000000E+00  0.00000000000E+00  0.10182197504E+04  0.10182197504E+04  0.00000000000E+00 0. -1.
         -1   -1    0    0    0  501 -0.00000000000E+00 -0.00000000000E+00 -0.66632020334E+03  0.66632020334E+03  0.00000000000E+00 0.  1.
         23    2    1    2    0    0 -0.11661148605E+03 -0.66279093402E+03 -0.30471583780E+03  0.74430922433E+03  0.90853831603E+02 0.  0.
         11    1    3    3    0    0 -0.44184936157E+02 -0.77842080886E+02 -0.34885986043E+02  0.96066280047E+02  0.00000000000E+00 0. -1.
        -11    1    3    3    0    0 -0.72426549894E+02 -0.58494885313E+03 -0.26982985175E+03  0.64824294428E+03  0.00000000000E+00 0.  1.
         22    1    1    2    0    0  0.11661148605E+03  0.66279093402E+03  0.65661538484E+03  0.94023072940E+03  0.00000000000E+00 0. -1.
<mgrwt>
<rscale>  0 0.16473741E+04</rscale>
<asrwt>0</asrwt>
<pdfrwt beam="1">  1        1 0.15664919E+00 0.16473741E+04</pdfrwt>
<pdfrwt beam="2">  1       -1 0.10251080E+00 0.16473741E+04</pdfrwt>
<totfact> 0.12602024E+01</totfact>
</mgrwt>
</event>
<event>
 6    1  0.1001928E-005  0.1250723E+04  0.7818608E-02  0.9069582E-01
          3   -1    0    0  501    0  0.00000000000E+00  0.00000000000E+00  0.26541134610E+03  0.26541134610E+03  0.00000000000E+00 0.  1.
         -3   -1    0    0    0  501 -0.00000000000E+00 -0.00000000000E+00 -0.14734747249E+04  0.14734747249E+04  0.00000000000E+00 0. -1.
         23    2    1    2    0    0  0.85681541963E+02  0.44641933681E+03 -0.11976199317E+04  0.12841986877E+04  0.90781153857E+02 0.  0.
         13    1    3    3    0    0  0.32638760530E+02  0.15630319887E+03 -0.30740038296E+03  0.34639713352E+03  0.00000000000E+00 0. -1.
        -13    1    3    3    0    0  0.53042781432E+02  0.29011613794E+03 -0.89021954873E+03  0.93780155422E+03  0.00000000000E+00 0.  1.
         22    1    1    2    0    0 -0.85681541963E+02 -0.44641933681E+03 -0.10443447107E+02  0.45468738327E+03  0.00000000000E+00 0.  1.
<mgrwt>
<rscale>  0 0.12507228E+04</rscale>
<asrwt>0</asrwt>
<pdfrwt beam="1">  1        3 0.40832515E-01 0.12507228E+04</pdfrwt>
<pdfrwt beam="2">  1       -3 0.22668842E+00 0.12507228E+04</pdfrwt>
<totfact> 0.15466750E+00</totfact>
</mgrwt>
</event>
<event>
 6    1  0.1001928E-005  0.3757063E+04  0.7818608E-02  0.8055432E-01
         -2   -1    0    0    0  501 -0.00000000000E+00  0.00000000000E+00  0.65112466024E+03  0.65112466024E+03  0.00000000000E+00 0.  1.
          2   -1    0    0  501    0  0.00000000000E+00 -0.00000000000E+00 -0.54196709207E+04  0.54196709207E+04  0.00000000000E+00 0. -1.
         23    2    1    2    0    0 -0.17551347929E+04  0.30282959726E+03 -0.33453582633E+04  0.37909561170E+04  0.87877555421E+02 0.  0.
         11    1    3    3    0    0 -0.57247110890E+03  0.14063026336E+03 -0.11115604919E+04  0.12581998126E+04  0.00000000000E+00 0. -1.
        -11    1    3    3    0    0 -0.11826636840E+04  0.16219933390E+03 -0.22337977714E+04  0.25327563043E+04  0.00000000000E+00 0.  1.
         22    1    1    2    0    0  0.17551347929E+04 -0.30282959726E+03 -0.14231879972E+04  0.22798394640E+04  0.00000000000E+00 0.  1.
<mgrwt>
<rscale>  0 0.37570634E+04</rscale>
<asrwt>0</asrwt>
<pdfrwt beam="1">  1        2 0.83379554E+00 0.37570634E+04</pdfrwt>
<pdfrwt beam="2">  1       -2 0.10017302E+00 0.37570634E+04</pdfrwt>
<totfact> 0.54287240E-03</totfact>
</mgrwt>
</event>
<event>
 6    1  0.1001928E-005  0.1824121E+04  0.7818608E-02  0.8693577E-01
          2   -1    0    0  501    0  0.00000000000E+00  0.00000000000E+00  0.16770429134E+04  0.16770429134E+04  0.00000000000E+00 0. -1.
         -2   -1    0    0    0  501 -0.00000000000E+00 -0.00000000000E+00 -0.49602431887E+03  0.49602431887E+03  0.00000000000E+00 0.  1.
         23    2    1    2    0    0 -0.56771712954E+03  0.16502999556E+03  0.14160643113E+04  0.15368407572E+04  0.84283690026E+02 0.  0.
         13    1    3    3    0    0 -0.29250291797E+03  0.99653104772E+02  0.63660829830E+03  0.70764314720E+03  0.00000000000E+00 0.  1.
        -13    1    3    3    0    0 -0.27521421156E+03  0.65376890789E+02  0.77945601304E+03  0.82919760996E+03  0.00000000000E+00 0. -1.
         22    1    1    2    0    0  0.56771712954E+03 -0.16502999556E+03 -0.23504571684E+03  0.63622647509E+03  0.00000000000E+00 0.  1.
<mgrwt>
<rscale>  0 0.18241207E+04</rscale>
<asrwt>0</asrwt>
<pdfrwt beam="1">  1        2 0.25800660E+00 0.18241207E+04</pdfrwt>
<pdfrwt beam="2">  1       -2 0.76311435E-01 0.18241207E+04</pdfrwt>
<totfact> 0.14620517E+01</totfact>
</mgrwt>
</event>
<event>
 6    1  0.1001928E-005  0.1946464E+04  0.7818608E-02  0.8632068E-01
         -2   -1    0    0    0  501 -0.00000000000E+00  0.00000000000E+00  0.91326654424E+03  0.91326654424E+03  0.00000000000E+00 0. -1.
          2   -1    0    0  501    0  0.00000000000E+00 -0.00000000000E+00 -0.10371351877E+04  0.10371351877E+04  0.00000000000E+00 0.  1.
         23    2    1    2    0    0  0.85596261325E+03  0.11933174532E+03  0.38147305449E+03  0.94926123611E+03  0.93076003182E+02 0.  0.
         13    1    3    3    0    0  0.30868433979E+03  0.32178249092E+01  0.15839378674E+03  0.34696536961E+03  0.00000000000E+00 0. -1.
        -13    1    3    3    0    0  0.54727827346E+03  0.11611392041E+03  0.22307926775E+03  0.60229586651E+03  0.00000000000E+00 0.  1.
         22    1    1    2    0    0 -0.85596261325E+03 -0.11933174532E+03 -0.50534169796E+03  0.10011404958E+04  0.00000000000E+00 0.  1.
<mgrwt>
<rscale>  0 0.19464644E+04</rscale>
<asrwt>0</asrwt>
<pdfrwt beam="1">  1        2 0.15955926E+00 0.19464644E+04</pdfrwt>
<pdfrwt beam="2">  1       -2 0.14050254E+00 0.19464644E+04</pdfrwt>
<totfact> 0.79185468E+00</totfact>
</mgrwt>
</event>
<event>
 6    1  0.1001928E-005  0.3846014E+04  0.7818608E-02  0.8036352E-01
         -2   -1    0    0    0  501 -0.00000000000E+00  0.00000000000E+00  0.12323962746E+04  0.12323962746E+04  0.00000000000E+00 0.  1.
          2   -1    0    0  501    0  0.00000000000E+00 -0.00000000000E+00 -0.30006228498E+04  0.30006228498E+04  0.00000000000E+00 0. -1.
         23    2    1    2    0    0  0.17754929501E+04 -0.31211229359E+03 -0.16180491951E+04  0.24240573932E+04  0.90453015384E+02 0.  0.
         11    1    3    3    0    0  0.15629475372E+04 -0.26518058507E+03 -0.14588795995E+04  0.21544037302E+04  0.00000000000E+00 0.  1.
        -11    1    3    3    0    0  0.21254541293E+03 -0.46931708518E+02 -0.15916959562E+03  0.26965366304E+03  0.00000000000E+00 0. -1.
         22    1    1    2    0    0 -0.17754929501E+04  0.31211229359E+03 -0.15017738000E+03  0.18089617312E+04  0.00000000000E+00 0.  1.
<mgrwt>
<rscale>  0 0.38460143E+04</rscale>
<asrwt>0</asrwt>
<pdfrwt beam="1">  1        2 0.46163428E+00 0.38460143E+04</pdfrwt>
<pdfrwt beam="2">  1       -2 0.18959943E+00 0.38460143E+04</pdfrwt>
<totfact> 0.21658729E-01</totfact>
</mgrwt>
</event>
<event>
 6    1  0.1001928E-005  0.3436839E+04  0.7818608E-02  0.8128924E-01
          2   -1    0    0  501    0  0.00000000000E+00  0.00000000000E+00  0.25384749435E+04  0.25384749435E+04  0.00000000000E+00 0. -1.
         -2   -1    0    0    0  501 -0.00000000000E+00 -0.00000000000E+00 -0.11632833898E+04  0.11632833898E+04  0.00000000000E+00 0.  1.
         23    2    1    2    0    0 -0.11533351372E+04 -0.46701531938E+03  0.19627001596E+04  0.23257308593E+04  0.92449263591E+02 0.  0.
         11    1    3    3    0    0 -0.32347881091E+03 -0.86825235201E+02  0.52815198463E+03  0.62539721892E+03  0.00000000000E+00 0. -1.
        -11    1    3    3    0    0 -0.82985632632E+03 -0.38019008417E+03  0.14345481749E+04  0.17003336404E+04  0.00000000000E+00 0.  1.
         22    1    1    2    0    0  0.11533351372E+04  0.46701531938E+03 -0.58750860578E+03  0.13760274740E+04  0.00000000000E+00 0.  1.
<mgrwt>
<rscale>  0 0.34368391E+04</rscale>
<asrwt>0</asrwt>
<pdfrwt beam="1">  1        2 0.39053461E+00 0.34368391E+04</pdfrwt>
<pdfrwt beam="2">  1       -2 0.17896668E+00 0.34368391E+04</pdfrwt>
<totfact> 0.50332787E-01</totfact>
</mgrwt>
</event>
<event>
 6    1  0.1001928E-005  0.7302039E+03  0.7818608E-02  0.9666930E-01
         -1   -1    0    0    0  501 -0.00000000000E+00  0.00000000000E+00  0.73983979602E+02  0.73983979602E+02  0.00000000000E+00 0.  1.
          1   -1    0    0  501    0  0.00000000000E+00 -0.00000000000E+00 -0.18017336255E+04  0.18017336255E+04  0.00000000000E+00 0. -1.
         23    2    1    2    0    0  0.11900866730E+03  0.13234519135E+03 -0.16794024080E+04  0.16912839640E+04  0.91491455606E+02 0.  0.
         11    1    3    3    0    0  0.68141323323E+02  0.84517526966E+02 -0.60858252431E+03  0.61819021442E+03  0.00000000000E+00 0. -1.
        -11    1    3    3    0    0  0.50867343979E+02  0.47827664379E+02 -0.10708198837E+04  0.10730937496E+04  0.00000000000E+00 0.  1.
         22    1    1    2    0    0 -0.11900866730E+03 -0.13234519135E+03 -0.48347237978E+02  0.18443364114E+03  0.00000000000E+00 0.  1.
<mgrwt>
<rscale>  0 0.73020387E+03</rscale>
<asrwt>0</asrwt>
<pdfrwt beam="1">  1        1 0.27718976E+00 0.73020387E+03</pdfrwt>
<pdfrwt beam="2">  1       -1 0.11382152E-01 0.73020387E+03</pdfrwt>
<totfact> 0.21411298E+02</totfact>
</mgrwt>
</event>
<event>
 6    1  0.1001928E-005  0.2787683E+04  0.7818608E-02  0.8307103E-01
          1   -1    0    0  501    0  0.00000000000E+00  0.00000000000E+00  0.11852246967E+04  0.11852246967E+04  0.00000000000E+00 0. -1.
         -1   -1    0    0    0  501 -0.00000000000E+00 -0.00000000000E+00 -0.16391773517E+04  0.16391773517E+04  0.00000000000E+00 0.  1.
         23    2    1    2    0    0 -0.12730496629E+04  0.40659657657E+02 -0.79599856625E+03  0.15055752754E+04  0.10408909847E+03 0.  0.
         11    1    3    3    0    0 -0.62477205682E+03  0.37559600450E+02 -0.44874233711E+03  0.77014318908E+03  0.00000000000E+00 0.  1.
        -11    1    3    3    0    0 -0.64827760606E+03  0.31000572077E+01 -0.34725622914E+03  0.73543208629E+03  0.00000000000E+00 0. -1.
         22    1    1    2    0    0  0.12730496629E+04 -0.40659657657E+02  0.34204591121E+03  0.13188267730E+04  0.00000000000E+00 0. -1.
<mgrwt>
<rscale>  0 0.27876825E+04</rscale>
<asrwt>0</asrwt>
<pdfrwt beam="1">  1        1 0.18234226E+00 0.27876825E+04</pdfrwt>
<pdfrwt beam="2">  1       -1 0.25218113E+00 0.27876825E+04</pdfrwt>
<totfact> 0.64056677E-01</totfact>
</mgrwt>
</event>
<event>
 6    1  0.1001928E-005  0.2537609E+04  0.7818608E-02  0.8389708E-01
         -1   -1    0    0    0  501 -0.00000000000E+00  0.00000000000E+00  0.54631677003E+03  0.54631677003E+03  0.00000000000E+00 0.  1.
          1   -1    0    0  501    0  0.00000000000E+00 -0.00000000000E+00 -0.29467613282E+04  0.29467613282E+04  0.00000000000E+00 0. -1.
         23    2    1    2    0    0 -0.91567396346E+03 -0.63607294354E+03 -0.37298923302E+03  0.11792884163E+04  0.92480289399E+02 0.  0.
         11    1    3    3    0    0 -0.51164816225E+03 -0.34854395088E+03 -0.15888232102E+03  0.63914812020E+03  0.00000000000E+00 0.  1.
        -11    1    3    3    0    0 -0.40402580121E+03 -0.28752899267E+03 -0.21410691199E+03  0.54014029606E+03  0.00000000000E+00 0. -1.
         22    1    1    2    0    0  0.91567396346E+03  0.63607294354E+03 -0.20274553252E+04  0.23137896820E+04  0.00000000000E+00 0. -1.
<mgrwt>
<rscale>  0 0.25376092E+04</rscale>
<asrwt>0</asrwt>
<pdfrwt beam="1">  1        1 0.45334790E+00 0.25376092E+04</pdfrwt>
<pdfrwt beam="2">  1       -1 0.84048733E-01 0.25376092E+04</pdfrwt>
<totfact> 0.81175138E-01</totfact>
</mgrwt>
</event>
<event>
 6    1  0.1001928E-005  0.2300711E+04  0.7818608E-02  0.8477641E-01
          2   -1    0    0  501    0  0.00000000000E+00  0.00000000000E+00  0.18905387485E+04  0.18905387485E+04  0.00000000000E+00 0. -1.
         -2   -1    0    0    0  501 -0.00000000000E+00 -0.00000000000E+00 -0.69996877431E+03  0.69996877431E+03  0.00000000000E+00 0.  1.
         23    2    1    2    0    0  0.36198361531E+02 -0.83195600224E+03  0.14870222951E+04  0.17065702572E+04  0.87667699759E+02 0.  0.
         13    1    3    3    0    0 -0.12517260864E+02 -0.43632742943E+03  0.83911735752E+03  0.94586269996E+03  0.00000000000E+00 0. -1.
        -13    1    3    3    0    0  0.48715622395E+02 -0.39562857281E+03  0.64790493760E+03  0.76070755725E+03  0.00000000000E+00 0.  1.
         22    1    1    2    0    0 -0.36198361531E+02  0.83195600224E+03 -0.29645232088E+03  0.88393726564E+03  0.00000000000E+00 0.  1.
<mgrwt>
<rscale>  0 0.23007113E+04</rscale>
<asrwt>0</asrwt>
<pdfrwt beam="1">  1        2 0.29085211E+00 0.23007113E+04</pdfrwt>
<pdfrwt beam="2">  1       -2 0.10768750E+00 0.23007113E+04</pdfrwt>
<totfact> 0.48193514E+00</totfact>
</mgrwt>
</event>
<event>
 6    1  0.1001928E-005  0.1181252E+04  0.7818608E-02  0.9129426E-01
         -2   -1    0    0    0  501 -0.00000000000E+00  0.00000000000E+00  0.12741024256E+03  0.12741024256E+03  0.00000000000E+00 0.  1.
          2   -1    0    0  501    0  0.00000000000E+00 -0.00000000000E+00 -0.27379216457E+04  0.27379216457E+04  0.00000000000E+00 0. -1.
         23    2    1    2    0    0  0.80916229829E+02 -0.22638317999E+03 -0.26123990329E+04  0.26249148681E+04  0.88048721587E+02 0.  0.
         13    1    3    3    0    0  0.90653117227E+02 -0.16142581380E+03 -0.16703797772E+04  0.16806084854E+04  0.00000000000E+00 0. -1.
        -13    1    3    3    0    0 -0.97368873984E+01 -0.64957366187E+02 -0.94201925573E+03  0.94430638278E+03  0.00000000000E+00 0.  1.
         22    1    1    2    0    0 -0.80916229829E+02  0.22638317999E+03  0.18876297421E+01  0.24041702015E+03  0.00000000000E+00 0.  1.
<mgrwt>
<rscale>  0 0.11812523E+04</rscale>
<asrwt>0</asrwt>
<pdfrwt beam="1">  1        2 0.42121872E+00 0.11812523E+04</pdfrwt>
<pdfrwt beam="2">  1       -2 0.19601576E-01 0.11812523E+04</pdfrwt>
<totfact> 0.55717418E+01</totfact>
</mgrwt>
</event>
<event>
 6    1  0.1001928E-005  0.1527995E+04  0.7818608E-02  0.8866047E-01
         -2   -1    0    0    0  501 -0.00000000000E+00  0.00000000000E+00  0.83094675024E+03  0.83094675024E+03  0.00000000000E+00 0.  1.
          2   -1    0    0  501    0  0.00000000000E+00 -0.00000000000E+00 -0.70244199864E+03  0.70244199864E+03  0.00000000000E+00 0. -1.
         23    2    1    2    0    0  0.32841268717E+03 -0.45587392032E+03  0.57970047197E+03  0.81279628264E+03  0.94388746929E+02 0.  0.
         11    1    3    3    0    0  0.75704510751E+02 -0.17936553657E+03  0.21364186475E+03  0.28904327536E+03  0.00000000000E+00 0. -1.
        -11    1    3    3    0    0  0.25270817642E+03 -0.27650838374E+03  0.36605860722E+03  0.52375300727E+03  0.00000000000E+00 0.  1.
         22    1    1    2    0    0 -0.32841268717E+03  0.45587392032E+03 -0.45119572037E+03  0.72059246624E+03  0.00000000000E+00 0. -1.
<mgrwt>
<rscale>  0 0.15279946E+04</rscale>
<asrwt>0</asrwt>
<pdfrwt beam="1">  1        2 0.10806800E+00 0.15279946E+04</pdfrwt>
<pdfrwt beam="2">  1       -2 0.12783796E+00 0.15279946E+04</pdfrwt>
<totfact> 0.17817084E+01</totfact>
</mgrwt>
</event>
<event>
 6    1  0.1001928E-005  0.6114450E+04  0.7818608E-02  0.7676371E-01
          2   -1    0    0  501    0  0.00000000000E+00  0.00000000000E+00  0.41791394185E+04  0.41791394185E+04  0.00000000000E+00 0. -1.
         -2   -1    0    0    0  501 -0.00000000000E+00 -0.00000000000E+00 -0.22364949614E+04  0.22364949614E+04  0.00000000000E+00 0.  1.
         23    2    1    2    0    0  0.53611502035E+03  0.97344124781E+03  0.39591381358E+04  0.41131891724E+04  0.92429494074E+02 0.  0.
         13    1    3    3    0    0  0.24281334181E+03  0.44444713906E+03  0.16357894086E+04  0.17123955641E+04  0.00000000000E+00 0. -1.
        -13    1    3    3    0    0  0.29330167854E+03  0.52899410875E+03  0.23233487272E+04  0.24007936083E+04  0.00000000000E+00 0.  1.
         22    1    1    2    0    0 -0.53611502035E+03 -0.97344124781E+03 -0.20164936787E+04  0.23024452076E+04  0.00000000000E+00 0.  1.
<mgrwt>
<rscale>  0 0.61144499E+04</rscale>
<asrwt>0</asrwt>
<pdfrwt beam="1">  1        2 0.64294452E+00 0.61144499E+04</pdfrwt>
<pdfrwt beam="2">  1       -2 0.34407615E+00 0.61144499E+04</pdfrwt>
<totfact> 0.27218375E-03</totfact>
</mgrwt>
</event>
<event>
 6    1  0.1001928E-005  0.3372351E+04  0.7818608E-02  0.8144726E-01
          2   -1    0    0  501    0  0.00000000000E+00  0.00000000000E+00  0.19485837506E+04  0.19485837506E+04  0.00000000000E+00 0. -1.
         -2   -1    0    0    0  501 -0.00000000000E+00 -0.00000000000E+00 -0.14591049559E+04  0.14591049559E+04  0.00000000000E+00 0.  1.
         23    2    1    2    0    0  0.10631536401E+04 -0.35489038723E+03  0.15161760581E+04  0.18877051145E+04  0.91640115421E+02 0.  0.
         11    1    3    3    0    0  0.18259963457E+03 -0.91442855164E+02  0.24266290865E+03  0.31715880807E+03  0.00000000000E+00 0. -1.
        -11    1    3    3    0    0  0.88055400554E+03 -0.26344753207E+03  0.12735131494E+04  0.15705463064E+04  0.00000000000E+00 0.  1.
         22    1    1    2    0    0 -0.10631536401E+04  0.35489038723E+03 -0.10266972634E+04  0.15199835920E+04  0.00000000000E+00 0.  1.
<mgrwt>
<rscale>  0 0.33723512E+04</rscale>
<asrwt>0</asrwt>
<pdfrwt beam="1">  1        2 0.29978212E+00 0.33723512E+04</pdfrwt>
<pdfrwt beam="2">  1       -2 0.22447769E+00 0.33723512E+04</pdfrwt>
<totfact> 0.54870895E-01</totfact>
</mgrwt>
</event>
<event>
 6    1  0.1001928E-005  0.2321149E+04  0.7818608E-02  0.8469629E-01
          1   -1    0    0  501    0  0.00000000000E+00  0.00000000000E+00  0.26475013272E+04  0.26475013272E+04  0.00000000000E+00 0. -1.
         -1   -1    0    0    0  501 -0.00000000000E+00 -0.00000000000E+00 -0.50875619301E+03  0.50875619301E+03  0.00000000000E+00 0.  1.
         23    2    1    2    0    0 -0.30741088139E+03 -0.10618357948E+04  0.59843040412E+03  0.12603234041E+04  0.91101202677E+02 0.  0.
         11    1    3    3    0    0 -0.13599819285E+03 -0.56068817061E+03  0.35493576370E+03  0.67738181956E+03  0.00000000000E+00 0.  1.
        -11    1    3    3    0    0 -0.17141268854E+03 -0.50114762418E+03  0.24349464042E+03  0.58294158449E+03  0.00000000000E+00 0. -1.
         22    1    1    2    0    0  0.30741088139E+03  0.10618357948E+04  0.15403147300E+04  0.18959341161E+04  0.00000000000E+00 0.  1.
<mgrwt>
<rscale>  0 0.23211486E+04</rscale>
<asrwt>0</asrwt>
<pdfrwt beam="1">  1        1 0.40730789E+00 0.23211486E+04</pdfrwt>
<pdfrwt beam="2">  1       -1 0.78270185E-01 0.23211486E+04</pdfrwt>
<totfact> 0.15755257E+00</totfact>
</mgrwt>
</event>
<event>
 6    1  0.1001928E-005  0.2384415E+04  0.7818608E-02  0.8445362E-01
          2   -1    0    0  501    0  0.00000000000E+00  0.00000000000E+00  0.16412976298E+04  0.16412976298E+04  0.00000000000E+00 0. -1.
         -2   -1    0    0    0  501 -0.00000000000E+00 -0.00000000000E+00 -0.86599661592E+03  0.86599661592E+03  0.00000000000E+00 0.  1.
         23    2    1    2    0    0 -0.76957587811E+03  0.82568394485E+03  0.78627293766E+03  0.13785243879E+04  0.90018589585E+02 0.  0.
         11    1    3    3    0    0 -0.57699790136E+03  0.57174051213E+03  0.59408791709E+03  0.10063569171E+04  0.00000000000E+00 0. -1.
        -11    1    3    3    0    0 -0.19257797675E+03  0.25394343272E+03  0.19218502057E+03  0.37216747075E+03  0.00000000000E+00 0.  1.
         22    1    1    2    0    0  0.76957587811E+03 -0.82568394485E+03 -0.10971923771E+02  0.11287698579E+04  0.00000000000E+00 0.  1.
<mgrwt>
<rscale>  0 0.23844146E+04</rscale>
<asrwt>0</asrwt>
<pdfrwt beam="1">  1        2 0.25250733E+00 0.23844146E+04</pdfrwt>
<pdfrwt beam="2">  1       -2 0.13323025E+00 0.23844146E+04</pdfrwt>
<totfact> 0.38855071E+00</totfact>
</mgrwt>
</event>
<event>
 6    1  0.1001928E-005  0.1230698E+04  0.7818608E-02  0.9086403E-01
         -2   -1    0    0    0  501 -0.00000000000E+00  0.00000000000E+00  0.11859267822E+03  0.11859267822E+03  0.00000000000E+00 0.  1.
          2   -1    0    0  501    0  0.00000000000E+00 -0.00000000000E+00 -0.31929004249E+04  0.31929004249E+04  0.00000000000E+00 0. -1.
         23    2    1    2    0    0 -0.27822051085E+03 -0.39037321214E+03 -0.51871256945E+03  0.71132683779E+03  0.84411154764E+02 0.  0.
         13    1    3    3    0    0 -0.78410349861E+02 -0.17367453980E+03 -0.17734126669E+03  0.26030934215E+03  0.00000000000E+00 0.  1.
        -13    1    3    3    0    0 -0.19981016099E+03 -0.21669867233E+03 -0.34137130276E+03  0.45101749564E+03  0.00000000000E+00 0. -1.
         22    1    1    2    0    0  0.27822051085E+03  0.39037321214E+03 -0.25555951773E+04  0.26001662654E+04  0.00000000000E+00 0. -1.
<mgrwt>
<rscale>  0 0.12306984E+04</rscale>
<asrwt>0</asrwt>
<pdfrwt beam="1">  1        2 0.49121535E+00 0.12306984E+04</pdfrwt>
<pdfrwt beam="2">  1       -2 0.18245031E-01 0.12306984E+04</pdfrwt>
<totfact> 0.32955217E+01</totfact>
</mgrwt>
</event>
<event>
 6    1  0.1001928E-005  0.2721243E+04  0.7818608E-02  0.8328145E-01
          1   -1    0    0  501    0  0.00000000000E+00  0.00000000000E+00  0.22561248675E+04  0.22561248675E+04  0.00000000000E+00 0. -1.
         -1   -1    0    0    0  501 -0.00000000000E+00 -0.00000000000E+00 -0.82056224756E+03  0.82056224756E+03  0.00000000000E+00 0.  1.
         23    2    1    2    0    0 -0.76166738243E+03 -0.10785273055E+04  0.35419661401E+03  0.13700205428E+04  0.90236888958E+02 0.  0.
         13    1    3    3    0    0 -0.75831805093E+03 -0.10631416093E+04  0.34149670522E+03  0.13497912237E+04  0.00000000000E+00 0.  1.
        -13    1    3    3    0    0 -0.33493314932E+01 -0.15385696150E+02  0.12699908795E+02  0.20229319091E+02  0.00000000000E+00 0. -1.
         22    1    1    2    0    0  0.76166738243E+03  0.10785273055E+04  0.10813660059E+04  0.17066665723E+04  0.00000000000E+00 0. -1.
<mgrwt>
<rscale>  0 0.27212430E+04</rscale>
<asrwt>0</asrwt>
<pdfrwt beam="1">  1        1 0.34709613E+00 0.27212430E+04</pdfrwt>
<pdfrwt beam="2">  1       -1 0.12624035E+00 0.27212430E+04</pdfrwt>
<totfact> 0.94883833E-01</totfact>
</mgrwt>
</event>
<event>
 6    1  0.1001928E-005  0.3885472E+03  0.7818608E-02  0.1047819E+00
          4   -1    0    0  501    0  0.00000000000E+00  0.00000000000E+00  0.29790771312E+03  0.29790771312E+03  0.00000000000E+00 0. -1.
         -4   -1    0    0    0  501 -0.00000000000E+00 -0.00000000000E+00 -0.12669098799E+03  0.12669098799E+03  0.00000000000E+00 0.  1.
         23    2    1    2    0    0  0.89543402550E+02 -0.94252427007E+01 -0.84356835129E+02  0.15362877501E+03  0.91536160829E+02 0.  0.
         11    1    3    3    0    0  0.80098284892E+02 -0.43276928094E+02 -0.47448834639E+02  0.10266459787E+03  0.00000000000E+00 0. -1.
        -11    1    3    3    0    0  0.94451176579E+01  0.33851685393E+02 -0.36908000490E+02  0.50964177142E+02  0.00000000000E+00 0.  1.
         22    1    1    2    0    0 -0.89543402550E+02  0.94252427007E+01  0.25557356026E+03  0.27096992609E+03  0.00000000000E+00 0. -1.
<mgrwt>
<rscale>  0 0.38854715E+03</rscale>
<asrwt>0</asrwt>
<pdfrwt beam="1">  1        4 0.45831956E-01 0.38854715E+03</pdfrwt>
<pdfrwt beam="2">  1       -4 0.19490921E-01 0.38854715E+03</pdfrwt>
<totfact> 0.21221538E+02</totfact>
</mgrwt>
</event>
<event>
 6    1  0.1001928E-005  0.2659698E+04  0.7818608E-02  0.8348201E-01
          1   -1    0    0  501    0  0.00000000000E+00  0.00000000000E+00  0.15528852019E+04  0.15528852019E+04  0.00000000000E+00 0. -1.
         -1   -1    0    0    0  501 -0.00000000000E+00 -0.00000000000E+00 -0.11388464438E+04  0.11388464438E+04  0.00000000000E+00 0.  1.
         23    2    1    2    0    0  0.30400161544E+03  0.82213360909E+03  0.12173173912E+04  0.15027921116E+04  0.90564044346E+02 0.  0.
         11    1    3    3    0    0  0.18878698303E+03  0.48630975966E+03  0.79762617536E+03  0.95307146790E+03  0.00000000000E+00 0. -1.
        -11    1    3    3    0    0  0.11521463242E+03  0.33582384943E+03  0.41969121588E+03  0.54972064365E+03  0.00000000000E+00 0.  1.
         22    1    1    2    0    0 -0.30400161544E+03 -0.82213360909E+03 -0.80327863315E+03  0.11889395342E+04  0.00000000000E+00 0.  1.
<mgrwt>
<rscale>  0 0.26596976E+04</rscale>
<asrwt>0</asrwt>
<pdfrwt beam="1">  1        1 0.23890542E+00 0.26596976E+04</pdfrwt>
<pdfrwt beam="2">  1       -1 0.17520714E+00 0.26596976E+04</pdfrwt>
<totfact> 0.11876159E+00</totfact>
</mgrwt>
</event>
<event>
 6    1  0.1001928E-005  0.3305205E+04  0.7818608E-02  0.8161572E-01
          2   -1    0    0  501    0  0.00000000000E+00  0.00000000000E+00  0.31013717088E+04  0.31013717088E+04  0.00000000000E+00 0. -1.
         -2   -1    0    0    0  501 -0.00000000000E+00 -0.00000000000E+00 -0.88060898774E+03  0.88060898774E+03  0.00000000000E+00 0.  1.
         23    2    1    2    0    0 -0.50069652261E+03 -0.55711308117E+03  0.28841327688E+04  0.29814149500E+04  0.97679490748E+02 0.  0.
         13    1    3    3    0    0 -0.36622523826E+02 -0.17729848805E+02  0.22927231389E+03  0.23285478459E+03  0.00000000000E+00 0.  1.
        -13    1    3    3    0    0 -0.46407399879E+03 -0.53938323236E+03  0.26548604549E+04  0.27485601654E+04  0.00000000000E+00 0. -1.
         22    1    1    2    0    0  0.50069652261E+03  0.55711308117E+03 -0.66337004773E+03  0.10005657466E+04  0.00000000000E+00 0.  1.
<mgrwt>
<rscale>  0 0.33052055E+04</rscale>
<asrwt>0</asrwt>
<pdfrwt beam="1">  1        2 0.47713410E+00 0.33052055E+04</pdfrwt>
<pdfrwt beam="2">  1       -2 0.13547831E+00 0.33052055E+04</pdfrwt>
<totfact> 0.48976136E-01</totfact>
</mgrwt>
</event>
<event>
 6    1  0.1001928E-005  0.1412318E+04  0.7818608E-02  0.8944950E-01
         -2   -1    0    0    0  501 -0.00000000000E+00  0.00000000000E+00  0.36848078659E+03  0.36848078659E+03  0.00000000000E+00 0.  1.
          2   -1    0    0  501    0  0.00000000000E+00 -0.00000000000E+00 -0.13532883503E+04  0.13532883503E+04  0.00000000000E+00 0. -1.
         23    2    1    2    0    0  0.49551919560E+03 -0.45175971782E+03 -0.75418348702E+03  0.10126756447E+04  0.84220623811E+02 0.  0.
         13    1    3    3    0    0  0.15903843177E+03 -0.17490811391E+03 -0.31683288081E+03  0.39530892407E+03  0.00000000000E+00 0. -1.
        -13    1    3    3    0    0  0.33648076383E+03 -0.27685160391E+03 -0.43735060621E+03  0.61736672065E+03  0.00000000000E+00 0.  1.
         22    1    1    2    0    0 -0.49551919560E+03  0.45175971782E+03 -0.23062407668E+03  0.70909349214E+03  0.00000000000E+00 0. -1.
<mgrwt>
<rscale>  0 0.14123183E+04</rscale>
<asrwt>0</asrwt>
<pdfrwt beam="1">  1        2 0.20819821E+00 0.14123183E+04</pdfrwt>
<pdfrwt beam="2">  1       -2 0.56689352E-01 0.14123183E+04</pdfrwt>
<totfact> 0.43687244E+01</totfact>
</mgrwt>
</event>
<event>
 6    1  0.1001928E-005  0.5022013E+03  0.7818608E-02  0.1013206E+00
         -2   -1    0    0    0  501 -0.00000000000E+00  0.00000000000E+00  0.39998238533E+02  0.39998238533E+02  0.00000000000E+00 0.  1.
          2   -1    0    0  501    0  0.00000000000E+00 -0.00000000000E+00 -0.15763577709E+04  0.15763577709E+04  0.00000000000E+00 0. -1.
         23    2    1    2    0    0  0.85051107171E+02  0.13319031328E+03 -0.13870732897E+04  0.13989629722E+04  0.90286965958E+02 0.  0.
         11    1    3    3    0    0 -0.12049176495E+02  0.19729628738E+02 -0.76722669058E+02  0.80129949780E+02  0.00000000000E+00 0.  1.
        -11    1    3    3    0    0  0.97100283667E+02  0.11346068454E+03 -0.13103506207E+04  0.13188330224E+04  0.00000000000E+00 0. -1.
         22    1    1    2    0    0 -0.85051107171E+02 -0.13319031328E+03 -0.14928624265E+03  0.21739303721E+03  0.00000000000E+00 0.  1.
<mgrwt>
<rscale>  0 0.50220129E+03</rscale>
<asrwt>0</asrwt>
<pdfrwt beam="1">  1        2 0.24251661E+00 0.50220129E+03</pdfrwt>
<pdfrwt beam="2">  1       -2 0.61535744E-02 0.50220129E+03</pdfrwt>
<totfact> 0.17530588E+03</totfact>
</mgrwt>
</event>
<event>
 6    1  0.1001928E-005  0.1544206E+04  0.7818608E-02  0.8855577E-01
         -2   -1    0    0    0  501 -0.00000000000E+00  0.00000000000E+00  0.57914042704E+03  0.57914042704E+03  0.00000000000E+00 0.  1.
          2   -1    0    0  501    0  0.00000000000E+00 -0.00000000000E+00 -0.10293587676E+04  0.10293587676E+04  0.00000000000E+00 0. -1.
         23    2    1    2    0    0 -0.27694623818E+03  0.35308815275E+03  0.42515616676E+03  0.62480666620E+03  0.90857809479E+02 0.  0.
         13    1    3    3    0    0 -0.26574599248E+02  0.89736635022E+02  0.10326437097E+03  0.13936428273E+03  0.00000000000E+00 0.  1.
        -13    1    3    3    0    0 -0.25037163893E+03  0.26335151773E+03  0.32189179579E+03  0.48544238347E+03  0.00000000000E+00 0. -1.
         22    1    1    2    0    0  0.27694623818E+03 -0.35308815275E+03 -0.87537450727E+03  0.98369252841E+03  0.00000000000E+00 0. -1.
<mgrwt>
<rscale>  0 0.15442063E+04</rscale>
<asrwt>0</asrwt>
<pdfrwt beam="1">  1        2 0.15836288E+00 0.15442063E+04</pdfrwt>
<pdfrwt beam="2">  1       -2 0.89098529E-01 0.15442063E+04</pdfrwt>
<totfact> 0.25132364E+01</totfact>
</mgrwt>
</event>
<event>
 6    1  0.1001928E-005  0.1798838E+04  0.7818608E-02  0.8706918E-01
         -2   -1    0    0    0  501 -0.00000000000E+00  0.00000000000E+00  0.85805503016E+03  0.85805503016E+03  0.00000000000E+00 0.  1.
          2   -1    0    0  501    0  0.00000000000E+00 -0.00000000000E+00 -0.94277687919E+03  0.94277687919E+03  0.00000000000E+00 0. -1.
         23    2    1    2    0    0  0.25050826590E+03 -0.36048425559E+03 -0.82564528622E+03  0.93962878023E+03  0.92243244545E+02 0.  0.
         11    1    3    3    0    0  0.16905662567E+03 -0.16461506182E+03 -0.45630322480E+03  0.51370311876E+03  0.00000000000E+00 0. -1.
        -11    1    3    3    0    0  0.81451640233E+02 -0.19586919376E+03 -0.36934206142E+03  0.42592566147E+03  0.00000000000E+00 0.  1.
         22    1    1    2    0    0 -0.25050826590E+03  0.36048425559E+03  0.74092343719E+03  0.86120312911E+03  0.00000000000E+00 0.  1.
<mgrwt>
<rscale>  0 0.17988379E+04</rscale>
<asrwt>0</asrwt>
<pdfrwt beam="1">  1        2 0.14504260E+00 0.17988379E+04</pdfrwt>
<pdfrwt beam="2">  1       -2 0.13200847E+00 0.17988379E+04</pdfrwt>
<totfact> 0.10825383E+01</totfact>
</mgrwt>
</event>
<event>
 6    1  0.1001928E-005  0.6443182E+03  0.7818608E-02  0.9817499E-01
          2   -1    0    0  501    0  0.00000000000E+00  0.00000000000E+00  0.12667730157E+04  0.12667730157E+04  0.00000000000E+00 0. -1.
         -2   -1    0    0    0  501 -0.00000000000E+00 -0.00000000000E+00 -0.81929823608E+02  0.81929823608E+02  0.00000000000E+00 0.  1.
         23    2    1    2    0    0  0.26822315166E+03  0.16553409047E+03  0.63482482102E+03  0.71477429231E+03  0.92490763708E+02 0.  0.
         13    1    3    3    0    0  0.14546579656E+03  0.50533715554E+02  0.37341120561E+03  0.40391816356E+03  0.00000000000E+00 0.  1.
        -13    1    3    3    0    0  0.12275735510E+03  0.11500037491E+03  0.26141361541E+03  0.31085612875E+03  0.00000000000E+00 0. -1.
         22    1    1    2    0    0 -0.26822315166E+03 -0.16553409047E+03  0.55001837112E+03  0.63392854704E+03  0.00000000000E+00 0.  1.
<mgrwt>
<rscale>  0 0.64431821E+03</rscale>
<asrwt>0</asrwt>
<pdfrwt beam="1">  1        2 0.19488814E+00 0.64431821E+03</pdfrwt>
<pdfrwt beam="2">  1       -2 0.12604589E-01 0.64431821E+03</pdfrwt>
<totfact> 0.82098099E+02</totfact>
</mgrwt>
</event>
<event>
 6    1  0.1001928E-005  0.2039466E+04  0.7818608E-02  0.8588388E-01
         -1   -1    0    0    0  501 -0.00000000000E+00  0.00000000000E+00  0.12429403228E+04  0.12429403228E+04  0.00000000000E+00 0.  1.
          1   -1    0    0  501    0  0.00000000000E+00 -0.00000000000E+00 -0.83660949066E+03  0.83660949066E+03  0.00000000000E+00 0. -1.
         23    2    1    2    0    0  0.93756296870E+02  0.88096843712E+03  0.71405766997E+03  0.11416844515E+04  0.93109614824E+02 0.  0.
         11    1    3    3    0    0  0.51289698396E+02  0.17409988893E+03  0.16994618428E+03  0.24864253465E+03  0.00000000000E+00 0.  1.
        -11    1    3    3    0    0  0.42466598474E+02  0.70686854818E+03  0.54411148570E+03  0.89304191686E+03  0.00000000000E+00 0. -1.
         22    1    1    2    0    0 -0.93756296870E+02 -0.88096843712E+03 -0.30772683785E+03  0.93786536194E+03  0.00000000000E+00 0. -1.
<mgrwt>
<rscale>  0 0.20394663E+04</rscale>
<asrwt>0</asrwt>
<pdfrwt beam="1">  1        1 0.12870915E+00 0.20394663E+04</pdfrwt>
<pdfrwt beam="2">  1       -1 0.19122159E+00 0.20394663E+04</pdfrwt>
<totfact> 0.32925699E+00</totfact>
</mgrwt>
</event>
<event>
 6    1  0.1001928E-005  0.1475227E+04  0.7818608E-02  0.8901096E-01
          2   -1    0    0  501    0  0.00000000000E+00  0.00000000000E+00  0.40971669746E+03  0.40971669746E+03  0.00000000000E+00 0. -1.
         -2   -1    0    0    0  501 -0.00000000000E+00 -0.00000000000E+00 -0.13279273654E+04  0.13279273654E+04  0.00000000000E+00 0.  1.
         23    2    1    2    0    0  0.68637562435E+03  0.16327584919E+03 -0.21882200505E+03  0.74420810496E+03  0.90510402496E+02 0.  0.
         11    1    3    3    0    0  0.28250788015E+02  0.61988367742E+01 -0.30160765416E+02  0.41787610261E+02  0.00000000000E+00 0. -1.
        -11    1    3    3    0    0  0.65812483634E+03  0.15707701242E+03 -0.18866123964E+03  0.70242049470E+03  0.00000000000E+00 0.  1.
         22    1    1    2    0    0 -0.68637562435E+03 -0.16327584919E+03 -0.69938866285E+03  0.99343595785E+03  0.00000000000E+00 0.  1.
<mgrwt>
<rscale>  0 0.14752275E+04</rscale>
<asrwt>0</asrwt>
<pdfrwt beam="1">  1        2 0.63033339E-01 0.14752275E+04</pdfrwt>
<pdfrwt beam="2">  1       -2 0.20429652E+00 0.14752275E+04</pdfrwt>
<totfact> 0.93300477E+00</totfact>
</mgrwt>
</event>
<event>
 6    1  0.1001928E-005  0.3581591E+04  0.7818608E-02  0.8094721E-01
          1   -1    0    0  501    0  0.00000000000E+00  0.00000000000E+00  0.18053747385E+04  0.18053747385E+04  0.00000000000E+00 0. -1.
         -1   -1    0    0    0  501 -0.00000000000E+00 -0.00000000000E+00 -0.17763344397E+04  0.17763344397E+04  0.00000000000E+00 0.  1.
         23    2    1    2    0    0  0.57938081009E+03 -0.10589254419E+04 -0.13067898417E+04  0.17813071735E+04  0.91380202629E+02 0.  0.
         13    1    3    3    0    0  0.20435413943E+03 -0.42787135599E+03 -0.56662500953E+03  0.73884938452E+03  0.00000000000E+00 0.  1.
        -13    1    3    3    0    0  0.37502667066E+03 -0.63105408592E+03 -0.74016483214E+03  0.10424577890E+04  0.00000000000E+00 0. -1.
         22    1    1    2    0    0 -0.57938081009E+03  0.10589254419E+04  0.13358301404E+04  0.18004020047E+04  0.00000000000E+00 0. -1.
<mgrwt>
<rscale>  0 0.35815914E+04</rscale>
<asrwt>0</asrwt>
<pdfrwt beam="1">  1        1 0.27774996E+00 0.35815914E+04</pdfrwt>
<pdfrwt beam="2">  1       -1 0.27328222E+00 0.35815914E+04</pdfrwt>
<totfact> 0.16104978E-01</totfact>
</mgrwt>
</event>
<event>
 6    1  0.1001928E-005  0.1088746E+04  0.7818608E-02  0.9216231E-01
         -2   -1    0    0    0  501 -0.00000000000E+00  0.00000000000E+00  0.18540744306E+03  0.18540744306E+03  0.00000000000E+00 0. -1.
          2   -1    0    0  501    0  0.00000000000E+00 -0.00000000000E+00 -0.15983285938E+04  0.15983285938E+04  0.00000000000E+00 0.  1.
         23    2    1    2    0    0  0.45033968668E+02 -0.49557882030E+03 -0.36534290892E+03  0.62397459664E+03  0.90787833415E+02 0.  0.
         11    1    3    3    0    0  0.70020314378E+02 -0.38832134948E+03 -0.30233939317E+03  0.49709699612E+03  0.00000000000E+00 0. -1.
        -11    1    3    3    0    0 -0.24986345710E+02 -0.10725747082E+03 -0.63003515753E+02  0.12687760052E+03  0.00000000000E+00 0.  1.
         22    1    1    2    0    0 -0.45033968668E+02  0.49557882030E+03 -0.10475782418E+04  0.11597614402E+04  0.00000000000E+00 0.  1.
<mgrwt>
<rscale>  0 0.10887461E+04</rscale>
<asrwt>0</asrwt>
<pdfrwt beam="1">  1        2 0.24589670E+00 0.10887461E+04</pdfrwt>
<pdfrwt beam="2">  1       -2 0.28524222E-01 0.10887461E+04</pdfrwt>
<totfact> 0.12500689E+02</totfact>
</mgrwt>
</event>
<event>
 6    1  0.1001928E-005  0.2501393E+04  0.7818608E-02  0.8402490E-01
          2   -1    0    0  501    0  0.00000000000E+00  0.00000000000E+00  0.13552374229E+04  0.13552374229E+04  0.00000000000E+00 0. -1.
         -2   -1    0    0    0  501 -0.00000000000E+00 -0.00000000000E+00 -0.11542193820E+04  0.11542193820E+04  0.00000000000E+00 0.  1.
         23    2    1    2    0    0 -0.12114747400E+04 -0.17256757843E+03  0.35179443436E+03  0.12764993298E+04  0.90777750473E+02 0.  0.
         13    1    3    3    0    0 -0.39114255602E+03 -0.48372385314E+02  0.15711643980E+03  0.42428523713E+03  0.00000000000E+00 0.  1.
        -13    1    3    3    0    0 -0.82033218401E+03 -0.12419519312E+03  0.19467799456E+03  0.85221409263E+03  0.00000000000E+00 0. -1.
         22    1    1    2    0    0  0.12114747400E+04  0.17256757843E+03 -0.15077639348E+03  0.12329574752E+04  0.00000000000E+00 0.  1.
<mgrwt>
<rscale>  0 0.25013927E+04</rscale>
<asrwt>0</asrwt>
<pdfrwt beam="1">  1        2 0.20849806E+00 0.25013927E+04</pdfrwt>
<pdfrwt beam="2">  1       -2 0.17757221E+00 0.25013927E+04</pdfrwt>
<totfact> 0.25813852E+00</totfact>
</mgrwt>
</event>
<event>
 6    1  0.1001928E-005  0.2270834E+04  0.7818608E-02  0.8489510E-01
          1   -1    0    0  501    0  0.00000000000E+00  0.00000000000E+00  0.81915613426E+03  0.81915613426E+03  0.00000000000E+00 0. -1.
         -1   -1    0    0    0  501 -0.00000000000E+00 -0.00000000000E+00 -0.15737805664E+04  0.15737805664E+04  0.00000000000E+00 0.  1.
         23    2    1    2    0    0 -0.94041837228E+03  0.59144652148E+03 -0.61496420847E+03  0.12732489403E+04  0.93734644308E+02 0.  0.
         13    1    3    3    0    0 -0.58623228491E+03  0.35246346603E+03 -0.42773295607E+03  0.80675539568E+03  0.00000000000E+00 0. -1.
        -13    1    3    3    0    0 -0.35418608738E+03  0.23898305545E+03 -0.18723125240E+03  0.46649354461E+03  0.00000000000E+00 0.  1.
         22    1    1    2    0    0  0.94041837228E+03 -0.59144652148E+03 -0.13966022370E+03  0.11196877604E+04  0.00000000000E+00 0. -1.
<mgrwt>
<rscale>  0 0.22708342E+04</rscale>
<asrwt>0</asrwt>
<pdfrwt beam="1">  1        1 0.12602402E+00 0.22708342E+04</pdfrwt>
<pdfrwt beam="2">  1       -1 0.24212008E+00 0.22708342E+04</pdfrwt>
<totfact> 0.15138614E+00</totfact>
</mgrwt>
</event>
<event>
 6    1  0.1001928E-005  0.3094202E+04  0.7818608E-02  0.8217331E-01
         -1   -1    0    0    0  501 -0.00000000000E+00  0.00000000000E+00  0.18154067778E+04  0.18154067778E+04  0.00000000000E+00 0.  1.
          1   -1    0    0  501    0  0.00000000000E+00 -0.00000000000E+00 -0.13184494592E+04  0.13184494592E+04  0.00000000000E+00 0. -1.
         23    2    1    2    0    0  0.13338053462E+04 -0.73113784628E+03  0.52658369082E+03  0.16125157182E+04  0.96526194156E+02 0.  0.
         13    1    3    3    0    0  0.81910239785E+03 -0.46418394601E+03  0.27809504775E+03  0.98169869587E+03  0.00000000000E+00 0.  1.
        -13    1    3    3    0    0  0.51470294840E+03 -0.26695390027E+03  0.24848864307E+03  0.63081702236E+03  0.00000000000E+00 0. -1.
         22    1    1    2    0    0 -0.13338053462E+04  0.73113784628E+03 -0.29626372234E+02  0.15213405187E+04  0.00000000000E+00 0.  1.
<mgrwt>
<rscale>  0 0.30942024E+04</rscale>
<asrwt>0</asrwt>
<pdfrwt beam="1">  1        1 0.20283838E+00 0.30942024E+04</pdfrwt>
<pdfrwt beam="2">  1       -1 0.27929335E+00 0.30942024E+04</pdfrwt>
<totfact> 0.33319051E-01</totfact>
</mgrwt>
</event>
<event>
 6    1  0.1001928E-005  0.2220881E+04  0.7818608E-02  0.8509787E-01
          2   -1    0    0  501    0  0.00000000000E+00  0.00000000000E+00  0.16034853121E+04  0.16034853121E+04  0.00000000000E+00 0. -1.
         -2   -1    0    0    0  501 -0.00000000000E+00 -0.00000000000E+00 -0.76899870998E+03  0.76899870998E+03  0.00000000000E+00 0.  1.
         23    2    1    2    0    0  0.54681038117E+03 -0.74818179363E+03  0.10679177269E+04  0.14168336261E+04  0.90507807819E+02 0.  0.
         13    1    3    3    0    0  0.26181979814E+03 -0.32532528587E+03  0.54303383210E+03  0.68503422625E+03  0.00000000000E+00 0. -1.
        -13    1    3    3    0    0  0.28499058303E+03 -0.42285650776E+03  0.52488389482E+03  0.73179939984E+03  0.00000000000E+00 0.  1.
         22    1    1    2    0    0 -0.54681038117E+03  0.74818179363E+03 -0.23343112482E+03  0.95565039597E+03  0.00000000000E+00 0.  1.
<mgrwt>
<rscale>  0 0.22208810E+04</rscale>
<asrwt>0</asrwt>
<pdfrwt beam="1">  1        2 0.24669005E+00 0.22208810E+04</pdfrwt>
<pdfrwt beam="2">  1       -2 0.11830749E+00 0.22208810E+04</pdfrwt>
<totfact> 0.55730350E+00</totfact>
</mgrwt>
</event>
<event>
 6    1  0.1001928E-005  0.1422624E+04  0.7818608E-02  0.8937603E-01
         -2   -1    0    0    0  501 -0.00000000000E+00  0.00000000000E+00  0.56053814777E+03  0.56053814777E+03  0.00000000000E+00 0.  1.
          2   -1    0    0  501    0  0.00000000000E+00 -0.00000000000E+00 -0.90264152940E+03  0.90264152940E+03  0.00000000000E+00 0. -1.
         23    2    1    2    0    0 -0.49478211785E+03 -0.30299021048E+03  0.24654002484E+03  0.63667288846E+03  0.89207461959E+02 0.  0.
         11    1    3    3    0    0 -0.30204939575E+02 -0.46107514590E+02  0.34486549547E+02  0.65019715288E+02  0.00000000000E+00 0. -1.
        -11    1    3    3    0    0 -0.46457717827E+03 -0.25688269589E+03  0.21205347529E+03  0.57165317317E+03  0.00000000000E+00 0.  1.
         22    1    1    2    0    0  0.49478211785E+03  0.30299021048E+03 -0.58864340647E+03  0.82650678870E+03  0.00000000000E+00 0. -1.
<mgrwt>
<rscale>  0 0.14226244E+04</rscale>
<asrwt>0</asrwt>
<pdfrwt beam="1">  1        2 0.13886793E+00 0.14226244E+04</pdfrwt>
<pdfrwt beam="2">  1       -2 0.86236638E-01 0.14226244E+04</pdfrwt>
<totfact> 0.33090372E+01</totfact>
</mgrwt>
</event>
<event>
 6    1  0.1001928E-005  0.5241983E+03  0.7818608E-02  0.1007649E+00
         -2   -1    0    0    0  501 -0.00000000000E+00  0.00000000000E+00  0.59685981016E+02  0.59685981016E+02  0.00000000000E+00 0. -1.
          2   -1    0    0  501    0  0.00000000000E+00 -0.00000000000E+00 -0.11509564543E+04  0.11509564543E+04  0.00000000000E+00 0.  1.
         23    2    1    2    0    0 -0.12985570126E+03 -0.19484725259E+03 -0.33503753082E+03  0.41898833266E+03  0.92049556486E+02 0.  0.
         13    1    3    3    0    0 -0.11890657656E+03 -0.15990623253E+03 -0.32464782500E+03  0.38092648559E+03  0.00000000000E+00 0.  1.
        -13    1    3    3    0    0 -0.10949124702E+02 -0.34941020066E+02 -0.10389705829E+02  0.38061847067E+02  0.00000000000E+00 0. -1.
         22    1    1    2    0    0  0.12985570126E+03  0.19484725259E+03 -0.75623294246E+03  0.79165410266E+03  0.00000000000E+00 0.  1.
<mgrwt>
<rscale>  0 0.52419830E+03</rscale>
<asrwt>0</asrwt>
<pdfrwt beam="1">  1        2 0.17707021E+00 0.52419830E+03</pdfrwt>
<pdfrwt beam="2">  1       -2 0.91824591E-02 0.52419830E+03</pdfrwt>
<totfact> 0.16148905E+03</totfact>
</mgrwt>
</event>
<event>
 6    1  0.1001928E-005  0.3662495E+04  0.7818608E-02  0.8076325E-01
          1   -1    0    0  501    0  0.00000000000E+00  0.00000000000E+00  0.28669432795E+04  0.28669432795E+04  0.00000000000E+00 0. -1.
         -1   -1    0    0    0  501 -0.00000000000E+00 -0.00000000000E+00 -0.11697012028E+04  0.11697012028E+04  0.00000000000E+00 0.  1.
         23    2    1    2    0    0 -0.10832721408E+04  0.13925935874E+04  0.31346876287E+03  0.17944080954E+04  0.94033593416E+02 0.  0.
         13    1    3    3    0    0 -0.36042168931E+03  0.48001754997E+03  0.15081872778E+03  0.61892401072E+03  0.00000000000E+00 0. -1.
        -13    1    3    3    0    0 -0.72285045144E+03  0.91257603747E+03  0.16265003510E+03  0.11754840846E+04  0.00000000000E+00 0.  1.
         22    1    1    2    0    0  0.10832721408E+04 -0.13925935874E+04  0.13837733139E+04  0.22422363869E+04  0.00000000000E+00 0.  1.
<mgrwt>
<rscale>  0 0.36624948E+04</rscale>
<asrwt>0</asrwt>
<pdfrwt beam="1">  1        1 0.44106820E+00 0.36624948E+04</pdfrwt>
<pdfrwt beam="2">  1       -1 0.17995403E+00 0.36624948E+04</pdfrwt>
<totfact> 0.12503427E-01</totfact>
</mgrwt>
</event>
<event>
 6    1  0.1001928E-005  0.7456575E+03  0.7818608E-02  0.9642188E-01
         -3   -1    0    0    0  501 -0.00000000000E+00  0.00000000000E+00  0.53588571601E+03  0.53588571601E+03  0.00000000000E+00 0.  1.
          3   -1    0    0  501    0  0.00000000000E+00 -0.00000000000E+00 -0.25938603179E+03  0.25938603179E+03  0.00000000000E+00 0. -1.
         23    2    1    2    0    0  0.67571132306E+02 -0.30376188443E+03 -0.67472700514E+02  0.33142463741E+03  0.91937938906E+02 0.  0.
         11    1    3    3    0    0  0.76256433686E+02 -0.23403100419E+03 -0.82436893698E+02  0.25957926736E+03  0.00000000000E+00 0. -1.
        -11    1    3    3    0    0 -0.86853013801E+01 -0.69730880240E+02  0.14964193184E+02  0.71845370044E+02  0.00000000000E+00 0.  1.
         22    1    1    2    0    0 -0.67571132306E+02  0.30376188443E+03  0.34397238474E+03  0.46384711039E+03  0.00000000000E+00 0.  1.
<mgrwt>
<rscale>  0 0.74565748E+03</rscale>
<asrwt>0</asrwt>
<pdfrwt beam="1">  1        3 0.39905543E-01 0.74565748E+03</pdfrwt>
<pdfrwt beam="2">  1       -3 0.82443956E-01 0.74565748E+03</pdfrwt>
<totfact> 0.22368460E+01</totfact>
</mgrwt>
</event>
<event>
 6    1  0.1001928E-005  0.1351583E+04  0.7818608E-02  0.8989631E-01
         -1   -1    0    0    0  501 -0.00000000000E+00  0.00000000000E+00  0.19860589123E+04  0.19860589123E+04  0.00000000000E+00 0.  1.
          1   -1    0    0  501    0  0.00000000000E+00 -0.00000000000E+00 -0.22994992766E+03  0.22994992766E+03  0.00000000000E+00 0. -1.
         23    2    1    2    0    0 -0.22368496366E+03  0.23820747927E+03  0.18461813437E+04  0.18770533916E+04  0.90366557610E+02 0.  0.
         11    1    3    3    0    0 -0.17165780552E+03  0.19370792343E+03  0.12207461528E+04  0.12478823388E+04  0.00000000000E+00 0. -1.
        -11    1    3    3    0    0 -0.52027158142E+02  0.44499555833E+02  0.62543519090E+03  0.62917105279E+03  0.00000000000E+00 0.  1.
         22    1    1    2    0    0  0.22368496366E+03 -0.23820747927E+03 -0.90072359060E+02  0.33895544842E+03  0.00000000000E+00 0. -1.
<mgrwt>
<rscale>  0 0.13515829E+04</rscale>
<asrwt>0</asrwt>
<pdfrwt beam="1">  1        1 0.35376913E-01 0.13515829E+04</pdfrwt>
<pdfrwt beam="2">  1       -1 0.30554751E+00 0.13515829E+04</pdfrwt>
<totfact> 0.37056411E+00</totfact>
</mgrwt>
</event>
<event>
 6    1  0.1001928E-005  0.3333668E+04  0.7818608E-02  0.8154381E-01
         -1   -1    0    0    0  501 -0.00000000000E+00  0.00000000000E+00  0.18371454843E+04  0.18371454843E+04  0.00000000000E+00 0.  1.
          1   -1    0    0  501    0  0.00000000000E+00 -0.00000000000E+00 -0.15123111808E+04  0.15123111808E+04  0.00000000000E+00 0. -1.
         23    2    1    2    0    0  0.13362744689E+04 -0.29404622082E+03 -0.79158915273E+03  0.15835308541E+04  0.94148515878E+02 0.  0.
         11    1    3    3    0    0  0.36494977794E+03 -0.45437303942E+02 -0.24052665566E+03  0.43943823353E+03  0.00000000000E+00 0.  1.
        -11    1    3    3    0    0  0.97132469098E+03 -0.24860891688E+03 -0.55106249706E+03  0.11440926206E+04  0.00000000000E+00 0. -1.
         22    1    1    2    0    0 -0.13362744689E+04  0.29404622082E+03  0.11164234563E+04  0.17659258110E+04  0.00000000000E+00 0.  1.
<mgrwt>
<rscale>  0 0.33336680E+04</rscale>
<asrwt>0</asrwt>
<pdfrwt beam="1">  1        1 0.23266326E+00 0.33336680E+04</pdfrwt>
<pdfrwt beam="2">  1       -1 0.28263777E+00 0.33336680E+04</pdfrwt>
<totfact> 0.22705098E-01</totfact>
</mgrwt>
</event>
<event>
 6    1  0.1001928E-005  0.1092353E+04  0.7818608E-02  0.9212677E-01
         -3   -1    0    0    0  501 -0.00000000000E+00  0.00000000000E+00  0.45872590605E+03  0.45872590605E+03  0.00000000000E+00 0.  1.
          3   -1    0    0  501    0  0.00000000000E+00 -0.00000000000E+00 -0.65029877860E+03  0.65029877860E+03  0.00000000000E+00 0. -1.
         23    2    1    2    0    0 -0.30927829050E+03 -0.15346875598E+03  0.32964896796E+03  0.48382237575E+03  0.78803103733E+02 0.  0.
         11    1    3    3    0    0 -0.13298590701E+03 -0.10969545149E+03  0.15462754934E+03  0.23157724965E+03  0.00000000000E+00 0. -1.
        -11    1    3    3    0    0 -0.17629238350E+03 -0.43773304491E+02  0.17502141862E+03  0.25224512610E+03  0.00000000000E+00 0.  1.
         22    1    1    2    0    0  0.30927829050E+03  0.15346875598E+03 -0.52122184051E+03  0.62520230891E+03  0.00000000000E+00 0. -1.
<mgrwt>
<rscale>  0 0.10923532E+04</rscale>
<asrwt>0</asrwt>
<pdfrwt beam="1">  1        3 0.10004597E+00 0.10923532E+04</pdfrwt>
<pdfrwt beam="2">  1       -3 0.70573217E-01 0.10923532E+04</pdfrwt>
<totfact> 0.43626862E+00</totfact>
</mgrwt>
</event>
<event>
 6    1  0.1001928E-005  0.1398874E+04  0.7818608E-02  0.8954634E-01
          1   -1    0    0  501    0  0.00000000000E+00  0.00000000000E+00  0.51460851322E+03  0.51460851322E+03  0.00000000000E+00 0.  1.
         -1   -1    0    0    0  501 -0.00000000000E+00 -0.00000000000E+00 -0.95064916603E+03  0.95064916603E+03  0.00000000000E+00 0. -1.
         23    2    1    2    0    0 -0.39584089703E+03 -0.44411555486E+03  0.16010959052E+03  0.62304407543E+03  0.92845016697E+02 0.  0.
         13    1    3    3    0    0 -0.11623452102E+03 -0.73824292285E+02  0.26879503163E+02  0.14029610721E+03  0.00000000000E+00 0.  1.
        -13    1    3    3    0    0 -0.27960637600E+03 -0.37029126258E+03  0.13323008735E+03  0.48274796822E+03  0.00000000000E+00 0. -1.
         22    1    1    2    0    0  0.39584089703E+03  0.44411555486E+03 -0.59615024333E+03  0.84221360382E+03  0.00000000000E+00 0. -1.
<mgrwt>
<rscale>  0 0.13988741E+04</rscale>
<asrwt>0</asrwt>
<pdfrwt beam="1">  1        1 0.79170541E-01 0.13988741E+04</pdfrwt>
<pdfrwt beam="2">  1       -1 0.14625372E+00 0.13988741E+04</pdfrwt>
<totfact> 0.15508621E+01</totfact>
</mgrwt>
</event>
<event>
 6    1  0.1001928E-005  0.1984823E+04  0.7818608E-02  0.8613749E-01
          2   -1    0    0  501    0  0.00000000000E+00  0.00000000000E+00  0.22125811080E+04  0.22125811080E+04  0.00000000000E+00 0. -1.
         -2   -1    0    0    0  501 -0.00000000000E+00 -0.00000000000E+00 -0.44512749392E+03  0.44512749392E+03  0.00000000000E+00 0.  1.
         23    2    1    2    0    0 -0.26302013036E+03 -0.87283328810E+03  0.36781988913E+03  0.98738165734E+03  0.92809097733E+02 0.  0.
         13    1    3    3    0    0 -0.16945693903E+03 -0.47518850761E+03  0.24480380391E+03  0.56075723300E+03  0.00000000000E+00 0. -1.
        -13    1    3    3    0    0 -0.93563191330E+02 -0.39764478049E+03  0.12301608522E+03  0.42662442434E+03  0.00000000000E+00 0.  1.
         22    1    1    2    0    0  0.26302013036E+03  0.87283328810E+03  0.13996337250E+04  0.16703269446E+04  0.00000000000E+00 0. -1.
<mgrwt>
<rscale>  0 0.19848231E+04</rscale>
<asrwt>0</asrwt>
<pdfrwt beam="1">  1        2 0.34039709E+00 0.19848231E+04</pdfrwt>
<pdfrwt beam="2">  1       -2 0.68481154E-01 0.19848231E+04</pdfrwt>
<totfact> 0.92157175E+00</totfact>
</mgrwt>
</event>
<event>
 6    1  0.1001928E-005  0.1159596E+04  0.7818608E-02  0.9148976E-01
          1   -1    0    0  501    0  0.00000000000E+00  0.00000000000E+00  0.65283160908E+03  0.65283160908E+03  0.00000000000E+00 0. -1.
         -1   -1    0    0    0  501 -0.00000000000E+00 -0.00000000000E+00 -0.51493493687E+03  0.51493493687E+03  0.00000000000E+00 0.  1.
         23    2    1    2    0    0  0.14926956522E+03  0.16559629553E+03  0.60439027505E+03  0.65073674247E+03  0.92017211587E+02 0.  0.
         13    1    3    3    0    0  0.11423561384E+03  0.10831462578E+03  0.29745901171E+03  0.33654672376E+03  0.00000000000E+00 0. -1.
        -13    1    3    3    0    0  0.35033951374E+02  0.57281669754E+02  0.30693126334E+03  0.31419001871E+03  0.00000000000E+00 0.  1.
         22    1    1    2    0    0 -0.14926956522E+03 -0.16559629553E+03 -0.46649360284E+03  0.51702980348E+03  0.00000000000E+00 0.  1.
<mgrwt>
<rscale>  0 0.11595961E+04</rscale>
<asrwt>0</asrwt>
<pdfrwt beam="1">  1        1 0.10043563E+00 0.11595961E+04</pdfrwt>
<pdfrwt beam="2">  1       -1 0.79220759E-01 0.11595961E+04</pdfrwt>
<totfact> 0.47861370E+01</totfact>
</mgrwt>
</event>
<event>
 6    1  0.1001928E-005  0.1887119E+04  0.7818608E-02  0.8661295E-01
         -1   -1    0    0    0  501 -0.00000000000E+00  0.00000000000E+00  0.10032562203E+04  0.10032562203E+04  0.00000000000E+00 0.  1.
          1   -1    0    0  501    0  0.00000000000E+00 -0.00000000000E+00 -0.88741482454E+03  0.88741482454E+03  0.00000000000E+00 0. -1.
         23    2    1    2    0    0 -0.79314006418E+03  0.50239456319E+03 -0.92471158304E+01  0.94350759836E+03  0.93003335843E+02 0.  0.
         13    1    3    3    0    0 -0.46613369167E+03  0.30505006452E+03  0.39462898405E+02  0.55847424357E+03  0.00000000000E+00 0.  1.
        -13    1    3    3    0    0 -0.32700637250E+03  0.19734449867E+03 -0.48710014235E+02  0.38503335479E+03  0.00000000000E+00 0. -1.
         22    1    1    2    0    0  0.79314006418E+03 -0.50239456319E+03  0.12508851155E+03  0.94716344643E+03  0.00000000000E+00 0. -1.
<mgrwt>
<rscale>  0 0.18871189E+04</rscale>
<asrwt>0</asrwt>
<pdfrwt beam="1">  1        1 0.13652536E+00 0.18871189E+04</pdfrwt>
<pdfrwt beam="2">  1       -1 0.15434711E+00 0.18871189E+04</pdfrwt>
<totfact> 0.56356971E+00</totfact>
</mgrwt>
</event>
<event>
 6    1  0.1001928E-005  0.3053254E+04  0.7818608E-02  0.8228685E-01
         -1   -1    0    0    0  501 -0.00000000000E+00  0.00000000000E+00  0.61289487604E+03  0.61289487604E+03  0.00000000000E+00 0.  1.
          1   -1    0    0  501    0  0.00000000000E+00 -0.00000000000E+00 -0.38025933600E+04  0.38025933600E+04  0.00000000000E+00 0. -1.
         23    2    1    2    0    0 -0.63979776322E+03  0.13408833844E+04 -0.10970151645E+04  0.18490446064E+04  0.90632537972E+02 0.  0.
         11    1    3    3    0    0 -0.32197473137E+03  0.75584531644E+03 -0.57045385578E+03  0.10001937170E+04  0.00000000000E+00 0. -1.
        -11    1    3    3    0    0 -0.31782303185E+03  0.58503806799E+03 -0.52656130874E+03  0.84885088940E+03  0.00000000000E+00 0.  1.
         22    1    1    2    0    0  0.63979776322E+03 -0.13408833844E+04 -0.20926833194E+04  0.25664436296E+04  0.00000000000E+00 0. -1.
<mgrwt>
<rscale>  0 0.30532540E+04</rscale>
<asrwt>0</asrwt>
<pdfrwt beam="1">  1        1 0.58501437E+00 0.30532540E+04</pdfrwt>
<pdfrwt beam="2">  1       -1 0.94291519E-01 0.30532540E+04</pdfrwt>
<totfact> 0.13069459E-01</totfact>
</mgrwt>
</event>
<event>
 6    1  0.1001928E-005  0.3119869E+04  0.7818608E-02  0.8210306E-01
          1   -1    0    0  501    0  0.00000000000E+00  0.00000000000E+00  0.24806562219E+04  0.24806562219E+04  0.00000000000E+00 0. -1.
         -1   -1    0    0    0  501 -0.00000000000E+00 -0.00000000000E+00 -0.98094839165E+03  0.98094839165E+03  0.00000000000E+00 0.  1.
         23    2    1    2    0    0  0.14812272927E+04 -0.13842971942E+02  0.12885353824E+04  0.19653360135E+04  0.89421998948E+02 0.  0.
         13    1    3    3    0    0  0.54362883368E+03 -0.44707413219E+02  0.45135529509E+03  0.70799199431E+03  0.00000000000E+00 0.  1.
        -13    1    3    3    0    0  0.93759845907E+03  0.30864441276E+02  0.83718008728E+03  0.12573440192E+04  0.00000000000E+00 0. -1.
         22    1    1    2    0    0 -0.14812272927E+04  0.13842971942E+02  0.21117244790E+03  0.14962686000E+04  0.00000000000E+00 0.  1.
<mgrwt>
<rscale>  0 0.31198691E+04</rscale>
<asrwt>0</asrwt>
<pdfrwt beam="1">  1        1 0.38163942E+00 0.31198691E+04</pdfrwt>
<pdfrwt beam="2">  1       -1 0.15091514E+00 0.31198691E+04</pdfrwt>
<totfact> 0.40383603E-01</totfact>
</mgrwt>
</event>
<event>
 6    1  0.1001928E-005  0.1745862E+04  0.7818608E-02  0.8735631E-01
         -2   -1    0    0    0  501 -0.00000000000E+00  0.00000000000E+00  0.19431495325E+04  0.19431495325E+04  0.00000000000E+00 0.  1.
          2   -1    0    0  501    0  0.00000000000E+00 -0.00000000000E+00 -0.39215134207E+03  0.39215134207E+03  0.00000000000E+00 0. -1.
         23    2    1    2    0    0  0.11411273167E+03  0.59919209427E+03 -0.53130302872E+02  0.61911874426E+03  0.91827605020E+02 0.  0.
         11    1    3    3    0    0  0.55539841513E+01  0.26574757979E+03 -0.12466503698E+02  0.26609779521E+03  0.00000000000E+00 0. -1.
        -11    1    3    3    0    0  0.10855874752E+03  0.33344451449E+03 -0.40663799173E+02  0.35302094905E+03  0.00000000000E+00 0.  1.
         22    1    1    2    0    0 -0.11411273167E+03 -0.59919209427E+03  0.16041284933E+04  0.17161821303E+04  0.00000000000E+00 0.  1.
<mgrwt>
<rscale>  0 0.17458622E+04</rscale>
<asrwt>0</asrwt>
<pdfrwt beam="1">  1        2 0.60330977E-01 0.17458622E+04</pdfrwt>
<pdfrwt beam="2">  1       -2 0.29894608E+00 0.17458622E+04</pdfrwt>
<totfact> 0.24920527E+00</totfact>
</mgrwt>
</event>
<event>
 6    1  0.1001928E-005  0.1978295E+04  0.7818608E-02  0.8616836E-01
          2   -1    0    0  501    0  0.00000000000E+00  0.00000000000E+00  0.36252704246E+04  0.36252704246E+04  0.00000000000E+00 0.  1.
         -2   -1    0    0    0  501 -0.00000000000E+00 -0.00000000000E+00 -0.26988676271E+03  0.26988676271E+03  0.00000000000E+00 0. -1.
         23    2    1    2    0    0 -0.16909737580E+03 -0.62244446954E+03  0.20942215481E+03  0.68375486992E+03  0.87361565056E+02 0.  0.
         11    1    3    3    0    0 -0.49004564161E+02 -0.33939990854E+03  0.96942336155E+02  0.35635875430E+03  0.00000000000E+00 0.  1.
        -11    1    3    3    0    0 -0.12009281164E+03 -0.28304456100E+03  0.11247981866E+03  0.32739611563E+03  0.00000000000E+00 0. -1.
         22    1    1    2    0    0  0.16909737580E+03  0.62244446954E+03  0.31459615071E+04  0.32114023174E+04  0.00000000000E+00 0.  1.
<mgrwt>
<rscale>  0 0.19782947E+04</rscale>
<asrwt>0</asrwt>
<pdfrwt beam="1">  1        2 0.55773388E+00 0.19782947E+04</pdfrwt>
<pdfrwt beam="2">  1       -2 0.41521043E-01 0.19782947E+04</pdfrwt>
<totfact> 0.34097450E+00</totfact>
</mgrwt>
</event>
<event>
 6    1  0.1001928E-005  0.2377295E+04  0.7818608E-02  0.8448053E-01
          1   -1    0    0  501    0  0.00000000000E+00  0.00000000000E+00  0.18240994933E+04  0.18240994933E+04  0.00000000000E+00 0. -1.
         -1   -1    0    0    0  501 -0.00000000000E+00 -0.00000000000E+00 -0.77456452955E+03  0.77456452955E+03  0.00000000000E+00 0.  1.
         23    2    1    2    0    0  0.56704985391E+03 -0.83076683393E+03  0.12134644197E+04  0.15795507143E+04  0.10375688940E+03 0.  0.
         11    1    3    3    0    0  0.53752498906E+03 -0.74662811246E+03  0.11326815156E+04  0.14592306425E+04  0.00000000000E+00 0. -1.
        -11    1    3    3    0    0  0.29524864847E+02 -0.84138721462E+02  0.80782904075E+02  0.12032007183E+03  0.00000000000E+00 0.  1.
         22    1    1    2    0    0 -0.56704985391E+03  0.83076683393E+03 -0.16392945592E+03  0.10191133086E+04  0.00000000000E+00 0.  1.
<mgrwt>
<rscale>  0 0.23772949E+04</rscale>
<asrwt>0</asrwt>
<pdfrwt beam="1">  1        1 0.28063069E+00 0.23772949E+04</pdfrwt>
<pdfrwt beam="2">  1       -1 0.11916377E+00 0.23772949E+04</pdfrwt>
<totfact> 0.22182074E+00</totfact>
</mgrwt>
</event>
<event>
 6    1  0.1001928E-005  0.2777024E+04  0.7818608E-02  0.8310437E-01
         -1   -1    0    0    0  501 -0.00000000000E+00  0.00000000000E+00  0.16192099426E+04  0.16192099426E+04  0.00000000000E+00 0. -1.
          1   -1    0    0  501    0  0.00000000000E+00 -0.00000000000E+00 -0.11906827027E+04  0.11906827027E+04  0.00000000000E+00 0.  1.
         23    2    1    2    0    0 -0.52475674065E+03  0.76832768535E+03  0.12552430704E+04  0.15652416367E+04  0.93000787735E+02 0.  0.
         13    1    3    3    0    0 -0.25132853281E+03  0.33894275843E+03  0.64190412773E+03  0.76817259395E+03  0.00000000000E+00 0. -1.
        -13    1    3    3    0    0 -0.27342820784E+03  0.42938492691E+03  0.61333894268E+03  0.79706904275E+03  0.00000000000E+00 0.  1.
         22    1    1    2    0    0  0.52475674065E+03 -0.76832768535E+03 -0.82671583047E+03  0.12446510086E+04  0.00000000000E+00 0.  1.
<mgrwt>
<rscale>  0 0.27770238E+04</rscale>
<asrwt>0</asrwt>
<pdfrwt beam="1">  1        1 0.18318195E+00 0.27770238E+04</pdfrwt>
<pdfrwt beam="2">  1       -1 0.24910922E+00 0.27770238E+04</pdfrwt>
<totfact> 0.66531364E-01</totfact>
</mgrwt>
</event>
<event>
 6    1  0.1001928E-005  0.6319635E+03  0.7818608E-02  0.9841225E-01
          2   -1    0    0  501    0  0.00000000000E+00  0.00000000000E+00  0.69509998870E+03  0.69509998870E+03  0.00000000000E+00 0. -1.
         -2   -1    0    0    0  501 -0.00000000000E+00 -0.00000000000E+00 -0.14364044115E+03  0.14364044115E+03  0.00000000000E+00 0.  1.
         23    2    1    2    0    0  0.15824354975E+03 -0.26188581513E+03  0.35194342749E+03  0.47345713792E+03  0.81684050395E+02 0.  0.
         11    1    3    3    0    0  0.95582704168E+02 -0.19871474488E+03  0.29308933699E+03  0.36677644775E+03  0.00000000000E+00 0. -1.
        -11    1    3    3    0    0  0.62660845582E+02 -0.63171070252E+02  0.58854090498E+02  0.10668069017E+03  0.00000000000E+00 0.  1.
         22    1    1    2    0    0 -0.15824354975E+03  0.26188581513E+03  0.19951612006E+03  0.36528329194E+03  0.00000000000E+00 0.  1.
<mgrwt>
<rscale>  0 0.63196351E+03</rscale>
<asrwt>0</asrwt>
<pdfrwt beam="1">  1        2 0.10693846E+00 0.63196351E+03</pdfrwt>
<pdfrwt beam="2">  1       -2 0.22098530E-01 0.63196351E+03</pdfrwt>
<totfact> 0.74350084E+02</totfact>
</mgrwt>
</event>
<event>
 6    1  0.1001928E-005  0.3743183E+04  0.7818608E-02  0.8058459E-01
          2   -1    0    0  501    0  0.00000000000E+00  0.00000000000E+00  0.42287657657E+04  0.42287657657E+04  0.00000000000E+00 0. -1.
         -2   -1    0    0    0  501 -0.00000000000E+00 -0.00000000000E+00 -0.82833993240E+03  0.82833993240E+03  0.00000000000E+00 0.  1.
         23    2    1    2    0    0  0.46335447836E+03  0.64853844394E+02  0.41479146045E+04  0.41752650907E+04  0.93485919116E+02 0.  0.
         13    1    3    3    0    0  0.17406358572E+03  0.26152715302E+02  0.19766211891E+04  0.19844428492E+04  0.00000000000E+00 0.  1.
        -13    1    3    3    0    0  0.28929089265E+03  0.38701129092E+02  0.21712934154E+04  0.21908222415E+04  0.00000000000E+00 0. -1.
         22    1    1    2    0    0 -0.46335447836E+03 -0.64853844394E+02 -0.74748877125E+03  0.88184060742E+03  0.00000000000E+00 0.  1.
<mgrwt>
<rscale>  0 0.37431834E+04</rscale>
<asrwt>0</asrwt>
<pdfrwt beam="1">  1        2 0.65057934E+00 0.37431834E+04</pdfrwt>
<pdfrwt beam="2">  1       -2 0.12743692E+00 0.37431834E+04</pdfrwt>
<totfact> 0.80396512E-02</totfact>
</mgrwt>
</event>
<event>
 6    1  0.1001928E-005  0.2302511E+04  0.7818608E-02  0.8476932E-01
          2   -1    0    0  501    0  0.00000000000E+00  0.00000000000E+00  0.16754921384E+04  0.16754921384E+04  0.00000000000E+00 0. -1.
         -2   -1    0    0    0  501 -0.00000000000E+00 -0.00000000000E+00 -0.79104484041E+03  0.79104484041E+03  0.00000000000E+00 0.  1.
         23    2    1    2    0    0  0.55640148651E+03  0.21751307001E+03 -0.60898118772E+03  0.85805222858E+03  0.92200814308E+02 0.  0.
         11    1    3    3    0    0  0.14345636011E+03  0.18560938632E+02 -0.17226834059E+03  0.22494580874E+03  0.00000000000E+00 0.  1.
        -11    1    3    3    0    0  0.41294512640E+03  0.19895213138E+03 -0.43671284713E+03  0.63310641984E+03  0.00000000000E+00 0. -1.
         22    1    1    2    0    0 -0.55640148651E+03 -0.21751307001E+03  0.14934284857E+04  0.16084847502E+04  0.00000000000E+00 0. -1.
<mgrwt>
<rscale>  0 0.23025112E+04</rscale>
<asrwt>0</asrwt>
<pdfrwt beam="1">  1        2 0.25776802E+00 0.23025112E+04</pdfrwt>
<pdfrwt beam="2">  1       -2 0.12169921E+00 0.23025112E+04</pdfrwt>
<totfact> 0.47037996E+00</totfact>
</mgrwt>
</event>
<event>
 6    1  0.1001928E-005  0.2102688E+04  0.7818608E-02  0.8560060E-01
         -2   -1    0    0    0  501 -0.00000000000E+00  0.00000000000E+00  0.49302450276E+03  0.49302450276E+03  0.00000000000E+00 0.  1.
          2   -1    0    0  501    0  0.00000000000E+00 -0.00000000000E+00 -0.22419251185E+04  0.22419251185E+04  0.00000000000E+00 0. -1.
         23    2    1    2    0    0  0.60652647478E+03  0.27807153340E+03  0.17690535012E+03  0.69683118495E+03  0.95289323266E+02 0.  0.
         13    1    3    3    0    0  0.22552538892E+03  0.10779335488E+03  0.11424452383E+03  0.27483253015E+03  0.00000000000E+00 0. -1.
        -13    1    3    3    0    0  0.38100108586E+03  0.17027817852E+03  0.62660826297E+02  0.42199865481E+03  0.00000000000E+00 0.  1.
         22    1    1    2    0    0 -0.60652647478E+03 -0.27807153340E+03 -0.19258059658E+04  0.20381184363E+04  0.00000000000E+00 0. -1.
<mgrwt>
<rscale>  0 0.21026878E+04</rscale>
<asrwt>0</asrwt>
<pdfrwt beam="1">  1        2 0.34491155E+00 0.21026878E+04</pdfrwt>
<pdfrwt beam="2">  1       -2 0.75849924E-01 0.21026878E+04</pdfrwt>
<totfact> 0.70164394E+00</totfact>
</mgrwt>
</event>
<event>
 6    1  0.1001928E-005  0.3471203E+04  0.7818608E-02  0.8120649E-01
         -2   -1    0    0    0  501 -0.00000000000E+00  0.00000000000E+00  0.11164391110E+04  0.11164391110E+04  0.00000000000E+00 0.  1.
          2   -1    0    0  501    0  0.00000000000E+00 -0.00000000000E+00 -0.26981428302E+04  0.26981428302E+04  0.00000000000E+00 0. -1.
         23    2    1    2    0    0  0.15480683576E+03  0.17259429936E+04 -0.87283384200E+03  0.19423263827E+04  0.89154290485E+02 0.  0.
         13    1    3    3    0    0  0.13802152370E+03  0.10817750615E+04 -0.53325032454E+03  0.12139370384E+04  0.00000000000E+00 0. -1.
        -13    1    3    3    0    0  0.16785312064E+02  0.64416793214E+03 -0.33958351746E+03  0.72838934425E+03  0.00000000000E+00 0.  1.
         22    1    1    2    0    0 -0.15480683576E+03 -0.17259429936E+04 -0.70886987724E+03  0.18722555585E+04  0.00000000000E+00 0.  1.
<mgrwt>
<rscale>  0 0.34712028E+04</rscale>
<asrwt>0</asrwt>
<pdfrwt beam="1">  1        2 0.41509889E+00 0.34712028E+04</pdfrwt>
<pdfrwt beam="2">  1       -2 0.17175986E+00 0.34712028E+04</pdfrwt>
<totfact> 0.45396087E-01</totfact>
</mgrwt>
</event>
<event>
 6    1  0.1001928E-005  0.1793797E+04  0.7818608E-02  0.8709605E-01
          2   -1    0    0  501    0  0.00000000000E+00  0.00000000000E+00  0.11831900049E+04  0.11831900049E+04  0.00000000000E+00 0.  1.
         -2   -1    0    0    0  501 -0.00000000000E+00 -0.00000000000E+00 -0.67987950592E+03  0.67987950592E+03  0.00000000000E+00 0. -1.
         23    2    1    2    0    0  0.43836225000E+03  0.77896006718E+03  0.21359329143E+03  0.92345453178E+03  0.90586586393E+02 0.  0.
         13    1    3    3    0    0  0.35029329901E+03  0.63613923400E+03  0.13704256603E+03  0.73902583531E+03  0.00000000000E+00 0. -1.
        -13    1    3    3    0    0  0.88068950997E+02  0.14282083318E+03  0.76550725401E+02  0.18442869647E+03  0.00000000000E+00 0.  1.
         22    1    1    2    0    0 -0.43836225000E+03 -0.77896006718E+03  0.28971720755E+03  0.93961497904E+03  0.00000000000E+00 0. -1.
<mgrwt>
<rscale>  0 0.17937967E+04</rscale>
<asrwt>0</asrwt>
<pdfrwt beam="1">  1        2 0.18202923E+00 0.17937967E+04</pdfrwt>
<pdfrwt beam="2">  1       -2 0.10459685E+00 0.17937967E+04</pdfrwt>
<totfact> 0.13587185E+01</totfact>
</mgrwt>
</event>
<event>
 6    1  0.1001928E-005  0.3720514E+04  0.7818608E-02  0.8063431E-01
          1   -1    0    0  501    0  0.00000000000E+00  0.00000000000E+00  0.11898352990E+04  0.11898352990E+04  0.00000000000E+00 0. -1.
         -1   -1    0    0    0  501 -0.00000000000E+00 -0.00000000000E+00 -0.29084321056E+04  0.29084321056E+04  0.00000000000E+00 0.  1.
         23    2    1    2    0    0  0.16768711602E+04 -0.79506182300E+03 -0.74232955882E+03  0.20013368074E+04  0.10136889355E+03 0.  0.
         13    1    3    3    0    0  0.12241844040E+04 -0.53012572289E+03 -0.53689253886E+03  0.14380244557E+04  0.00000000000E+00 0. -1.
        -13    1    3    3    0    0  0.45268675618E+03 -0.26493610011E+03 -0.20543701996E+03  0.56331235166E+03  0.00000000000E+00 0.  1.
         22    1    1    2    0    0 -0.16768711602E+04  0.79506182300E+03 -0.97626724778E+03  0.20969305972E+04  0.00000000000E+00 0.  1.
<mgrwt>
<rscale>  0 0.37205135E+04</rscale>
<asrwt>0</asrwt>
<pdfrwt beam="1">  1        1 0.18305159E+00 0.37205135E+04</pdfrwt>
<pdfrwt beam="2">  1       -1 0.44745109E+00 0.37205135E+04</pdfrwt>
<totfact> 0.29321011E-02</totfact>
</mgrwt>
</event>
<event>
 6    1  0.1001928E-005  0.2128370E+04  0.7818608E-02  0.8548848E-01
         -1   -1    0    0    0  501 -0.00000000000E+00  0.00000000000E+00  0.25847949983E+04  0.25847949983E+04  0.00000000000E+00 0. -1.
          1   -1    0    0  501    0  0.00000000000E+00 -0.00000000000E+00 -0.43813505616E+03  0.43813505616E+03  0.00000000000E+00 0.  1.
         23    2    1    2    0    0  0.13147873317E+03  0.83486353105E+03  0.19892947300E+04  0.21632512873E+04  0.89882347960E+02 0.  0.
         13    1    3    3    0    0  0.61297456546E+02  0.59252320016E+03  0.13288525468E+04  0.14562589783E+04  0.00000000000E+00 0. -1.
        -13    1    3    3    0    0  0.70181276622E+02  0.24234033089E+03  0.66044218320E+03  0.70699230895E+03  0.00000000000E+00 0.  1.
         22    1    1    2    0    0 -0.13147873317E+03 -0.83486353105E+03  0.15736521217E+03  0.85967876718E+03  0.00000000000E+00 0.  1.
<mgrwt>
<rscale>  0 0.21283696E+04</rscale>
<asrwt>0</asrwt>
<pdfrwt beam="1">  1        1 0.67405395E-01 0.21283696E+04</pdfrwt>
<pdfrwt beam="2">  1       -1 0.39766076E+00 0.21283696E+04</pdfrwt>
<totfact> 0.36194161E-01</totfact>
</mgrwt>
</event>
<event>
 6    1  0.1001928E-005  0.4858706E+04  0.7818608E-02  0.7850680E-01
         -2   -1    0    0    0  501 -0.00000000000E+00  0.00000000000E+00  0.23716015061E+04  0.23716015061E+04  0.00000000000E+00 0.  1.
          2   -1    0    0  501    0  0.00000000000E+00 -0.00000000000E+00 -0.24885112258E+04  0.24885112258E+04  0.00000000000E+00 0. -1.
         23    2    1    2    0    0  0.13762375250E+04  0.58234702089E+03  0.18563701392E+04  0.23848367514E+04  0.90434833030E+02 0.  0.
         11    1    3    3    0    0  0.61464382712E+03  0.22103898733E+03  0.85331295661E+03  0.10746107528E+04  0.00000000000E+00 0.  1.
        -11    1    3    3    0    0  0.76159369788E+03  0.36130803355E+03  0.10030571826E+04  0.13102259986E+04  0.00000000000E+00 0. -1.
         22    1    1    2    0    0 -0.13762375250E+04 -0.58234702089E+03 -0.19732798590E+04  0.24752759805E+04  0.00000000000E+00 0. -1.
<mgrwt>
<rscale>  0 0.48587064E+04</rscale>
<asrwt>0</asrwt>
<pdfrwt beam="1">  1        2 0.38284788E+00 0.48587064E+04</pdfrwt>
<pdfrwt beam="2">  1       -2 0.36486177E+00 0.48587064E+04</pdfrwt>
<totfact> 0.32593524E-02</totfact>
</mgrwt>
</event>
<event>
 6    1  0.1001928E-005  0.1770889E+04  0.7818608E-02  0.8721935E-01
          2   -1    0    0  501    0  0.00000000000E+00  0.00000000000E+00  0.19437589770E+04  0.19437589770E+04  0.00000000000E+00 0. -1.
         -2   -1    0    0    0  501 -0.00000000000E+00 -0.00000000000E+00 -0.40334827339E+03  0.40334827339E+03  0.00000000000E+00 0.  1.
         23    2    1    2    0    0 -0.40803259194E+03 -0.19460952066E+03 -0.23241242002E+03  0.51755394717E+03  0.97381177014E+02 0.  0.
         13    1    3    3    0    0 -0.14594244028E+03 -0.48156649438E+02 -0.33160054722E+02  0.15721910822E+03  0.00000000000E+00 0.  1.
        -13    1    3    3    0    0 -0.26209015166E+03 -0.14645287122E+03 -0.19925236530E+03  0.36033483895E+03  0.00000000000E+00 0. -1.
         22    1    1    2    0    0  0.40803259194E+03  0.19460952066E+03  0.17728231236E+04  0.18295533032E+04  0.00000000000E+00 0. -1.
<mgrwt>
<rscale>  0 0.17708888E+04</rscale>
<asrwt>0</asrwt>
<pdfrwt beam="1">  1        2 0.29903984E+00 0.17708888E+04</pdfrwt>
<pdfrwt beam="2">  1       -2 0.62053581E-01 0.17708888E+04</pdfrwt>
<totfact> 0.16382047E+01</totfact>
</mgrwt>
</event>
<event>
 6    1  0.1001928E-005  0.9363369E+03  0.7818608E-02  0.9381265E-01
          1   -1    0    0  501    0  0.00000000000E+00  0.00000000000E+00  0.58291387398E+03  0.58291387398E+03  0.00000000000E+00 0. -1.
         -1   -1    0    0    0  501 -0.00000000000E+00 -0.00000000000E+00 -0.37601042963E+03  0.37601042963E+03  0.00000000000E+00 0.  1.
         23    2    1    2    0    0  0.35254470972E+03 -0.13900357447E+03 -0.16920301217E+03  0.42500873659E+03  0.91613322086E+02 0.  0.
         13    1    3    3    0    0  0.21430047829E+03 -0.43739724028E+02 -0.12276046246E+03  0.25081465188E+03  0.00000000000E+00 0. -1.
        -13    1    3    3    0    0  0.13824423143E+03 -0.95263850443E+02 -0.46442549704E+02  0.17419408471E+03  0.00000000000E+00 0.  1.
         22    1    1    2    0    0 -0.35254470972E+03  0.13900357447E+03  0.37610645652E+03  0.53391556702E+03  0.00000000000E+00 0. -1.
<mgrwt>
<rscale>  0 0.93633690E+03</rscale>
<asrwt>0</asrwt>
<pdfrwt beam="1">  1        1 0.89679057E-01 0.93633690E+03</pdfrwt>
<pdfrwt beam="2">  1       -1 0.57847759E-01 0.93633690E+03</pdfrwt>
<totfact> 0.10875611E+02</totfact>
</mgrwt>
</event>
<event>
 6    1  0.1001928E-005  0.6149906E+03  0.7818608E-02  0.9874784E-01
          3   -1    0    0  501    0  0.00000000000E+00  0.00000000000E+00  0.74020602278E+02  0.74020602278E+02  0.00000000000E+00 0. -1.
         -3   -1    0    0    0  501 -0.00000000000E+00 -0.00000000000E+00 -0.12773924368E+04  0.12773924368E+04  0.00000000000E+00 0.  1.
         23    2    1    2    0    0  0.46904085042E+02 -0.26947426010E+03 -0.88820404623E+03  0.93410367561E+03  0.93951471544E+02 0.  0.
         13    1    3    3    0    0  0.57491996188E+02 -0.11030307103E+03 -0.30277919690E+03  0.32733368171E+03  0.00000000000E+00 0.  1.
        -13    1    3    3    0    0 -0.10587911146E+02 -0.15917118907E+03 -0.58542484933E+03  0.60676999390E+03  0.00000000000E+00 0. -1.
         22    1    1    2    0    0 -0.46904085042E+02  0.26947426010E+03 -0.31516778826E+03  0.41730936343E+03  0.00000000000E+00 0. -1.
<mgrwt>
<rscale>  0 0.61499059E+03</rscale>
<asrwt>0</asrwt>
<pdfrwt beam="1">  1        3 0.11387786E-01 0.61499059E+03</pdfrwt>
<pdfrwt beam="2">  1       -3 0.19652190E+00 0.61499059E+03</pdfrwt>
<totfact> 0.25294540E+01</totfact>
</mgrwt>
</event>
<event>
 6    1  0.1001928E-005  0.4752601E+03  0.7818608E-02  0.1020446E+00
          2   -1    0    0  501    0  0.00000000000E+00  0.00000000000E+00  0.82568440175E+03  0.82568440175E+03  0.00000000000E+00 0. -1.
         -2   -1    0    0    0  501 -0.00000000000E+00 -0.00000000000E+00 -0.68389377756E+02  0.68389377756E+02  0.00000000000E+00 0.  1.
         23    2    1    2    0    0  0.96886354550E+02  0.18335274288E+03  0.57307177781E+03  0.61668704865E+03  0.94268019129E+02 0.  0.
         13    1    3    3    0    0  0.46751441049E+02  0.14771341737E+02  0.16966626862E+03  0.17660841567E+03  0.00000000000E+00 0.  1.
        -13    1    3    3    0    0  0.50134913502E+02  0.16858140115E+03  0.40340550919E+03  0.44007863298E+03  0.00000000000E+00 0. -1.
         22    1    1    2    0    0 -0.96886354550E+02 -0.18335274288E+03  0.18422324619E+03  0.27738673086E+03  0.00000000000E+00 0.  1.
<mgrwt>
<rscale>  0 0.47526011E+03</rscale>
<asrwt>0</asrwt>
<pdfrwt beam="1">  1        2 0.12702836E+00 0.47526011E+03</pdfrwt>
<pdfrwt beam="2">  1       -2 0.10521443E-01 0.47526011E+03</pdfrwt>
<totfact> 0.20888313E+03</totfact>
</mgrwt>
</event>
<event>
 6    1  0.1001928E-005  0.2584218E+04  0.7818608E-02  0.8373582E-01
         -1   -1    0    0    0  501 -0.00000000000E+00  0.00000000000E+00  0.85541905657E+03  0.85541905657E+03  0.00000000000E+00 0.  1.
          1   -1    0    0  501    0  0.00000000000E+00 -0.00000000000E+00 -0.19517279421E+04  0.19517279421E+04  0.00000000000E+00 0. -1.
         23    2    1    2    0    0  0.92064010313E+03 -0.33488332986E+03  0.36274451575E+03  0.10497165244E+04  0.10293762088E+03 0.  0.
         13    1    3    3    0    0  0.71427334302E+03 -0.30198624557E+03  0.27078444293E+03  0.82140508617E+03  0.00000000000E+00 0. -1.
        -13    1    3    3    0    0  0.20636676011E+03 -0.32897084287E+02  0.91960072818E+02  0.22831143823E+03  0.00000000000E+00 0.  1.
         22    1    1    2    0    0 -0.92064010313E+03  0.33488332986E+03 -0.14590534012E+04  0.17574304742E+04  0.00000000000E+00 0. -1.
<mgrwt>
<rscale>  0 0.25842177E+04</rscale>
<asrwt>0</asrwt>
<pdfrwt beam="1">  1        1 0.30026583E+00 0.25842177E+04</pdfrwt>
<pdfrwt beam="2">  1       -1 0.13160293E+00 0.25842177E+04</pdfrwt>
<totfact> 0.13931623E+00</totfact>
</mgrwt>
</event>
<event>
 6    1  0.1001928E-005  0.3357169E+04  0.7818608E-02  0.8148499E-01
         -2   -1    0    0    0  501 -0.00000000000E+00  0.00000000000E+00  0.18065079900E+04  0.18065079900E+04  0.00000000000E+00 0.  1.
          2   -1    0    0  501    0  0.00000000000E+00 -0.00000000000E+00 -0.15597196142E+04  0.15597196142E+04  0.00000000000E+00 0. -1.
         23    2    1    2    0    0 -0.36017275157E+03 -0.16198155692E+04  0.36882355341E+03  0.17023707973E+04  0.92242228748E+02 0.  0.
         11    1    3    3    0    0 -0.48833160911E+02 -0.30180314177E+03  0.99959790478E+02  0.32165474301E+03  0.00000000000E+00 0.  1.
        -11    1    3    3    0    0 -0.31133959066E+03 -0.13180124274E+04  0.26886376293E+03  0.13807160543E+04  0.00000000000E+00 0. -1.
         22    1    1    2    0    0  0.36017275157E+03  0.16198155692E+04 -0.12203517765E+03  0.16638568069E+04  0.00000000000E+00 0.  1.
<mgrwt>
<rscale>  0 0.33571690E+04</rscale>
<asrwt>0</asrwt>
<pdfrwt beam="1">  1        2 0.23995687E+00 0.33571690E+04</pdfrwt>
<pdfrwt beam="2">  1       -2 0.27792430E+00 0.33571690E+04</pdfrwt>
<totfact> 0.42342556E-01</totfact>
</mgrwt>
</event>
<event>
 6    1  0.1393300E-005  0.3722907E+04  0.7818608E-02  0.8062904E-01
         -3   -1    0    0    0  501 -0.00000000000E+00  0.00000000000E+00  0.25614198012E+04  0.25614198012E+04  0.00000000000E+00 0.  1.
          3   -1    0    0  501    0  0.00000000000E+00 -0.00000000000E+00 -0.13527687056E+04  0.13527687056E+04  0.00000000000E+00 0. -1.
         23    2    1    2    0    0 -0.66912019282E+03  0.99885655430E+03 -0.88787731433E+03  0.14973998064E+04  0.91890185863E+02 0.  0.
         13    1    3    3    0    0 -0.29850088273E+03  0.36508771972E+03 -0.34918623023E+03  0.58679028917E+03  0.00000000000E+00 0.  1.
        -13    1    3    3    0    0 -0.37061931008E+03  0.63376883458E+03 -0.53869108410E+03  0.91060951718E+03  0.00000000000E+00 0. -1.
         22    1    1    2    0    0  0.66912019282E+03 -0.99885655430E+03  0.20965284100E+04  0.24167887004E+04  0.00000000000E+00 0.  1.
<mgrwt>
<rscale>  0 0.37229067E+04</rscale>
<asrwt>0</asrwt>
<pdfrwt beam="1">  1        3 0.20811826E+00 0.37229067E+04</pdfrwt>
<pdfrwt beam="2">  1       -3 0.39406459E+00 0.37229067E+04</pdfrwt>
<totfact> 0.31115840E-03</totfact>
</mgrwt>
</event>
<event>
 6    1  0.1001928E-005  0.5128843E+04  0.7818608E-02  0.7808934E-01
          2   -1    0    0  501    0  0.00000000000E+00  0.00000000000E+00  0.28128455114E+04  0.28128455114E+04  0.00000000000E+00 0. -1.
         -2   -1    0    0    0  501 -0.00000000000E+00 -0.00000000000E+00 -0.23379380469E+04  0.23379380469E+04  0.00000000000E+00 0.  1.
         23    2    1    2    0    0  0.12017597350E+04  0.41489014907E+03  0.24731984569E+04  0.27823395148E+04  0.91336038211E+02 0.  0.
         13    1    3    3    0    0  0.15618994128E+03  0.86457083490E+02  0.36273906188E+03  0.40428919359E+03  0.00000000000E+00 0. -1.
        -13    1    3    3    0    0  0.10455697937E+04  0.32843306558E+03  0.21104593950E+04  0.23780503212E+04  0.00000000000E+00 0.  1.
         22    1    1    2    0    0 -0.12017597350E+04 -0.41489014907E+03 -0.19982909925E+04  0.23684440435E+04  0.00000000000E+00 0.  1.
<mgrwt>
<rscale>  0 0.51288434E+04</rscale>
<asrwt>0</asrwt>
<pdfrwt beam="1">  1        2 0.43274546E+00 0.51288434E+04</pdfrwt>
<pdfrwt beam="2">  1       -2 0.35968278E+00 0.51288434E+04</pdfrwt>
<totfact> 0.22112682E-02</totfact>
</mgrwt>
</event>
<event>
 6    1  0.1001928E-005  0.9914760E+03  0.7818608E-02  0.9317943E-01
         -1   -1    0    0    0  501 -0.00000000000E+00  0.00000000000E+00  0.41495672795E+03  0.41495672795E+03  0.00000000000E+00 0.  1.
          1   -1    0    0  501    0  0.00000000000E+00 -0.00000000000E+00 -0.59224526484E+03  0.59224526484E+03  0.00000000000E+00 0. -1.
         23    2    1    2    0    0  0.42509860369E+03  0.20631549726E+03  0.48019866002E+02  0.48371485476E+03  0.91647399943E+02 0.  0.
         13    1    3    3    0    0  0.17894915906E+03  0.97974881978E+02 -0.23679565850E+02  0.20538403264E+03  0.00000000000E+00 0.  1.
        -13    1    3    3    0    0  0.24614944463E+03  0.10834061528E+03  0.71699431852E+02  0.27833082212E+03  0.00000000000E+00 0. -1.
         22    1    1    2    0    0 -0.42509860369E+03 -0.20631549726E+03 -0.22530840289E+03  0.52348713803E+03  0.00000000000E+00 0. -1.
<mgrwt>
<rscale>  0 0.99147599E+03</rscale>
<asrwt>0</asrwt>
<pdfrwt beam="1">  1        1 0.91114656E-01 0.99147599E+03</pdfrwt>
<pdfrwt beam="2">  1       -1 0.63839497E-01 0.99147599E+03</pdfrwt>
<totfact> 0.87138042E+01</totfact>
</mgrwt>
</event>
<event>
 6    1  0.1001928E-005  0.2676752E+04  0.7818608E-02  0.8342588E-01
         -1   -1    0    0    0  501 -0.00000000000E+00  0.00000000000E+00  0.91998990139E+03  0.91998990139E+03  0.00000000000E+00 0.  1.
          1   -1    0    0  501    0  0.00000000000E+00 -0.00000000000E+00 -0.19470325894E+04  0.19470325894E+04  0.00000000000E+00 0. -1.
         23    2    1    2    0    0  0.11125506632E+04 -0.44079292176E+03  0.12402208417E+03  0.12065955916E+04  0.91782711944E+02 0.  0.
         11    1    3    3    0    0  0.18112889995E+03 -0.10079660240E+03  0.43449222349E+02  0.21179109607E+03  0.00000000000E+00 0. -1.
        -11    1    3    3    0    0  0.93142176321E+03 -0.33999631936E+03  0.80572861825E+02  0.99480449548E+03  0.00000000000E+00 0.  1.
         22    1    1    2    0    0 -0.11125506632E+04  0.44079292176E+03 -0.11510647722E+04  0.16604268993E+04  0.00000000000E+00 0. -1.
<mgrwt>
<rscale>  0 0.26767520E+04</rscale>
<asrwt>0</asrwt>
<pdfrwt beam="1">  1        1 0.29954347E+00 0.26767520E+04</pdfrwt>
<pdfrwt beam="2">  1       -1 0.14153691E+00 0.26767520E+04</pdfrwt>
<totfact> 0.11534783E+00</totfact>
</mgrwt>
</event>
<event>
 6    1  0.1001928E-005  0.1595104E+04  0.7818608E-02  0.8823562E-01
          4   -1    0    0  501    0  0.00000000000E+00  0.00000000000E+00  0.87231049544E+03  0.87231049544E+03  0.00000000000E+00 0. -1.
         -4   -1    0    0    0  501 -0.00000000000E+00 -0.00000000000E+00 -0.72920003682E+03  0.72920003682E+03  0.00000000000E+00 0.  1.
         23    2    1    2    0    0  0.78290676435E+03 -0.78371567078E+02  0.18566414329E+03  0.81354104029E+03  0.91064515219E+02 0.  0.
         11    1    3    3    0    0  0.59378842941E+03 -0.61210672321E+02  0.10014431332E+03  0.60527706779E+03  0.00000000000E+00 0. -1.
        -11    1    3    3    0    0  0.18911833494E+03 -0.17160894757E+02  0.85519829970E+02  0.20826397249E+03  0.00000000000E+00 0.  1.
         22    1    1    2    0    0 -0.78290676435E+03  0.78371567078E+02 -0.42553684665E+02  0.78796949197E+03  0.00000000000E+00 0. -1.
<mgrwt>
<rscale>  0 0.15951036E+04</rscale>
<asrwt>0</asrwt>
<pdfrwt beam="1">  1        4 0.13420161E+00 0.15951036E+04</pdfrwt>
<pdfrwt beam="2">  1       -4 0.11218462E+00 0.15951036E+04</pdfrwt>
<totfact> 0.47828913E-01</totfact>
</mgrwt>
</event>
<event>
 6    1  0.1001928E-005  0.3553364E+04  0.7818608E-02  0.8101259E-01
         -1   -1    0    0    0  501 -0.00000000000E+00  0.00000000000E+00  0.13995680423E+04  0.13995680423E+04  0.00000000000E+00 0.  1.
          1   -1    0    0  501    0  0.00000000000E+00 -0.00000000000E+00 -0.22554090051E+04  0.22554090051E+04  0.00000000000E+00 0. -1.
         23    2    1    2    0    0 -0.48443349955E+03 -0.50927695589E+03  0.12487549537E+04  0.14361118407E+04  0.94812717754E+02 0.  0.
         13    1    3    3    0    0 -0.42895413587E+03 -0.44966891156E+03  0.10333151126E+04  0.12057959623E+04  0.00000000000E+00 0.  1.
        -13    1    3    3    0    0 -0.55479363680E+02 -0.59608044334E+02  0.21543984110E+03  0.23031587847E+03  0.00000000000E+00 0. -1.
         22    1    1    2    0    0  0.48443349955E+03  0.50927695589E+03 -0.21045959165E+04  0.22188652066E+04  0.00000000000E+00 0. -1.
<mgrwt>
<rscale>  0 0.35533637E+04</rscale>
<asrwt>0</asrwt>
<pdfrwt beam="1">  1        1 0.34698600E+00 0.35533637E+04</pdfrwt>
<pdfrwt beam="2">  1       -1 0.21531816E+00 0.35533637E+04</pdfrwt>
<totfact> 0.19190185E-01</totfact>
</mgrwt>
</event>
<event>
 6    1  0.1001928E-005  0.1703935E+04  0.7818608E-02  0.8759123E-01
          1   -1    0    0  501    0  0.00000000000E+00  0.00000000000E+00  0.94617782734E+03  0.94617782734E+03  0.00000000000E+00 0. -1.
         -1   -1    0    0    0  501 -0.00000000000E+00 -0.00000000000E+00 -0.76713775802E+03  0.76713775802E+03  0.00000000000E+00 0.  1.
         23    2    1    2    0    0 -0.68796281524E+02 -0.64119797559E+03 -0.46532845928E+03  0.80168047583E+03  0.10145559647E+03 0.  0.
         13    1    3    3    0    0 -0.43164787899E+01 -0.46415294833E+03 -0.32157024212E+03  0.56468045128E+03  0.00000000000E+00 0.  1.
        -13    1    3    3    0    0 -0.64479802734E+02 -0.17704502726E+03 -0.14375821716E+03  0.23700002456E+03  0.00000000000E+00 0. -1.
         22    1    1    2    0    0  0.68796281524E+02  0.64119797559E+03  0.64436852861E+03  0.91163510953E+03  0.00000000000E+00 0. -1.
<mgrwt>
<rscale>  0 0.17039351E+04</rscale>
<asrwt>0</asrwt>
<pdfrwt beam="1">  1        1 0.14556582E+00 0.17039351E+04</pdfrwt>
<pdfrwt beam="2">  1       -1 0.11802119E+00 0.17039351E+04</pdfrwt>
<totfact> 0.10240360E+01</totfact>
</mgrwt>
</event>
<event>
 6    1  0.1001928E-005  0.2134574E+04  0.7818608E-02  0.8546164E-01
         -2   -1    0    0    0  501 -0.00000000000E+00  0.00000000000E+00  0.10220301381E+04  0.10220301381E+04  0.00000000000E+00 0.  1.
          2   -1    0    0  501    0  0.00000000000E+00 -0.00000000000E+00 -0.11145480536E+04  0.11145480536E+04  0.00000000000E+00 0. -1.
         23    2    1    2    0    0 -0.79702280488E+02  0.98801118122E+03 -0.43716535808E+03  0.10871495818E+04  0.90896177394E+02 0.  0.
         11    1    3    3    0    0 -0.19429032587E+02  0.37818919244E+03 -0.21408811043E+03  0.43501525446E+03  0.00000000000E+00 0. -1.
        -11    1    3    3    0    0 -0.60273247901E+02  0.60982198879E+03 -0.22307724766E+03  0.65213432730E+03  0.00000000000E+00 0.  1.
         22    1    1    2    0    0  0.79702280488E+02 -0.98801118122E+03  0.34464744255E+03  0.10494286100E+04  0.00000000000E+00 0.  1.
<mgrwt>
<rscale>  0 0.21345742E+04</rscale>
<asrwt>0</asrwt>
<pdfrwt beam="1">  1        2 0.17146893E+00 0.21345742E+04</pdfrwt>
<pdfrwt beam="2">  1       -2 0.15723541E+00 0.21345742E+04</pdfrwt>
<totfact> 0.51794598E+00</totfact>
</mgrwt>
</event>
<event>
 6    1  0.1001928E-005  0.1406141E+04  0.7818608E-02  0.8949385E-01
          1   -1    0    0  501    0  0.00000000000E+00  0.00000000000E+00  0.57732991888E+03  0.57732991888E+03  0.00000000000E+00 0. -1.
         -1   -1    0    0    0  501 -0.00000000000E+00 -0.00000000000E+00 -0.85619687930E+03  0.85619687930E+03  0.00000000000E+00 0.  1.
         23    2    1    2    0    0  0.69814733380E+03 -0.12856074917E+02 -0.88025092993E+02  0.70965139680E+03  0.91003899033E+02 0.  0.
         11    1    3    3    0    0  0.70430574645E+02 -0.44270436195E-02 -0.37453031166E+02  0.79769639638E+02  0.00000000000E+00 0.  1.
        -11    1    3    3    0    0  0.62771675915E+03 -0.12851647873E+02 -0.50572061827E+02  0.62988175717E+03  0.00000000000E+00 0. -1.
         22    1    1    2    0    0 -0.69814733380E+03  0.12856074917E+02 -0.19084186743E+03  0.72387540137E+03  0.00000000000E+00 0.  1.
<mgrwt>
<rscale>  0 0.14061409E+04</rscale>
<asrwt>0</asrwt>
<pdfrwt beam="1">  1        1 0.88819988E-01 0.14061409E+04</pdfrwt>
<pdfrwt beam="2">  1       -1 0.13172260E+00 0.14061409E+04</pdfrwt>
<totfact> 0.17310332E+01</totfact>
</mgrwt>
</event>
<event>
 6    1  0.1001928E-005  0.1435309E+04  0.7818608E-02  0.8928649E-01
         -2   -1    0    0    0  501 -0.00000000000E+00  0.00000000000E+00  0.13406567487E+04  0.13406567487E+04  0.00000000000E+00 0. -1.
          2   -1    0    0  501    0  0.00000000000E+00 -0.00000000000E+00 -0.38416113651E+03  0.38416113651E+03  0.00000000000E+00 0.  1.
         23    2    1    2    0    0 -0.28025013822E+03  0.29468401184E+02 -0.30885779982E+03  0.42846616444E+03  0.93710121730E+02 0.  0.
         13    1    3    3    0    0 -0.28346546942E+03  0.17445706671E+02 -0.29026059304E+03  0.40608895197E+03  0.00000000000E+00 0. -1.
        -13    1    3    3    0    0  0.32153311965E+01  0.12022694513E+02 -0.18597206778E+02  0.22377212472E+02  0.00000000000E+00 0.  1.
         22    1    1    2    0    0  0.28025013822E+03 -0.29468401184E+02  0.12653534120E+04  0.12963517207E+04  0.00000000000E+00 0. -1.
<mgrwt>
<rscale>  0 0.14353093E+04</rscale>
<asrwt>0</asrwt>
<pdfrwt beam="1">  1        2 0.59101714E-01 0.14353093E+04</pdfrwt>
<pdfrwt beam="2">  1       -2 0.20625488E+00 0.14353093E+04</pdfrwt>
<totfact> 0.97737166E+00</totfact>
</mgrwt>
</event>
<event>
 6    1  0.1001928E-005  0.2168497E+04  0.7818608E-02  0.8531656E-01
          1   -1    0    0  501    0  0.00000000000E+00  0.00000000000E+00  0.27847092791E+04  0.27847092791E+04  0.00000000000E+00 0. -1.
         -1   -1    0    0    0  501 -0.00000000000E+00 -0.00000000000E+00 -0.42216084316E+03  0.42216084316E+03  0.00000000000E+00 0.  1.
         23    2    1    2    0    0 -0.57315969180E+03 -0.73763478322E+03  0.37487906135E+03  0.10106354699E+04  0.90733877898E+02 0.  0.
         13    1    3    3    0    0 -0.12206215629E+03 -0.22129634149E+03  0.92362940770E+02  0.26907648278E+03  0.00000000000E+00 0.  1.
        -13    1    3    3    0    0 -0.45109753551E+03 -0.51633844172E+03  0.28251612058E+03  0.74155898709E+03  0.00000000000E+00 0. -1.
         22    1    1    2    0    0  0.57315969180E+03  0.73763478322E+03  0.19876693746E+04  0.21962346524E+04  0.00000000000E+00 0. -1.
<mgrwt>
<rscale>  0 0.21684974E+04</rscale>
<asrwt>0</asrwt>
<pdfrwt beam="1">  1        1 0.42841680E+00 0.21684974E+04</pdfrwt>
<pdfrwt beam="2">  1       -1 0.64947824E-01 0.21684974E+04</pdfrwt>
<totfact> 0.18788832E+00</totfact>
</mgrwt>
</event>
<event>
 6    1  0.1001928E-005  0.2974664E+04  0.7818608E-02  0.8251003E-01
          2   -1    0    0  501    0  0.00000000000E+00  0.00000000000E+00  0.14688857414E+04  0.14688857414E+04  0.00000000000E+00 0. -1.
         -2   -1    0    0    0  501 -0.00000000000E+00 -0.00000000000E+00 -0.15060094291E+04  0.15060094291E+04  0.00000000000E+00 0.  1.
         23    2    1    2    0    0 -0.14820328897E+04 -0.27503768154E+01  0.89234694619E+02  0.14874828230E+04  0.90627076744E+02 0.  0.
         13    1    3    3    0    0 -0.52211109824E+03  0.26253901190E+02  0.65213104825E+02  0.52682256526E+03  0.00000000000E+00 0.  1.
        -13    1    3    3    0    0 -0.95992179150E+03 -0.29004278005E+02  0.24021589794E+02  0.96066025769E+03  0.00000000000E+00 0. -1.
         22    1    1    2    0    0  0.14820328897E+04  0.27503768154E+01 -0.12635838241E+03  0.14874123475E+04  0.00000000000E+00 0.  1.
<mgrwt>
<rscale>  0 0.29746635E+04</rscale>
<asrwt>0</asrwt>
<pdfrwt beam="1">  1        2 0.22598242E+00 0.29746635E+04</pdfrwt>
<pdfrwt beam="2">  1       -2 0.23169376E+00 0.29746635E+04</pdfrwt>
<totfact> 0.94619635E-01</totfact>
</mgrwt>
</event>
<event>
 6    1  0.1001928E-005  0.5279665E+04  0.7818608E-02  0.7786757E-01
          2   -1    0    0  501    0  0.00000000000E+00  0.00000000000E+00  0.24810141661E+04  0.24810141661E+04  0.00000000000E+00 0. -1.
         -2   -1    0    0    0  501 -0.00000000000E+00 -0.00000000000E+00 -0.28088176624E+04  0.28088176624E+04  0.00000000000E+00 0.  1.
         23    2    1    2    0    0 -0.18159773037E+04  0.12940438939E+04  0.12501918538E+04  0.25580938300E+04  0.92418638541E+02 0.  0.
         13    1    3    3    0    0 -0.40278340584E+03  0.28583597015E+03  0.32149568607E+03  0.58931837746E+03  0.00000000000E+00 0. -1.
        -13    1    3    3    0    0 -0.14131938979E+04  0.10082079238E+04  0.92869616775E+03  0.19687754526E+04  0.00000000000E+00 0.  1.
         22    1    1    2    0    0  0.18159773037E+04 -0.12940438939E+04 -0.15779953501E+04  0.27317379984E+04  0.00000000000E+00 0.  1.
<mgrwt>
<rscale>  0 0.52796653E+04</rscale>
<asrwt>0</asrwt>
<pdfrwt beam="1">  1        2 0.38169449E+00 0.52796653E+04</pdfrwt>
<pdfrwt beam="2">  1       -2 0.43212580E+00 0.52796653E+04</pdfrwt>
<totfact> 0.11615827E-02</totfact>
</mgrwt>
</event>
<event>
 6    1  0.1001928E-005  0.5858203E+03  0.7818608E-02  0.9935269E-01
          2   -1    0    0  501    0  0.00000000000E+00  0.00000000000E+00  0.67902038082E+03  0.67902038082E+03  0.00000000000E+00 0. -1.
         -2   -1    0    0    0  501 -0.00000000000E+00 -0.00000000000E+00 -0.12635315264E+03  0.12635315264E+03  0.00000000000E+00 0.  1.
         23    2    1    2    0    0  0.48751301051E+02  0.25947124154E+03  0.13299071215E+03  0.30956067296E+03  0.91865478758E+02 0.  0.
         13    1    3    3    0    0 -0.25692404439E+01  0.59227547194E+02 -0.73059774630E+01  0.59731739048E+02  0.00000000000E+00 0.  1.
        -13    1    3    3    0    0  0.51320541495E+02  0.20024369434E+03  0.14029668962E+03  0.24982893391E+03  0.00000000000E+00 0. -1.
         22    1    1    2    0    0 -0.48751301051E+02 -0.25947124154E+03  0.41967651602E+03  0.49581286050E+03  0.00000000000E+00 0.  1.
<mgrwt>
<rscale>  0 0.58582033E+03</rscale>
<asrwt>0</asrwt>
<pdfrwt beam="1">  1        2 0.10446467E+00 0.58582033E+03</pdfrwt>
<pdfrwt beam="2">  1       -2 0.19438947E-01 0.58582033E+03</pdfrwt>
<totfact> 0.95919138E+02</totfact>
</mgrwt>
</event>
<event>
 6    1  0.1001928E-005  0.2264909E+04  0.7818608E-02  0.8491887E-01
         -2   -1    0    0    0  501 -0.00000000000E+00  0.00000000000E+00  0.37184944797E+03  0.37184944797E+03  0.00000000000E+00 0.  1.
          2   -1    0    0  501    0  0.00000000000E+00 -0.00000000000E+00 -0.34488514135E+04  0.34488514135E+04  0.00000000000E+00 0. -1.
         23    2    1    2    0    0  0.98907794153E+03 -0.49371303822E+03 -0.19409414761E+04  0.22355632731E+04  0.91986932252E+02 0.  0.
         13    1    3    3    0    0  0.51656102442E+03 -0.20675167547E+03 -0.98371676212E+03  0.11301682244E+04  0.00000000000E+00 0. -1.
        -13    1    3    3    0    0  0.47251691711E+03 -0.28696136275E+03 -0.95722471397E+03  0.11053950487E+04  0.00000000000E+00 0.  1.
         22    1    1    2    0    0 -0.98907794153E+03  0.49371303822E+03 -0.11360604894E+04  0.15851375884E+04  0.00000000000E+00 0. -1.
<mgrwt>
<rscale>  0 0.22649093E+04</rscale>
<asrwt>0</asrwt>
<pdfrwt beam="1">  1        2 0.53059254E+00 0.22649093E+04</pdfrwt>
<pdfrwt beam="2">  1       -2 0.57207605E-01 0.22649093E+04</pdfrwt>
<totfact> 0.23036827E+00</totfact>
</mgrwt>
</event>
<event>
 6    1  0.1001928E-005  0.2806043E+04  0.7818608E-02  0.8301395E-01
          2   -1    0    0  501    0  0.00000000000E+00  0.00000000000E+00  0.35062910021E+04  0.35062910021E+04  0.00000000000E+00 0. -1.
         -2   -1    0    0    0  501 -0.00000000000E+00 -0.00000000000E+00 -0.56141078107E+03  0.56141078107E+03  0.00000000000E+00 0.  1.
         23    2    1    2    0    0 -0.61045873440E+03  0.12613037844E+04  0.15148510587E+04  0.20655702920E+04  0.90883431380E+02 0.  0.
         13    1    3    3    0    0 -0.26301494120E+03  0.57552041207E+03  0.62093326053E+03  0.88654312813E+03  0.00000000000E+00 0.  1.
        -13    1    3    3    0    0 -0.34744379320E+03  0.68578337233E+03  0.89391779818E+03  0.11790271639E+04  0.00000000000E+00 0. -1.
         22    1    1    2    0    0  0.61045873440E+03 -0.12613037844E+04  0.14300291623E+04  0.20021314912E+04  0.00000000000E+00 0.  1.
<mgrwt>
<rscale>  0 0.28060432E+04</rscale>
<asrwt>0</asrwt>
<pdfrwt beam="1">  1        2 0.53942937E+00 0.28060432E+04</pdfrwt>
<pdfrwt beam="2">  1       -2 0.86370892E-01 0.28060432E+04</pdfrwt>
<totfact> 0.81293761E-01</totfact>
</mgrwt>
</event>
<event>
 6    1  0.1001928E-005  0.2781593E+04  0.7818608E-02  0.8309006E-01
          1   -1    0    0  501    0  0.00000000000E+00  0.00000000000E+00  0.24467458057E+04  0.24467458057E+04  0.00000000000E+00 0.  1.
         -1   -1    0    0    0  501 -0.00000000000E+00 -0.00000000000E+00 -0.79056618853E+03  0.79056618853E+03  0.00000000000E+00 0. -1.
         23    2    1    2    0    0  0.58083731350E+03 -0.71382196249E+03 -0.38226543044E+03  0.10007583975E+04  0.92069169719E+02 0.  0.
         13    1    3    3    0    0  0.44051733634E+03 -0.51200192066E+03 -0.31883994167E+03  0.74690052803E+03  0.00000000000E+00 0. -1.
        -13    1    3    3    0    0  0.14031997716E+03 -0.20182004183E+03 -0.63425488771E+02  0.25385786948E+03  0.00000000000E+00 0.  1.
         22    1    1    2    0    0 -0.58083731350E+03  0.71382196249E+03  0.20384450476E+04  0.22365535967E+04  0.00000000000E+00 0.  1.
<mgrwt>
<rscale>  0 0.27815927E+04</rscale>
<asrwt>0</asrwt>
<pdfrwt beam="1">  1        1 0.37642243E+00 0.27815927E+04</pdfrwt>
<pdfrwt beam="2">  1       -1 0.12162557E+00 0.27815927E+04</pdfrwt>
<totfact> 0.76563058E-01</totfact>
</mgrwt>
</event>
<event>
 6    1  0.1001928E-005  0.2260494E+04  0.7818608E-02  0.8493663E-01
          2   -1    0    0  501    0  0.00000000000E+00  0.00000000000E+00  0.12320244182E+04  0.12320244182E+04  0.00000000000E+00 0. -1.
         -2   -1    0    0    0  501 -0.00000000000E+00 -0.00000000000E+00 -0.10368775100E+04  0.10368775100E+04  0.00000000000E+00 0.  1.
         23    2    1    2    0    0  0.19350566176E+01 -0.97599515478E+03 -0.47069709332E+03  0.10874119702E+04  0.91316771037E+02 0.  0.
         11    1    3    3    0    0 -0.26690434238E+02 -0.74220010493E+03 -0.32685922177E+03  0.81142487385E+03  0.00000000000E+00 0. -1.
        -11    1    3    3    0    0  0.28625490856E+02 -0.23379504985E+03 -0.14383787156E+03  0.27598709635E+03  0.00000000000E+00 0.  1.
         22    1    1    2    0    0 -0.19350566176E+01  0.97599515478E+03  0.66584400143E+03  0.11814899580E+04  0.00000000000E+00 0. -1.
<mgrwt>
<rscale>  0 0.22604941E+04</rscale>
<asrwt>0</asrwt>
<pdfrwt beam="1">  1        2 0.18954222E+00 0.22604941E+04</pdfrwt>
<pdfrwt beam="2">  1       -2 0.15951962E+00 0.22604941E+04</pdfrwt>
<totfact> 0.41873522E+00</totfact>
</mgrwt>
</event>
<event>
 6    1  0.1001928E-005  0.2931692E+04  0.7818608E-02  0.8263510E-01
         -2   -1    0    0    0  501 -0.00000000000E+00  0.00000000000E+00  0.15271090367E+04  0.15271090367E+04  0.00000000000E+00 0.  1.
          2   -1    0    0  501    0  0.00000000000E+00 -0.00000000000E+00 -0.14070404599E+04  0.14070404599E+04  0.00000000000E+00 0. -1.
         23    2    1    2    0    0 -0.29857148614E+03 -0.59300839271E+03  0.13665686985E+04  0.15218582946E+04  0.87970307387E+02 0.  0.
         11    1    3    3    0    0 -0.14494976273E+03 -0.20251307908E+03  0.46804749985E+03  0.53017963279E+03  0.00000000000E+00 0. -1.
        -11    1    3    3    0    0 -0.15362172341E+03 -0.39049531362E+03  0.89852119863E+03  0.99167866179E+03  0.00000000000E+00 0.  1.
         22    1    1    2    0    0  0.29857148614E+03  0.59300839271E+03 -0.12465001216E+04  0.14122912020E+04  0.00000000000E+00 0. -1.
<mgrwt>
<rscale>  0 0.29316918E+04</rscale>
<asrwt>0</asrwt>
<pdfrwt beam="1">  1        2 0.21646776E+00 0.29316918E+04</pdfrwt>
<pdfrwt beam="2">  1       -2 0.23493985E+00 0.29316918E+04</pdfrwt>
<totfact> 0.98286258E-01</totfact>
</mgrwt>
</event>
<event>
 6    1  0.1001928E-005  0.3104468E+04  0.7818608E-02  0.8214513E-01
         -2   -1    0    0    0  501 -0.00000000000E+00  0.00000000000E+00  0.61935570842E+03  0.61935570842E+03  0.00000000000E+00 0.  1.
          2   -1    0    0  501    0  0.00000000000E+00 -0.00000000000E+00 -0.38902218719E+04  0.38902218719E+04  0.00000000000E+00 0. -1.
         23    2    1    2    0    0 -0.86137114234E+03 -0.86404599724E+03 -0.24681829326E+03  0.12486879392E+04  0.98825955052E+02 0.  0.
         11    1    3    3    0    0 -0.29163968635E+03 -0.30139603988E+03 -0.13255887835E+03  0.43984671846E+03  0.00000000000E+00 0. -1.
        -11    1    3    3    0    0 -0.56973145599E+03 -0.56264995736E+03 -0.11425941491E+03  0.80884122073E+03  0.00000000000E+00 0.  1.
         22    1    1    2    0    0  0.86137114234E+03  0.86404599724E+03 -0.30240478702E+04  0.32608896411E+04  0.00000000000E+00 0. -1.
<mgrwt>
<rscale>  0 0.31044685E+04</rscale>
<asrwt>0</asrwt>
<pdfrwt beam="1">  1        2 0.59849566E+00 0.31044685E+04</pdfrwt>
<pdfrwt beam="2">  1       -2 0.95285495E-01 0.31044685E+04</pdfrwt>
<totfact> 0.32824323E-01</totfact>
</mgrwt>
</event>
<event>
 6    1  0.1001928E-005  0.1888382E+04  0.7818608E-02  0.8660661E-01
         -1   -1    0    0    0  501 -0.00000000000E+00  0.00000000000E+00  0.62046669036E+03  0.62046669036E+03  0.00000000000E+00 0.  1.
          1   -1    0    0  501    0  0.00000000000E+00 -0.00000000000E+00 -0.14368156970E+04  0.14368156970E+04  0.00000000000E+00 0. -1.
         23    2    1    2    0    0  0.47730030609E+03 -0.80109020140E+03 -0.55386805113E+03  0.10885423061E+04  0.92700815291E+02 0.  0.
         13    1    3    3    0    0  0.15665911409E+03 -0.26522302197E+03 -0.13321794222E+03  0.33560743368E+03  0.00000000000E+00 0. -1.
        -13    1    3    3    0    0  0.32064119200E+03 -0.53586717943E+03 -0.42065010891E+03  0.75293487243E+03  0.00000000000E+00 0.  1.
         22    1    1    2    0    0 -0.47730030609E+03  0.80109020140E+03 -0.26248095548E+03  0.96874008122E+03  0.00000000000E+00 0. -1.
<mgrwt>
<rscale>  0 0.18883816E+04</rscale>
<asrwt>0</asrwt>
<pdfrwt beam="1">  1        1 0.22104857E+00 0.18883816E+04</pdfrwt>
<pdfrwt beam="2">  1       -1 0.95456415E-01 0.18883816E+04</pdfrwt>
<totfact> 0.71817595E+00</totfact>
</mgrwt>
</event>
<event>
 6    1  0.1001928E-005  0.2478880E+04  0.7818608E-02  0.8410549E-01
         -2   -1    0    0    0  501 -0.00000000000E+00  0.00000000000E+00  0.65603119719E+03  0.65603119719E+03  0.00000000000E+00 0.  1.
          2   -1    0    0  501    0  0.00000000000E+00 -0.00000000000E+00 -0.23416736005E+04  0.23416736005E+04  0.00000000000E+00 0. -1.
         23    2    1    2    0    0  0.10966549330E+04 -0.27300848186E+03 -0.14544199770E+04  0.18441669857E+04  0.91808107677E+02 0.  0.
         11    1    3    3    0    0  0.55382006359E+03 -0.15694742160E+03 -0.80864681346E+03  0.99260204760E+03  0.00000000000E+00 0. -1.
        -11    1    3    3    0    0  0.54283486941E+03 -0.11606106026E+03 -0.64577316353E+03  0.85156493815E+03  0.00000000000E+00 0.  1.
         22    1    1    2    0    0 -0.10966549330E+04  0.27300848186E+03 -0.23122242637E+03  0.11535378120E+04  0.00000000000E+00 0. -1.
<mgrwt>
<rscale>  0 0.24788795E+04</rscale>
<asrwt>0</asrwt>
<pdfrwt beam="1">  1        2 0.36025748E+00 0.24788795E+04</pdfrwt>
<pdfrwt beam="2">  1       -2 0.10092788E+00 0.24788795E+04</pdfrwt>
<totfact> 0.30986304E+00</totfact>
</mgrwt>
</event>
<event>
 6    1  0.1001928E-005  0.4645024E+04  0.7818608E-02  0.7885728E-01
          2   -1    0    0  501    0  0.00000000000E+00  0.00000000000E+00  0.38448467817E+04  0.38448467817E+04  0.00000000000E+00 0.  1.
         -2   -1    0    0    0  501 -0.00000000000E+00 -0.00000000000E+00 -0.14029325899E+04  0.14029325899E+04  0.00000000000E+00 0. -1.
         23    2    1    2    0    0 -0.19419558811E+04 -0.18313163291E+03  0.26437641102E+04  0.32867915520E+04  0.93702703280E+02 0.  0.
         13    1    3    3    0    0 -0.10619431439E+04 -0.10967350038E+03  0.15235075682E+04  0.18603297632E+04  0.00000000000E+00 0.  1.
        -13    1    3    3    0    0 -0.88001273720E+03 -0.73458132525E+02  0.11202565421E+04  0.14264617888E+04  0.00000000000E+00 0. -1.
         22    1    1    2    0    0  0.19419558811E+04  0.18313163291E+03 -0.20184991839E+03  0.19609878196E+04  0.00000000000E+00 0. -1.
<mgrwt>
<rscale>  0 0.46450235E+04</rscale>
<asrwt>0</asrwt>
<pdfrwt beam="1">  1        2 0.59151489E+00 0.46450235E+04</pdfrwt>
<pdfrwt beam="2">  1       -2 0.21583578E+00 0.46450235E+04</pdfrwt>
<totfact> 0.35574468E-02</totfact>
</mgrwt>
</event>
<event>
 6    1  0.1001928E-005  0.1226459E+04  0.7818608E-02  0.9090008E-01
         -2   -1    0    0    0  501 -0.00000000000E+00  0.00000000000E+00  0.21288023852E+03  0.21288023852E+03  0.00000000000E+00 0. -1.
          2   -1    0    0  501    0  0.00000000000E+00 -0.00000000000E+00 -0.17664867231E+04  0.17664867231E+04  0.00000000000E+00 0.  1.
         23    2    1    2    0    0  0.48821785993E+00  0.92467601755E+02 -0.17535568272E+04  0.17590702634E+04  0.10400072089E+03 0.  0.
         13    1    3    3    0    0  0.69440170485E+01  0.11475675955E+03 -0.15296025213E+04  0.15339169490E+04  0.00000000000E+00 0.  1.
        -13    1    3    3    0    0 -0.64557991885E+01 -0.22289157799E+02 -0.22395430583E+03  0.22515331443E+03  0.00000000000E+00 0. -1.
         22    1    1    2    0    0 -0.48821785993E+00 -0.92467601755E+02  0.19995034258E+03  0.22029669818E+03  0.00000000000E+00 0. -1.
<mgrwt>
<rscale>  0 0.12264585E+04</rscale>
<asrwt>0</asrwt>
<pdfrwt beam="1">  1        2 0.27176718E+00 0.12264585E+04</pdfrwt>
<pdfrwt beam="2">  1       -2 0.32750807E-01 0.12264585E+04</pdfrwt>
<totfact> 0.77138231E+01</totfact>
</mgrwt>
</event>
<event>
 6    1  0.1001928E-005  0.6239782E+03  0.7818608E-02  0.9856871E-01
          1   -1    0    0  501    0  0.00000000000E+00  0.00000000000E+00  0.41148570133E+03  0.41148570133E+03  0.00000000000E+00 0. -1.
         -1   -1    0    0    0  501 -0.00000000000E+00 -0.00000000000E+00 -0.23655061831E+03  0.23655061831E+03  0.00000000000E+00 0.  1.
         23    2    1    2    0    0 -0.29773868541E+03  0.66163019029E+02  0.80974748365E+02  0.32888993572E+03  0.92659646376E+02 0.  0.
         13    1    3    3    0    0 -0.98383419546E+02  0.47174987016E+02  0.67235722701E+02  0.12816169103E+03  0.00000000000E+00 0. -1.
        -13    1    3    3    0    0 -0.19935526587E+03  0.18988032014E+02  0.13739025663E+02  0.20072824469E+03  0.00000000000E+00 0.  1.
         22    1    1    2    0    0  0.29773868541E+03 -0.66163019029E+02  0.93960334663E+02  0.31914638392E+03  0.00000000000E+00 0.  1.
<mgrwt>
<rscale>  0 0.62397820E+03</rscale>
<asrwt>0</asrwt>
<pdfrwt beam="1">  1        1 0.63305493E-01 0.62397820E+03</pdfrwt>
<pdfrwt beam="2">  1       -1 0.36392403E-01 0.62397820E+03</pdfrwt>
<totfact> 0.42283917E+02</totfact>
</mgrwt>
</event>
<event>
 6    1  0.1001928E-005  0.4408758E+04  0.7818608E-02  0.7926808E-01
          2   -1    0    0  501    0  0.00000000000E+00  0.00000000000E+00  0.28071780934E+04  0.28071780934E+04  0.00000000000E+00 0. -1.
         -2   -1    0    0    0  501 -0.00000000000E+00 -0.00000000000E+00 -0.17310221804E+04  0.17310221804E+04  0.00000000000E+00 0.  1.
         23    2    1    2    0    0 -0.11551432425E+04  0.48621591939E+03 -0.13271044335E+04  0.18277718714E+04  0.93712354457E+02 0.  0.
         11    1    3    3    0    0 -0.54922355581E+03  0.18560311087E+03 -0.58280919277E+03  0.82204719098E+03  0.00000000000E+00 0. -1.
        -11    1    3    3    0    0 -0.60591968673E+03  0.30061280852E+03 -0.74429524074E+03  0.10057246804E+04  0.00000000000E+00 0.  1.
         22    1    1    2    0    0  0.11551432425E+04 -0.48621591939E+03  0.24032603465E+04  0.27104284024E+04  0.00000000000E+00 0. -1.
<mgrwt>
<rscale>  0 0.44087583E+04</rscale>
<asrwt>0</asrwt>
<pdfrwt beam="1">  1        2 0.43187355E+00 0.44087583E+04</pdfrwt>
<pdfrwt beam="2">  1       -2 0.26631110E+00 0.44087583E+04</pdfrwt>
<totfact> 0.89186992E-02</totfact>
</mgrwt>
</event>
<event>
 6    1  0.1001928E-005  0.1558652E+04  0.7818608E-02  0.8846360E-01
         -1   -1    0    0    0  501 -0.00000000000E+00  0.00000000000E+00  0.27540706505E+03  0.27540706505E+03  0.00000000000E+00 0.  1.
          1   -1    0    0  501    0  0.00000000000E+00 -0.00000000000E+00 -0.22052781505E+04  0.22052781505E+04  0.00000000000E+00 0. -1.
         23    2    1    2    0    0  0.57598971298E+03  0.40536418533E+03 -0.44692913817E+03  0.83897845390E+03  0.89749202563E+02 0.  0.
         11    1    3    3    0    0  0.24569380648E+03  0.14275387653E+03 -0.13724855881E+03  0.31556502136E+03  0.00000000000E+00 0. -1.
        -11    1    3    3    0    0  0.33029590649E+03  0.26261030881E+03 -0.30968057936E+03  0.52341343255E+03  0.00000000000E+00 0.  1.
         22    1    1    2    0    0 -0.57598971298E+03 -0.40536418533E+03 -0.14829419473E+04  0.16417067617E+04  0.00000000000E+00 0.  1.
<mgrwt>
<rscale>  0 0.15586522E+04</rscale>
<asrwt>0</asrwt>
<pdfrwt beam="1">  1        1 0.33927355E+00 0.15586522E+04</pdfrwt>
<pdfrwt beam="2">  1       -1 0.42370319E-01 0.15586522E+04</pdfrwt>
<totfact> 0.11407043E+01</totfact>
</mgrwt>
</event>
<event>
 6    1  0.1412920E-005  0.3347972E+04  0.7818608E-02  0.8150795E-01
         -2   -1    0    0    0  501 -0.00000000000E+00  0.00000000000E+00  0.13619458084E+04  0.13619458084E+04  0.00000000000E+00 0.  1.
          2   -1    0    0  501    0  0.00000000000E+00 -0.00000000000E+00 -0.20575183129E+04  0.20575183129E+04  0.00000000000E+00 0. -1.
         23    2    1    2    0    0 -0.16185497940E+03  0.14244186628E+04 -0.12281114486E+04  0.18901625526E+04  0.96390786442E+02 0.  0.
         13    1    3    3    0    0 -0.12989357694E+03  0.83758229252E+03 -0.68224751591E+03  0.10880616302E+04  0.00000000000E+00 0. -1.
        -13    1    3    3    0    0 -0.31961402457E+02  0.58683637029E+03 -0.54586393266E+03  0.80210092240E+03  0.00000000000E+00 0.  1.
         22    1    1    2    0    0  0.16185497940E+03 -0.14244186628E+04  0.53253894410E+03  0.15293015688E+04  0.00000000000E+00 0.  1.
<mgrwt>
<rscale>  0 0.33479716E+04</rscale>
<asrwt>0</asrwt>
<pdfrwt beam="1">  1        2 0.31654128E+00 0.33479716E+04</pdfrwt>
<pdfrwt beam="2">  1       -2 0.20953013E+00 0.33479716E+04</pdfrwt>
<totfact> 0.59538054E-01</totfact>
</mgrwt>
</event>
<event>
 6    1  0.1001928E-005  0.2669884E+04  0.7818608E-02  0.8344843E-01
         -1   -1    0    0    0  501 -0.00000000000E+00  0.00000000000E+00  0.10327000151E+04  0.10327000151E+04  0.00000000000E+00 0. -1.
          1   -1    0    0  501    0  0.00000000000E+00 -0.00000000000E+00 -0.17256414862E+04  0.17256414862E+04  0.00000000000E+00 0.  1.
         23    2    1    2    0    0  0.66175406163E+03 -0.10753458731E+04 -0.78608072024E+03  0.14922601040E+04  0.12095509213E+03 0.  0.
         13    1    3    3    0    0  0.95250051087E+02 -0.14601558516E+03 -0.62054476977E+02  0.18505102392E+03  0.00000000000E+00 0. -1.
        -13    1    3    3    0    0  0.56650401054E+03 -0.92933028795E+03 -0.72402624326E+03  0.13072090801E+04  0.00000000000E+00 0.  1.
         22    1    1    2    0    0 -0.66175406163E+03  0.10753458731E+04  0.93139249154E+02  0.12660813973E+04  0.00000000000E+00 0. -1.
<mgrwt>
<rscale>  0 0.26698839E+04</rscale>
<asrwt>0</asrwt>
<pdfrwt beam="1">  1        1 0.26548330E+00 0.26698839E+04</pdfrwt>
<pdfrwt beam="2">  1       -1 0.15887693E+00 0.26698839E+04</pdfrwt>
<totfact> 0.11943920E+00</totfact>
</mgrwt>
</event>
<event>
 6    1  0.1001928E-005  0.3425527E+04  0.7818608E-02  0.8131669E-01
         -1   -1    0    0    0  501 -0.00000000000E+00  0.00000000000E+00  0.19717593136E+04  0.19717593136E+04  0.00000000000E+00 0.  1.
          1   -1    0    0  501    0  0.00000000000E+00 -0.00000000000E+00 -0.14877872828E+04  0.14877872828E+04  0.00000000000E+00 0. -1.
         23    2    1    2    0    0  0.15821668526E+03  0.11529748803E+04  0.15098307196E+04  0.19081699035E+04  0.84498430912E+02 0.  0.
         11    1    3    3    0    0  0.66429858520E+02  0.24103122152E+03  0.30680911114E+03  0.39577873430E+03  0.00000000000E+00 0. -1.
        -11    1    3    3    0    0  0.91786826737E+02  0.91194365875E+03  0.12030216084E+04  0.15123911692E+04  0.00000000000E+00 0.  1.
         22    1    1    2    0    0 -0.15821668526E+03 -0.11529748803E+04 -0.10258586887E+04  0.15513766929E+04  0.00000000000E+00 0. -1.
<mgrwt>
<rscale>  0 0.34255268E+04</rscale>
<asrwt>0</asrwt>
<pdfrwt beam="1">  1        1 0.22889035E+00 0.34255268E+04</pdfrwt>
<pdfrwt beam="2">  1       -1 0.30334759E+00 0.34255268E+04</pdfrwt>
<totfact> 0.17200231E-01</totfact>
</mgrwt>
</event>
<event>
 6    1  0.1029841E-005  0.1217040E+04  0.7818608E-02  0.9098070E-01
         -1   -1    0    0    0  501 -0.00000000000E+00  0.00000000000E+00  0.23407571597E+03  0.23407571597E+03  0.00000000000E+00 0.  1.
          1   -1    0    0  501    0  0.00000000000E+00 -0.00000000000E+00 -0.15819534568E+04  0.15819534568E+04  0.00000000000E+00 0. -1.
         23    2    1    2    0    0 -0.25302786084E+03 -0.52810702845E+03 -0.44117813832E+03  0.73666625833E+03  0.71546450408E+02 0.  0.
         11    1    3    3    0    0 -0.11131494775E+03 -0.27400147321E+03 -0.18377604939E+03  0.34819744577E+03  0.00000000000E+00 0.  1.
        -11    1    3    3    0    0 -0.14171291309E+03 -0.25410555524E+03 -0.25740208893E+03  0.38846881256E+03  0.00000000000E+00 0. -1.
         22    1    1    2    0    0  0.25302786084E+03  0.52810702845E+03 -0.90669960249E+03  0.10793629144E+04  0.00000000000E+00 0.  1.
<mgrwt>
<rscale>  0 0.12170405E+04</rscale>
<asrwt>0</asrwt>
<pdfrwt beam="1">  1        1 0.24337745E+00 0.12170405E+04</pdfrwt>
<pdfrwt beam="2">  1       -1 0.36011649E-01 0.12170405E+04</pdfrwt>
<totfact> 0.41841688E+01</totfact>
</mgrwt>
</event>
<event>
 6    1  0.1001928E-005  0.3471564E+04  0.7818608E-02  0.8120562E-01
         -1   -1    0    0    0  501 -0.00000000000E+00  0.00000000000E+00  0.99855021679E+03  0.99855021679E+03  0.00000000000E+00 0.  1.
          1   -1    0    0  501    0  0.00000000000E+00 -0.00000000000E+00 -0.30173129802E+04  0.30173129802E+04  0.00000000000E+00 0. -1.
         23    2    1    2    0    0  0.14869844088E+04  0.85706270572E+03 -0.72010580097E+03  0.18636111161E+04  0.93887772156E+02 0.  0.
         11    1    3    3    0    0  0.97560686755E+03  0.53441722903E+03 -0.50725294319E+03  0.12225858183E+04  0.00000000000E+00 0. -1.
        -11    1    3    3    0    0  0.51137754129E+03  0.32264547669E+03 -0.21285285778E+03  0.64102529781E+03  0.00000000000E+00 0.  1.
         22    1    1    2    0    0 -0.14869844088E+04 -0.85706270572E+03 -0.12986569624E+04  0.21522520809E+04  0.00000000000E+00 0. -1.
<mgrwt>
<rscale>  0 0.34715636E+04</rscale>
<asrwt>0</asrwt>
<pdfrwt beam="1">  1        1 0.46420199E+00 0.34715636E+04</pdfrwt>
<pdfrwt beam="2">  1       -1 0.15362311E+00 0.34715636E+04</pdfrwt>
<totfact> 0.15513617E-01</totfact>
</mgrwt>
</event>
<event>
 6    1  0.1001928E-005  0.2235432E+04  0.7818608E-02  0.8503823E-01
         -1   -1    0    0    0  501 -0.00000000000E+00  0.00000000000E+00  0.99856190851E+03  0.99856190851E+03  0.00000000000E+00 0.  1.
          1   -1    0    0  501    0  0.00000000000E+00 -0.00000000000E+00 -0.12510886900E+04  0.12510886900E+04  0.00000000000E+00 0. -1.
         23    2    1    2    0    0  0.36343656596E+03  0.57184542904E+03  0.76582995935E+03  0.10264810339E+04  0.89857966471E+02 0.  0.
         13    1    3    3    0    0  0.78793360157E+02  0.17314740573E+03  0.17002460382E+03  0.25514071337E+03  0.00000000000E+00 0. -1.
        -13    1    3    3    0    0  0.28464320580E+03  0.39869802331E+03  0.59580535553E+03  0.77134032053E+03  0.00000000000E+00 0.  1.
         22    1    1    2    0    0 -0.36343656596E+03 -0.57184542904E+03 -0.10183567409E+04  0.12231695646E+04  0.00000000000E+00 0. -1.
<mgrwt>
<rscale>  0 0.22354324E+04</rscale>
<asrwt>0</asrwt>
<pdfrwt beam="1">  1        1 0.19247518E+00 0.22354324E+04</pdfrwt>
<pdfrwt beam="2">  1       -1 0.15362491E+00 0.22354324E+04</pdfrwt>
<totfact> 0.29156608E+00</totfact>
</mgrwt>
</event>
<event>
 6    1  0.1001928E-005  0.4127717E+04  0.7818608E-02  0.7979266E-01
         -2   -1    0    0    0  501 -0.00000000000E+00  0.00000000000E+00  0.16804767054E+04  0.16804767054E+04  0.00000000000E+00 0.  1.
          2   -1    0    0  501    0  0.00000000000E+00 -0.00000000000E+00 -0.25347047128E+04  0.25347047128E+04  0.00000000000E+00 0. -1.
         23    2    1    2    0    0 -0.19343112742E+04 -0.27962224118E+03 -0.11013156454E+04  0.22452065442E+04  0.91145883246E+02 0.  0.
         11    1    3    3    0    0 -0.26296193661E+03 -0.67742924776E+02 -0.14012123873E+03  0.30556839742E+03  0.00000000000E+00 0.  1.
        -11    1    3    3    0    0 -0.16713493376E+04 -0.21187931641E+03 -0.96119440669E+03  0.19396381468E+04  0.00000000000E+00 0. -1.
         22    1    1    2    0    0  0.19343112742E+04  0.27962224118E+03  0.24708763798E+03  0.19699748740E+04  0.00000000000E+00 0.  1.
<mgrwt>
<rscale>  0 0.41277172E+04</rscale>
<asrwt>0</asrwt>
<pdfrwt beam="1">  1        2 0.38995457E+00 0.41277172E+04</pdfrwt>
<pdfrwt beam="2">  1       -2 0.25853488E+00 0.41277172E+04</pdfrwt>
<totfact> 0.14778453E-01</totfact>
</mgrwt>
</event>
<event>
 6    1  0.1001928E-005  0.8934225E+03  0.7818608E-02  0.9433841E-01
          2   -1    0    0  501    0  0.00000000000E+00  0.00000000000E+00  0.35227247558E+03  0.35227247558E+03  0.00000000000E+00 0. -1.
         -2   -1    0    0    0  501 -0.00000000000E+00 -0.00000000000E+00 -0.56646753966E+03  0.56646753966E+03  0.00000000000E+00 0.  1.
         23    2    1    2    0    0  0.64139036654E+02 -0.41413822744E+03  0.36792543827E+02  0.43025350901E+03  0.90222520959E+02 0.  0.
         13    1    3    3    0    0 -0.19264825641E+02 -0.15891910123E+03  0.18092772718E+02  0.16110171529E+03  0.00000000000E+00 0.  1.
        -13    1    3    3    0    0  0.83403862295E+02 -0.25521912620E+03  0.18699771109E+02  0.26915179373E+03  0.00000000000E+00 0. -1.
         22    1    1    2    0    0 -0.64139036654E+02  0.41413822744E+03 -0.25098760790E+03  0.48848650623E+03  0.00000000000E+00 0.  1.
<mgrwt>
<rscale>  0 0.89342246E+03</rscale>
<asrwt>0</asrwt>
<pdfrwt beam="1">  1        2 0.54195766E-01 0.89342246E+03</pdfrwt>
<pdfrwt beam="2">  1       -2 0.87148852E-01 0.89342246E+03</pdfrwt>
<totfact> 0.10483101E+02</totfact>
</mgrwt>
</event>
<event>
 6    1  0.1001928E-005  0.3159335E+04  0.7818608E-02  0.8199640E-01
          1   -1    0    0  501    0  0.00000000000E+00  0.00000000000E+00  0.11995753384E+04  0.11995753384E+04  0.00000000000E+00 0. -1.
         -1   -1    0    0    0  501 -0.00000000000E+00 -0.00000000000E+00 -0.20801939383E+04  0.20801939383E+04  0.00000000000E+00 0.  1.
         23    2    1    2    0    0 -0.85924408912E+03 -0.11250960588E+04  0.28379333192E+03  0.14467399007E+04  0.91521247501E+02 0.  0.
         11    1    3    3    0    0 -0.89925536208E+02 -0.11259077095E+03  0.57488829076E+02  0.15513945093E+03  0.00000000000E+00 0.  1.
        -11    1    3    3    0    0 -0.76931855291E+03 -0.10125052879E+04  0.22630450285E+03  0.12916004498E+04  0.00000000000E+00 0. -1.
         22    1    1    2    0    0  0.85924408912E+03  0.11250960588E+04 -0.11644119318E+04  0.18330293760E+04  0.00000000000E+00 0.  1.
<mgrwt>
<rscale>  0 0.31593350E+04</rscale>
<asrwt>0</asrwt>
<pdfrwt beam="1">  1        1 0.18455005E+00 0.31593350E+04</pdfrwt>
<pdfrwt beam="2">  1       -1 0.32002984E+00 0.31593350E+04</pdfrwt>
<totfact> 0.21958530E-01</totfact>
</mgrwt>
</event>
<event>
 6    1  0.1001928E-005  0.2495379E+04  0.7818608E-02  0.8404634E-01
         -2   -1    0    0    0  501 -0.00000000000E+00  0.00000000000E+00  0.12901519902E+04  0.12901519902E+04  0.00000000000E+00 0.  1.
          2   -1    0    0  501    0  0.00000000000E+00 -0.00000000000E+00 -0.12066242794E+04  0.12066242794E+04  0.00000000000E+00 0. -1.
         23    2    1    2    0    0  0.25098264400E+03 -0.19518353339E+03 -0.11636433642E+04  0.12097158245E+04  0.90871324366E+02 0.  0.
         11    1    3    3    0    0  0.58388987608E+02 -0.16591106427E+02 -0.13412994684E+03  0.14722561369E+03  0.00000000000E+00 0.  1.
        -11    1    3    3    0    0  0.19259365639E+03 -0.17859242696E+03 -0.10295134174E+04  0.10624902108E+04  0.00000000000E+00 0. -1.
         22    1    1    2    0    0 -0.25098264400E+03  0.19518353339E+03  0.12471710749E+04  0.12870604452E+04  0.00000000000E+00 0.  1.
<mgrwt>
<rscale>  0 0.24953787E+04</rscale>
<asrwt>0</asrwt>
<pdfrwt beam="1">  1        2 0.18563450E+00 0.24953787E+04</pdfrwt>
<pdfrwt beam="2">  1       -2 0.19848492E+00 0.24953787E+04</pdfrwt>
<totfact> 0.22788995E+00</totfact>
</mgrwt>
</event>
<event>
 6    1  0.1001928E-005  0.1079732E+04  0.7818608E-02  0.9225175E-01
         -2   -1    0    0    0  501 -0.00000000000E+00  0.00000000000E+00  0.71190766071E+03  0.71190766071E+03  0.00000000000E+00 0.  1.
          2   -1    0    0  501    0  0.00000000000E+00 -0.00000000000E+00 -0.40940056617E+03  0.40940056617E+03  0.00000000000E+00 0. -1.
         23    2    1    2    0    0 -0.77411353929E+02 -0.37686335933E+03  0.53995489798E+03  0.66920207930E+03  0.90893463828E+02 0.  0.
         13    1    3    3    0    0 -0.87780318014E+02 -0.26339609341E+03  0.42253408765E+03  0.50558672993E+03  0.00000000000E+00 0. -1.
        -13    1    3    3    0    0  0.10368964085E+02 -0.11346726592E+03  0.11742081033E+03  0.16361534937E+03  0.00000000000E+00 0.  1.
         22    1    1    2    0    0  0.77411353929E+02  0.37686335933E+03 -0.23744780344E+03  0.45210614758E+03  0.00000000000E+00 0. -1.
<mgrwt>
<rscale>  0 0.10797322E+04</rscale>
<asrwt>0</asrwt>
<pdfrwt beam="1">  1        2 0.62984703E-01 0.10797322E+04</pdfrwt>
<pdfrwt beam="2">  1       -2 0.10952426E+00 0.10797322E+04</pdfrwt>
<totfact> 0.51118890E+01</totfact>
</mgrwt>
</event>
<event>
 6    1  0.1223126E-005  0.2973774E+04  0.7818608E-02  0.8251260E-01
         -2   -1    0    0    0  501 -0.00000000000E+00  0.00000000000E+00  0.11572860901E+04  0.11572860901E+04  0.00000000000E+00 0.  1.
          2   -1    0    0  501    0  0.00000000000E+00 -0.00000000000E+00 -0.19103603957E+04  0.19103603957E+04  0.00000000000E+00 0. -1.
         23    2    1    2    0    0  0.54476626644E+03  0.49981153808E+03 -0.17060614797E+04  0.18615095066E+04  0.89386866932E+02 0.  0.
         11    1    3    3    0    0  0.37906485920E+03  0.37891830612E+03 -0.11482299539E+04  0.12671626878E+04  0.00000000000E+00 0. -1.
        -11    1    3    3    0    0  0.16570140724E+03  0.12089323196E+03 -0.55783152580E+03  0.59434681884E+03  0.00000000000E+00 0.  1.
         22    1    1    2    0    0 -0.54476626644E+03 -0.49981153808E+03  0.95298717406E+03  0.12061369792E+04  0.00000000000E+00 0.  1.
<mgrwt>
<rscale>  0 0.29737744E+04</rscale>
<asrwt>0</asrwt>
<pdfrwt beam="1">  1        2 0.29390160E+00 0.29737744E+04</pdfrwt>
<pdfrwt beam="2">  1       -2 0.17804402E+00 0.29737744E+04</pdfrwt>
<totfact> 0.12027708E+00</totfact>
</mgrwt>
</event>
<event>
 6    1  0.1001928E-005  0.2052757E+04  0.7818608E-02  0.8582344E-01
         -3   -1    0    0    0  501 -0.00000000000E+00  0.00000000000E+00  0.82935679629E+03  0.82935679629E+03  0.00000000000E+00 0.  1.
          3   -1    0    0  501    0  0.00000000000E+00 -0.00000000000E+00 -0.12702051846E+04  0.12702051846E+04  0.00000000000E+00 0. -1.
         23    2    1    2    0    0  0.57198320225E+02 -0.71872702211E+03 -0.96515842634E+03  0.12080793977E+04  0.89915866578E+02 0.  0.
         11    1    3    3    0    0 -0.43367463952E+01 -0.33828850823E+03 -0.39777878541E+03  0.52219333996E+03  0.00000000000E+00 0. -1.
        -11    1    3    3    0    0  0.61535066620E+02 -0.38043851388E+03 -0.56737964093E+03  0.68588605775E+03  0.00000000000E+00 0.  1.
         22    1    1    2    0    0 -0.57198320225E+02  0.71872702211E+03  0.52431003803E+03  0.89148258319E+03  0.00000000000E+00 0.  1.
<mgrwt>
<rscale>  0 0.20527575E+04</rscale>
<asrwt>0</asrwt>
<pdfrwt beam="1">  1        3 0.19541618E+00 0.20527575E+04</pdfrwt>
<pdfrwt beam="2">  1       -3 0.12759335E+00 0.20527575E+04</pdfrwt>
<totfact> 0.18501746E-01</totfact>
</mgrwt>
</event>
<event>
 6    1  0.1001928E-005  0.4233620E+04  0.7818608E-02  0.7959008E-01
         -2   -1    0    0    0  501 -0.00000000000E+00  0.00000000000E+00  0.20927449966E+04  0.20927449966E+04  0.00000000000E+00 0.  1.
          2   -1    0    0  501    0  0.00000000000E+00 -0.00000000000E+00 -0.21411514647E+04  0.21411514647E+04  0.00000000000E+00 0. -1.
         23    2    1    2    0    0 -0.11502777035E+04  0.77063522939E+03  0.15757745501E+04  0.20996562144E+04  0.92050713542E+02 0.  0.
         11    1    3    3    0    0 -0.52818904022E+03  0.38152960664E+03  0.68110640696E+03  0.94257861240E+03  0.00000000000E+00 0. -1.
        -11    1    3    3    0    0 -0.62208866329E+03  0.38910562275E+03  0.89466814315E+03  0.11570776020E+04  0.00000000000E+00 0.  1.
         22    1    1    2    0    0  0.11502777035E+04 -0.77063522939E+03 -0.16241810181E+04  0.21342402469E+04  0.00000000000E+00 0. -1.
<mgrwt>
<rscale>  0 0.42336197E+04</rscale>
<asrwt>0</asrwt>
<pdfrwt beam="1">  1        2 0.32940792E+00 0.42336197E+04</pdfrwt>
<pdfrwt beam="2">  1       -2 0.32196077E+00 0.42336197E+04</pdfrwt>
<totfact> 0.10044503E-01</totfact>
</mgrwt>
</event>
<event>
 6    1  0.1001928E-005  0.9593416E+03  0.7818608E-02  0.9354298E-01
          2   -1    0    0  501    0  0.00000000000E+00  0.00000000000E+00  0.34319437773E+04  0.34319437773E+04  0.00000000000E+00 0. -1.
         -2   -1    0    0    0  501 -0.00000000000E+00 -0.00000000000E+00 -0.67041909203E+02  0.67041909203E+02  0.00000000000E+00 0.  1.
         23    2    1    2    0    0 -0.39999547111E+02 -0.38616780015E+03  0.26982972417E+04  0.27275666942E+04  0.89925155044E+02 0.  0.
         11    1    3    3    0    0  0.51070265212E+01 -0.70354620702E+02  0.30208202078E+03  0.31020864213E+03  0.00000000000E+00 0. -1.
        -11    1    3    3    0    0 -0.45106573632E+02 -0.31581317945E+03  0.23962152209E+04  0.24173580521E+04  0.00000000000E+00 0.  1.
         22    1    1    2    0    0  0.39999547111E+02  0.38616780015E+03  0.66660462644E+03  0.77141899227E+03  0.00000000000E+00 0. -1.
<mgrwt>
<rscale>  0 0.95934157E+03</rscale>
<asrwt>0</asrwt>
<pdfrwt beam="1">  1        2 0.52799122E+00 0.95934157E+03</pdfrwt>
<pdfrwt beam="2">  1       -2 0.10314143E-01 0.95934157E+03</pdfrwt>
<totfact> 0.61766368E+01</totfact>
</mgrwt>
</event>
<event>
 6    1  0.1001928E-005  0.4275630E+04  0.7818608E-02  0.7951140E-01
         -2   -1    0    0    0  501 -0.00000000000E+00  0.00000000000E+00  0.17377400715E+04  0.17377400715E+04  0.00000000000E+00 0.  1.
          2   -1    0    0  501    0  0.00000000000E+00 -0.00000000000E+00 -0.26299984325E+04  0.26299984325E+04  0.00000000000E+00 0. -1.
         23    2    1    2    0    0 -0.18132055235E+04  0.10948587869E+04 -0.73476345857E+03  0.22437717721E+04  0.90578095815E+02 0.  0.
         13    1    3    3    0    0 -0.83949169127E+03  0.46513138842E+03 -0.36182050052E+03  0.10256742089E+04  0.00000000000E+00 0. -1.
        -13    1    3    3    0    0 -0.97371383225E+03  0.62972739850E+03 -0.37294295805E+03  0.12180975632E+04  0.00000000000E+00 0.  1.
         22    1    1    2    0    0  0.18132055235E+04 -0.10948587869E+04 -0.15749490238E+03  0.21239667319E+04  0.00000000000E+00 0. -1.
<mgrwt>
<rscale>  0 0.42756303E+04</rscale>
<asrwt>0</asrwt>
<pdfrwt beam="1">  1        2 0.40461514E+00 0.42756303E+04</pdfrwt>
<pdfrwt beam="2">  1       -2 0.26734463E+00 0.42756303E+04</pdfrwt>
<totfact> 0.11341586E-01</totfact>
</mgrwt>
</event>
<event>
 6    1  0.1001928E-005  0.3727057E+04  0.7818608E-02  0.8061992E-01
         -1   -1    0    0    0  501 -0.00000000000E+00  0.00000000000E+00  0.11634109078E+04  0.11634109078E+04  0.00000000000E+00 0.  1.
          1   -1    0    0  501    0  0.00000000000E+00 -0.00000000000E+00 -0.29849626722E+04  0.29849626722E+04  0.00000000000E+00 0. -1.
         23    2    1    2    0    0 -0.53471060297E+03 -0.16621358892E+04 -0.19000731236E+03  0.17586981958E+04  0.91134089695E+02 0.  0.
         11    1    3    3    0    0 -0.20054176937E+03 -0.50698214613E+03 -0.82054362503E+02  0.55134455304E+03  0.00000000000E+00 0.  1.
        -11    1    3    3    0    0 -0.33416883360E+03 -0.11551537430E+04 -0.10795294986E+03  0.12073536428E+04  0.00000000000E+00 0. -1.
         22    1    1    2    0    0  0.53471060297E+03  0.16621358892E+04 -0.16315444520E+04  0.23896753842E+04  0.00000000000E+00 0. -1.
<mgrwt>
<rscale>  0 0.37270568E+04</rscale>
<asrwt>0</asrwt>
<pdfrwt beam="1">  1        1 0.45922502E+00 0.37270568E+04</pdfrwt>
<pdfrwt beam="2">  1       -1 0.17898630E+00 0.37270568E+04</pdfrwt>
<totfact> 0.10379475E-01</totfact>
</mgrwt>
</event>
<event>
 6    1  0.1001928E-005  0.2498377E+04  0.7818608E-02  0.8403564E-01
          1   -1    0    0  501    0  0.00000000000E+00  0.00000000000E+00  0.21355922760E+04  0.21355922760E+04  0.00000000000E+00 0. -1.
         -1   -1    0    0    0  501 -0.00000000000E+00 -0.00000000000E+00 -0.73069724431E+03  0.73069724431E+03  0.00000000000E+00 0.  1.
         23    2    1    2    0    0  0.11422119569E+04  0.47086180069E+03  0.51246019987E+03  0.13422163860E+04  0.11211770850E+03 0.  0.
         11    1    3    3    0    0  0.94973837208E+03  0.34840419199E+03  0.43643305814E+03  0.11017541789E+04  0.00000000000E+00 0.  1.
        -11    1    3    3    0    0  0.19247358480E+03  0.12245760870E+03  0.76027141736E+02  0.24046220712E+03  0.00000000000E+00 0. -1.
         22    1    1    2    0    0 -0.11422119569E+04 -0.47086180069E+03  0.89243483181E+03  0.15240731343E+04  0.00000000000E+00 0. -1.
<mgrwt>
<rscale>  0 0.24983766E+04</rscale>
<asrwt>0</asrwt>
<pdfrwt beam="1">  1        1 0.32855265E+00 0.24983766E+04</pdfrwt>
<pdfrwt beam="2">  1       -1 0.11241496E+00 0.24983766E+04</pdfrwt>
<totfact> 0.15518137E+00</totfact>
</mgrwt>
</event>
<event>
 6    1  0.1001928E-005  0.5904502E+03  0.7818608E-02  0.9925419E-01
          2   -1    0    0  501    0  0.00000000000E+00  0.00000000000E+00  0.66792758449E+03  0.66792758449E+03  0.00000000000E+00 0. -1.
         -2   -1    0    0    0  501 -0.00000000000E+00 -0.00000000000E+00 -0.13048997681E+03  0.13048997681E+03  0.00000000000E+00 0.  1.
         23    2    1    2    0    0 -0.24558383088E+03  0.14673130130E+03  0.21823538964E+03  0.36977837881E+03  0.85251811560E+02 0.  0.
         13    1    3    3    0    0 -0.20420697812E+03  0.14879157489E+03  0.16279407692E+03  0.30056835189E+03  0.00000000000E+00 0.  1.
        -13    1    3    3    0    0 -0.41376852754E+02 -0.20602735967E+01  0.55441312713E+02  0.69210026921E+02  0.00000000000E+00 0. -1.
         22    1    1    2    0    0  0.24558383088E+03 -0.14673130130E+03  0.31920221804E+03  0.42863918250E+03  0.00000000000E+00 0. -1.
<mgrwt>
<rscale>  0 0.59045018E+03</rscale>
<asrwt>0</asrwt>
<pdfrwt beam="1">  1        2 0.10275809E+00 0.59045018E+03</pdfrwt>
<pdfrwt beam="2">  1       -2 0.20075381E-01 0.59045018E+03</pdfrwt>
<totfact> 0.92551818E+02</totfact>
</mgrwt>
</event>
<event>
 6    1  0.1001928E-005  0.3856841E+04  0.7818608E-02  0.8034066E-01
         -2   -1    0    0    0  501 -0.00000000000E+00  0.00000000000E+00  0.10578306946E+04  0.10578306946E+04  0.00000000000E+00 0.  1.
          2   -1    0    0  501    0  0.00000000000E+00 -0.00000000000E+00 -0.35155013047E+04  0.35155013047E+04  0.00000000000E+00 0. -1.
         23    2    1    2    0    0  0.15112368328E+04 -0.73474226139E+03 -0.23488156250E+04  0.28894280938E+04  0.90426287482E+02 0.  0.
         11    1    3    3    0    0  0.54404524465E+03 -0.21991743357E+03 -0.84642806568E+03  0.10299462977E+04  0.00000000000E+00 0.  1.
        -11    1    3    3    0    0  0.96719158813E+03 -0.51482482782E+03 -0.15023875593E+04  0.18594817960E+04  0.00000000000E+00 0. -1.
         22    1    1    2    0    0 -0.15112368328E+04  0.73474226139E+03 -0.10885498518E+03  0.16839039056E+04  0.00000000000E+00 0. -1.
<mgrwt>
<rscale>  0 0.38568408E+04</rscale>
<asrwt>0</asrwt>
<pdfrwt beam="1">  1        2 0.54084636E+00 0.38568408E+04</pdfrwt>
<pdfrwt beam="2">  1       -2 0.16274318E+00 0.38568408E+04</pdfrwt>
<totfact> 0.15187167E-01</totfact>
</mgrwt>
</event>
<event>
 6    1  0.1001928E-005  0.5653808E+04  0.7818608E-02  0.7734873E-01
          2   -1    0    0  501    0  0.00000000000E+00  0.00000000000E+00  0.18686076138E+04  0.18686076138E+04  0.00000000000E+00 0. -1.
         -2   -1    0    0    0  501 -0.00000000000E+00 -0.00000000000E+00 -0.42766524637E+04  0.42766524637E+04  0.00000000000E+00 0.  1.
         23    2    1    2    0    0  0.18774695444E+04  0.14592090051E+04  0.45578620783E+03  0.24229340389E+04  0.93195916879E+02 0.  0.
         13    1    3    3    0    0  0.11506857321E+04  0.93509253097E+03  0.31631416039E+03  0.15160904800E+04  0.00000000000E+00 0. -1.
        -13    1    3    3    0    0  0.72678381235E+03  0.52411647409E+03  0.13947204744E+03  0.90684355891E+03  0.00000000000E+00 0.  1.
         22    1    1    2    0    0 -0.18774695444E+04 -0.14592090051E+04 -0.28638310577E+04  0.37223260386E+04  0.00000000000E+00 0.  1.
<mgrwt>
<rscale>  0 0.56538077E+04</rscale>
<asrwt>0</asrwt>
<pdfrwt beam="1">  1        2 0.28747810E+00 0.56538077E+04</pdfrwt>
<pdfrwt beam="2">  1       -2 0.65794652E+00 0.56538077E+04</pdfrwt>
<totfact> 0.17573495E-03</totfact>
</mgrwt>
</event>
<event>
 6    1  0.1001928E-005  0.2953170E+04  0.7818608E-02  0.8257231E-01
         -2   -1    0    0    0  501 -0.00000000000E+00  0.00000000000E+00  0.83650915823E+03  0.83650915823E+03  0.00000000000E+00 0.  1.
          2   -1    0    0  501    0  0.00000000000E+00 -0.00000000000E+00 -0.26064301551E+04  0.26064301551E+04  0.00000000000E+00 0. -1.
         23    2    1    2    0    0 -0.62125188391E+03 -0.13167224198E+04 -0.11617243772E+04  0.18650879381E+04  0.96112715294E+02 0.  0.
         13    1    3    3    0    0 -0.13727064632E+03 -0.34807528290E+03 -0.25543785418E+03  0.45304318807E+03  0.00000000000E+00 0.  1.
        -13    1    3    3    0    0 -0.48398123758E+03 -0.96864713693E+03 -0.90628652306E+03  0.14120447500E+04  0.00000000000E+00 0. -1.
         22    1    1    2    0    0  0.62125188391E+03  0.13167224198E+04 -0.60819661960E+03  0.15778513752E+04  0.00000000000E+00 0.  1.
<mgrwt>
<rscale>  0 0.29531696E+04</rscale>
<asrwt>0</asrwt>
<pdfrwt beam="1">  1        2 0.40098925E+00 0.29531696E+04</pdfrwt>
<pdfrwt beam="2">  1       -2 0.12869372E+00 0.29531696E+04</pdfrwt>
<totfact> 0.11547055E+00</totfact>
</mgrwt>
</event>
<event>
 6    1  0.1001928E-005  0.9539849E+03  0.7818608E-02  0.9360505E-01
         -3   -1    0    0    0  501 -0.00000000000E+00  0.00000000000E+00  0.12565646189E+04  0.12565646189E+04  0.00000000000E+00 0.  1.
          3   -1    0    0  501    0  0.00000000000E+00 -0.00000000000E+00 -0.18106652875E+03  0.18106652875E+03  0.00000000000E+00 0. -1.
         23    2    1    2    0    0 -0.48669650652E+02  0.26575627905E+03 -0.41375043551E+02  0.28854423556E+03  0.92470248712E+02 0.  0.
         13    1    3    3    0    0 -0.55106214753E+02  0.14039713661E+03 -0.58670339607E+02  0.16183404964E+03  0.00000000000E+00 0. -1.
        -13    1    3    3    0    0  0.64365641008E+01  0.12535914244E+03  0.17295296055E+02  0.12671018592E+03  0.00000000000E+00 0.  1.
         22    1    1    2    0    0  0.48669650652E+02 -0.26575627905E+03  0.11168731337E+04  0.11490869121E+04  0.00000000000E+00 0.  1.
<mgrwt>
<rscale>  0 0.95398489E+03</rscale>
<asrwt>0</asrwt>
<pdfrwt beam="1">  1        3 0.27856390E-01 0.95398489E+03</pdfrwt>
<pdfrwt beam="2">  1       -3 0.19331763E+00 0.95398489E+03</pdfrwt>
<totfact> 0.53002585E+00</totfact>
</mgrwt>
</event>
<event>
 6    1  0.1001928E-005  0.3631469E+04  0.7818608E-02  0.8083321E-01
          2   -1    0    0  501    0  0.00000000000E+00  0.00000000000E+00  0.30026291790E+04  0.30026291790E+04  0.00000000000E+00 0.  1.
         -2   -1    0    0    0  501 -0.00000000000E+00 -0.00000000000E+00 -0.10980014332E+04  0.10980014332E+04  0.00000000000E+00 0. -1.
         23    2    1    2    0    0  0.95603961637E+03  0.39884619126E+03  0.26352918139E+04  0.28329713469E+04  0.88733735456E+02 0.  0.
         11    1    3    3    0    0  0.50057236296E+03  0.25673118696E+03  0.14235126387E+04  0.15306442518E+04  0.00000000000E+00 0. -1.
        -11    1    3    3    0    0  0.45546725342E+03  0.14211500430E+03  0.12117791752E+04  0.13023270952E+04  0.00000000000E+00 0.  1.
         22    1    1    2    0    0 -0.95603961637E+03 -0.39884619126E+03 -0.73066406806E+03  0.12676592652E+04  0.00000000000E+00 0. -1.
<mgrwt>
<rscale>  0 0.36314687E+04</rscale>
<asrwt>0</asrwt>
<pdfrwt beam="1">  1        2 0.46194295E+00 0.36314687E+04</pdfrwt>
<pdfrwt beam="2">  1       -2 0.16892330E+00 0.36314687E+04</pdfrwt>
<totfact> 0.30568807E-01</totfact>
</mgrwt>
</event>
<event>
 6    1  0.1093716E-005  0.3243124E+04  0.7818608E-02  0.8177520E-01
          1   -1    0    0  501    0  0.00000000000E+00  0.00000000000E+00  0.22553126060E+04  0.22553126060E+04  0.00000000000E+00 0. -1.
         -1   -1    0    0    0  501 -0.00000000000E+00 -0.00000000000E+00 -0.11658972927E+04  0.11658972927E+04  0.00000000000E+00 0.  1.
         23    2    1    2    0    0 -0.40941692527E+03 -0.94105252478E+03  0.18679461517E+04  0.21330669178E+04  0.86888301472E+02 0.  0.
         11    1    3    3    0    0 -0.18900935630E+03 -0.53451774289E+03  0.10629728209E+04  0.12047177978E+04  0.00000000000E+00 0. -1.
        -11    1    3    3    0    0 -0.22040756897E+03 -0.40653478190E+03  0.80497333077E+03  0.92834912000E+03  0.00000000000E+00 0.  1.
         22    1    1    2    0    0  0.40941692527E+03  0.94105252478E+03 -0.77853083836E+03  0.12881429810E+04  0.00000000000E+00 0.  1.
<mgrwt>
<rscale>  0 0.32431237E+04</rscale>
<asrwt>0</asrwt>
<pdfrwt beam="1">  1        1 0.34697117E+00 0.32431237E+04</pdfrwt>
<pdfrwt beam="2">  1       -1 0.17936881E+00 0.32431237E+04</pdfrwt>
<totfact> 0.35004842E-01</totfact>
</mgrwt>
</event>
<event>
 6    1  0.1001928E-005  0.2117184E+04  0.7818608E-02  0.8553711E-01
          2   -1    0    0  501    0  0.00000000000E+00  0.00000000000E+00  0.30464872613E+04  0.30464872613E+04  0.00000000000E+00 0. -1.
         -2   -1    0    0    0  501 -0.00000000000E+00 -0.00000000000E+00 -0.36783891563E+03  0.36783891563E+03  0.00000000000E+00 0.  1.
         23    2    1    2    0    0 -0.30480674226E+03  0.49469468834E+03  0.27650159265E+04  0.28268831211E+04  0.91242104845E+02 0.  0.
         13    1    3    3    0    0 -0.57016494568E+02  0.75955972264E+02  0.31441968573E+03  0.32845080172E+03  0.00000000000E+00 0. -1.
        -13    1    3    3    0    0 -0.24779024769E+03  0.41873871608E+03  0.24505962408E+04  0.24984323194E+04  0.00000000000E+00 0.  1.
         22    1    1    2    0    0  0.30480674226E+03 -0.49469468834E+03 -0.86367580856E+02  0.58744305581E+03  0.00000000000E+00 0.  1.
<mgrwt>
<rscale>  0 0.21171836E+04</rscale>
<asrwt>0</asrwt>
<pdfrwt beam="1">  1        2 0.46869033E+00 0.21171836E+04</pdfrwt>
<pdfrwt beam="2">  1       -2 0.56590604E-01 0.21171836E+04</pdfrwt>
<totfact> 0.43958208E+00</totfact>
</mgrwt>
</event>
<event>
 6    1  0.1001928E-005  0.1903482E+04  0.7818608E-02  0.8653125E-01
         -2   -1    0    0    0  501 -0.00000000000E+00  0.00000000000E+00  0.41562111059E+03  0.41562111059E+03  0.00000000000E+00 0. -1.
          2   -1    0    0  501    0  0.00000000000E+00 -0.00000000000E+00 -0.21794140774E+04  0.21794140774E+04  0.00000000000E+00 0.  1.
         23    2    1    2    0    0 -0.73014604934E+02 -0.94161413501E+03 -0.10136746205E+04  0.13889481906E+04  0.98349011946E+02 0.  0.
         11    1    3    3    0    0 -0.81503728327E+02 -0.42996170406E+03 -0.48172586530E+03  0.65082235210E+03  0.00000000000E+00 0. -1.
        -11    1    3    3    0    0  0.84891233930E+01 -0.51165243095E+03 -0.53194875521E+03  0.73812583852E+03  0.00000000000E+00 0.  1.
         22    1    1    2    0    0  0.73014604934E+02  0.94161413501E+03 -0.75011834632E+03  0.12060869974E+04  0.00000000000E+00 0. -1.
<mgrwt>
<rscale>  0 0.19034815E+04</rscale>
<asrwt>0</asrwt>
<pdfrwt beam="1">  1        2 0.33529447E+00 0.19034815E+04</pdfrwt>
<pdfrwt beam="2">  1       -2 0.63941709E-01 0.19034815E+04</pdfrwt>
<totfact> 0.11230907E+01</totfact>
</mgrwt>
</event>
<event>
 6    1  0.1001928E-005  0.3086942E+04  0.7818608E-02  0.8219331E-01
          2   -1    0    0  501    0  0.00000000000E+00  0.00000000000E+00  0.25173509782E+04  0.25173509782E+04  0.00000000000E+00 0. -1.
         -2   -1    0    0    0  501 -0.00000000000E+00 -0.00000000000E+00 -0.94635293529E+03  0.94635293529E+03  0.00000000000E+00 0.  1.
         23    2    1    2    0    0 -0.61491624659E+03  0.14075140862E+04  0.63009038793E+03  0.16624473775E+04  0.86599612036E+02 0.  0.
         11    1    3    3    0    0 -0.17548380804E+03  0.49785335341E+03  0.20071959502E+03  0.56474851413E+03  0.00000000000E+00 0.  1.
        -11    1    3    3    0    0 -0.43943243855E+03  0.90966073280E+03  0.42937079291E+03  0.10976988634E+04  0.00000000000E+00 0. -1.
         22    1    1    2    0    0  0.61491624659E+03 -0.14075140862E+04  0.94090765496E+03  0.18012565360E+04  0.00000000000E+00 0. -1.
<mgrwt>
<rscale>  0 0.30869418E+04</rscale>
<asrwt>0</asrwt>
<pdfrwt beam="1">  1        2 0.38728476E+00 0.30869418E+04</pdfrwt>
<pdfrwt beam="2">  1       -2 0.14559276E+00 0.30869418E+04</pdfrwt>
<totfact> 0.93695119E-01</totfact>
</mgrwt>
</event>
<event>
 6    1  0.1001928E-005  0.3362298E+04  0.7818608E-02  0.8147222E-01
          1   -1    0    0  501    0  0.00000000000E+00  0.00000000000E+00  0.13753782230E+04  0.13753782230E+04  0.00000000000E+00 0. -1.
         -1   -1    0    0    0  501 -0.00000000000E+00 -0.00000000000E+00 -0.20548977784E+04  0.20548977784E+04  0.00000000000E+00 0.  1.
         23    2    1    2    0    0 -0.16873989655E+03 -0.10383819980E+04  0.99615951560E+03  0.14517384922E+04  0.92198388230E+02 0.  0.
         11    1    3    3    0    0 -0.68526453371E+02 -0.47410934359E+03  0.51593076936E+03  0.70403132265E+03  0.00000000000E+00 0.  1.
        -11    1    3    3    0    0 -0.10021344318E+03 -0.56427265441E+03  0.48022874623E+03  0.74770716957E+03  0.00000000000E+00 0. -1.
         22    1    1    2    0    0  0.16873989655E+03  0.10383819980E+04 -0.16756790709E+04  0.19785375092E+04  0.00000000000E+00 0.  1.
<mgrwt>
<rscale>  0 0.33622978E+04</rscale>
<asrwt>0</asrwt>
<pdfrwt beam="1">  1        1 0.21159665E+00 0.33622978E+04</pdfrwt>
<pdfrwt beam="2">  1       -1 0.31613812E+00 0.33622978E+04</pdfrwt>
<totfact> 0.17111854E-01</totfact>
</mgrwt>
</event>
<event>
 6    1  0.1001928E-005  0.1663504E+04  0.7818608E-02  0.8782458E-01
         -1   -1    0    0    0  501 -0.00000000000E+00  0.00000000000E+00  0.11362381176E+04  0.11362381176E+04  0.00000000000E+00 0.  1.
          1   -1    0    0  501    0  0.00000000000E+00 -0.00000000000E+00 -0.60886110156E+03  0.60886110156E+03  0.00000000000E+00 0. -1.
         23    2    1    2    0    0 -0.55558494703E+03 -0.26878905899E+03  0.84543790489E+03  0.10507758647E+04  0.91882942663E+02 0.  0.
         13    1    3    3    0    0 -0.17668619283E+03 -0.13418237238E+03  0.29569253810E+03  0.36967147156E+03  0.00000000000E+00 0.  1.
        -13    1    3    3    0    0 -0.37889875420E+03 -0.13460668661E+03  0.54974536678E+03  0.68110439311E+03  0.00000000000E+00 0. -1.
         22    1    1    2    0    0  0.55558494703E+03  0.26878905899E+03 -0.31806088884E+03  0.69432335450E+03  0.00000000000E+00 0. -1.
<mgrwt>
<rscale>  0 0.16635038E+04</rscale>
<asrwt>0</asrwt>
<pdfrwt beam="1">  1        1 0.93670939E-01 0.16635038E+04</pdfrwt>
<pdfrwt beam="2">  1       -1 0.17480586E+00 0.16635038E+04</pdfrwt>
<totfact> 0.72613981E+00</totfact>
</mgrwt>
</event>
<event>
 6    1  0.1001928E-005  0.3024375E+04  0.7818608E-02  0.8236805E-01
          2   -1    0    0  501    0  0.00000000000E+00  0.00000000000E+00  0.20944629216E+04  0.20944629216E+04  0.00000000000E+00 0. -1.
         -2   -1    0    0    0  501 -0.00000000000E+00 -0.00000000000E+00 -0.10917887721E+04  0.10917887721E+04  0.00000000000E+00 0.  1.
         23    2    1    2    0    0 -0.14631794081E+04 -0.61759495857E+02  0.89265684924E+03  0.17176428207E+04  0.93554227308E+02 0.  0.
         11    1    3    3    0    0 -0.63696054894E+03  0.10986182336E+02  0.41924069764E+03  0.76262848076E+03  0.00000000000E+00 0. -1.
        -11    1    3    3    0    0 -0.82621885916E+03 -0.72745678193E+02  0.47341615160E+03  0.95501433995E+03  0.00000000000E+00 0.  1.
         22    1    1    2    0    0  0.14631794081E+04  0.61759495857E+02  0.11001730024E+03  0.14686088730E+04  0.00000000000E+00 0.  1.
<mgrwt>
<rscale>  0 0.30243750E+04</rscale>
<asrwt>0</asrwt>
<pdfrwt beam="1">  1        2 0.32222506E+00 0.30243750E+04</pdfrwt>
<pdfrwt beam="2">  1       -2 0.16796750E+00 0.30243750E+04</pdfrwt>
<totfact> 0.11142372E+00</totfact>
</mgrwt>
</event>
<event>
 6    1  0.1001928E-005  0.2422331E+04  0.7818608E-02  0.8431190E-01
         -1   -1    0    0    0  501 -0.00000000000E+00  0.00000000000E+00  0.17430828071E+04  0.17430828071E+04  0.00000000000E+00 0.  1.
          1   -1    0    0  501    0  0.00000000000E+00 -0.00000000000E+00 -0.84156732389E+03  0.84156732389E+03  0.00000000000E+00 0. -1.
         23    2    1    2    0    0  0.75697660212E+03 -0.72165942653E+03  0.10996506711E+04  0.15201955961E+04  0.89202847070E+02 0.  0.
         13    1    3    3    0    0  0.49327876083E+03 -0.41038169866E+03  0.66735885720E+03  0.92579961048E+03  0.00000000000E+00 0.  1.
        -13    1    3    3    0    0  0.26369784129E+03 -0.31127772787E+03  0.43229181393E+03  0.59439598565E+03  0.00000000000E+00 0. -1.
         22    1    1    2    0    0 -0.75697660212E+03  0.72165942653E+03 -0.19813518794E+03  0.10644545348E+04  0.00000000000E+00 0. -1.
<mgrwt>
<rscale>  0 0.24223307E+04</rscale>
<asrwt>0</asrwt>
<pdfrwt beam="1">  1        1 0.12947190E+00 0.24223307E+04</pdfrwt>
<pdfrwt beam="2">  1       -1 0.26816658E+00 0.24223307E+04</pdfrwt>
<totfact> 0.96701017E-01</totfact>
</mgrwt>
</event>
<event>
 6    1  0.1001928E-005  0.1765872E+04  0.7818608E-02  0.8724662E-01
          1   -1    0    0  501    0  0.00000000000E+00  0.00000000000E+00  0.17297706462E+04  0.17297706462E+04  0.00000000000E+00 0. -1.
         -1   -1    0    0    0  501 -0.00000000000E+00 -0.00000000000E+00 -0.45068194210E+03  0.45068194210E+03  0.00000000000E+00 0.  1.
         23    2    1    2    0    0  0.34637086857E+03 -0.77837901924E+03  0.36609099546E+03  0.93168860253E+03  0.90412161500E+02 0.  0.
         11    1    3    3    0    0  0.83153702790E+02 -0.17435804596E+03  0.12498071841E+03  0.23007704460E+03  0.00000000000E+00 0. -1.
        -11    1    3    3    0    0  0.26321716578E+03 -0.60402097328E+03  0.24111027705E+03  0.70161155793E+03  0.00000000000E+00 0.  1.
         22    1    1    2    0    0 -0.34637086857E+03  0.77837901924E+03  0.91299770862E+03  0.12487639858E+04  0.00000000000E+00 0.  1.
<mgrwt>
<rscale>  0 0.17658725E+04</rscale>
<asrwt>0</asrwt>
<pdfrwt beam="1">  1        1 0.26611856E+00 0.17658725E+04</pdfrwt>
<pdfrwt beam="2">  1       -1 0.69335685E-01 0.17658725E+04</pdfrwt>
<totfact> 0.90558671E+00</totfact>
</mgrwt>
</event>
<event>
 6    1  0.1001928E-005  0.2289659E+04  0.7818608E-02  0.8482010E-01
          1   -1    0    0  501    0  0.00000000000E+00  0.00000000000E+00  0.11032744571E+04  0.11032744571E+04  0.00000000000E+00 0. -1.
         -1   -1    0    0    0  501 -0.00000000000E+00 -0.00000000000E+00 -0.11879495155E+04  0.11879495155E+04  0.00000000000E+00 0.  1.
         23    2    1    2    0    0  0.22322563166E+03 -0.70587422525E+03 -0.91390047193E+03  0.11796022334E+04  0.90328577436E+02 0.  0.
         13    1    3    3    0    0  0.19236381711E+03 -0.52169998305E+03 -0.72852804614E+03  0.91647576316E+03  0.00000000000E+00 0. -1.
        -13    1    3    3    0    0  0.30861814553E+02 -0.18417424221E+03 -0.18537242579E+03  0.26312647023E+03  0.00000000000E+00 0.  1.
         22    1    1    2    0    0 -0.22322563166E+03  0.70587422525E+03  0.82922541355E+03  0.11116217392E+04  0.00000000000E+00 0. -1.
<mgrwt>
<rscale>  0 0.22896588E+04</rscale>
<asrwt>0</asrwt>
<pdfrwt beam="1">  1        1 0.16973453E+00 0.22896588E+04</pdfrwt>
<pdfrwt beam="2">  1       -1 0.18276147E+00 0.22896588E+04</pdfrwt>
<totfact> 0.22679156E+00</totfact>
</mgrwt>
</event>
<event>
 6    1  0.1001928E-005  0.1381034E+04  0.7818608E-02  0.8967662E-01
         -1   -1    0    0    0  501 -0.00000000000E+00  0.00000000000E+00  0.35809084000E+03  0.35809084000E+03  0.00000000000E+00 0.  1.
          1   -1    0    0  501    0  0.00000000000E+00 -0.00000000000E+00 -0.13315445777E+04  0.13315445777E+04  0.00000000000E+00 0. -1.
         23    2    1    2    0    0 -0.84022294323E+02 -0.35190715183E+03  0.22661006188E+03  0.43621948014E+03  0.89648899911E+02 0.  0.
         11    1    3    3    0    0 -0.25717119354E+01 -0.18261948470E+03  0.13559785035E+03  0.22747146396E+03  0.00000000000E+00 0. -1.
        -11    1    3    3    0    0 -0.81450582388E+02 -0.16928766712E+03  0.91012211538E+02  0.20874801618E+03  0.00000000000E+00 0.  1.
         22    1    1    2    0    0  0.84022294323E+02  0.35190715183E+03 -0.12000637996E+04  0.12534159375E+04  0.00000000000E+00 0. -1.
<mgrwt>
<rscale>  0 0.13810343E+04</rscale>
<asrwt>0</asrwt>
<pdfrwt beam="1">  1        1 0.20485301E+00 0.13810343E+04</pdfrwt>
<pdfrwt beam="2">  1       -1 0.55090898E-01 0.13810343E+04</pdfrwt>
<totfact> 0.27928552E+01</totfact>
</mgrwt>
</event>
<event>
 6    1  0.1001928E-005  0.2097363E+04  0.7818608E-02  0.8562406E-01
         -1   -1    0    0    0  501 -0.00000000000E+00  0.00000000000E+00  0.94021464411E+03  0.94021464411E+03  0.00000000000E+00 0.  1.
          1   -1    0    0  501    0  0.00000000000E+00 -0.00000000000E+00 -0.11696617464E+04  0.11696617464E+04  0.00000000000E+00 0. -1.
         23    2    1    2    0    0  0.30727361642E+02  0.23555216689E+03  0.91062137511E+03  0.94532277335E+03  0.89302088107E+02 0.  0.
         11    1    3    3    0    0  0.27853600538E+02  0.60527505091E+02  0.13967257902E+03  0.15475086839E+03  0.00000000000E+00 0. -1.
        -11    1    3    3    0    0  0.28737611046E+01  0.17502466180E+03  0.77094879609E+03  0.79057190497E+03  0.00000000000E+00 0.  1.
         22    1    1    2    0    0 -0.30727361642E+02 -0.23555216689E+03 -0.11400684773E+04  0.11645536171E+04  0.00000000000E+00 0. -1.
<mgrwt>
<rscale>  0 0.20973632E+04</rscale>
<asrwt>0</asrwt>
<pdfrwt beam="1">  1        1 0.17994796E+00 0.20973632E+04</pdfrwt>
<pdfrwt beam="2">  1       -1 0.14464841E+00 0.20973632E+04</pdfrwt>
<totfact> 0.39796030E+00</totfact>
</mgrwt>
</event>
<event>
 6    1  0.1001928E-005  0.1181346E+04  0.7818608E-02  0.9129343E-01
         -1   -1    0    0    0  501 -0.00000000000E+00  0.00000000000E+00  0.26579465789E+03  0.26579465789E+03  0.00000000000E+00 0.  1.
          1   -1    0    0  501    0  0.00000000000E+00 -0.00000000000E+00 -0.13126464018E+04  0.13126464018E+04  0.00000000000E+00 0. -1.
         23    2    1    2    0    0  0.31734562560E+03  0.46761642399E+03 -0.73890119969E+03  0.93485197981E+03  0.92735511909E+02 0.  0.
         13    1    3    3    0    0  0.50943623718E+02  0.12431292493E+03 -0.13129210194E+03  0.18784720423E+03  0.00000000000E+00 0.  1.
        -13    1    3    3    0    0  0.26640200189E+03  0.34330349906E+03 -0.60760909775E+03  0.74700477558E+03  0.00000000000E+00 0. -1.
         22    1    1    2    0    0 -0.31734562560E+03 -0.46761642399E+03 -0.30795054426E+03  0.64358907991E+03  0.00000000000E+00 0.  1.
<mgrwt>
<rscale>  0 0.11813457E+04</rscale>
<asrwt>0</asrwt>
<pdfrwt beam="1">  1        1 0.20194560E+00 0.11813457E+04</pdfrwt>
<pdfrwt beam="2">  1       -1 0.40891486E-01 0.11813457E+04</pdfrwt>
<totfact> 0.51331290E+01</totfact>
</mgrwt>
</event>
<event>
 6    1  0.1001928E-005  0.1197097E+04  0.7818608E-02  0.9115401E-01
          1   -1    0    0  501    0  0.00000000000E+00  0.00000000000E+00  0.89387007170E+03  0.89387007170E+03  0.00000000000E+00 0. -1.
         -1   -1    0    0    0  501 -0.00000000000E+00 -0.00000000000E+00 -0.40079716710E+03  0.40079716710E+03  0.00000000000E+00 0.  1.
         23    2    1    2    0    0  0.22217595735E+03 -0.53795636819E+03  0.38194697579E+03  0.70212341581E+03  0.91293968141E+02 0.  0.
         11    1    3    3    0    0  0.19068083006E+03 -0.36581837016E+03  0.24395455229E+03  0.47926619168E+03  0.00000000000E+00 0. -1.
        -11    1    3    3    0    0  0.31495127296E+02 -0.17213799803E+03  0.13799242349E+03  0.22285722414E+03  0.00000000000E+00 0.  1.
         22    1    1    2    0    0 -0.22217595735E+03  0.53795636819E+03  0.11112592882E+03  0.59254382299E+03  0.00000000000E+00 0.  1.
<mgrwt>
<rscale>  0 0.11970975E+04</rscale>
<asrwt>0</asrwt>
<pdfrwt beam="1">  1        1 0.13751847E+00 0.11970975E+04</pdfrwt>
<pdfrwt beam="2">  1       -1 0.61661103E-01 0.11970975E+04</pdfrwt>
<totfact> 0.48618342E+01</totfact>
</mgrwt>
</event>
<event>
 6    1  0.1001928E-005  0.2979743E+04  0.7818608E-02  0.8249539E-01
          2   -1    0    0  501    0  0.00000000000E+00  0.00000000000E+00  0.17294940410E+04  0.17294940410E+04  0.00000000000E+00 0. -1.
         -2   -1    0    0    0  501 -0.00000000000E+00 -0.00000000000E+00 -0.12834491047E+04  0.12834491047E+04  0.00000000000E+00 0.  1.
         23    2    1    2    0    0 -0.60094383693E+03 -0.13336187077E+04 -0.55523664105E+02  0.14665785659E+04  0.89985887200E+02 0.  0.
         11    1    3    3    0    0 -0.51980592568E+03 -0.11216856875E+04 -0.16962310567E+02  0.12363918076E+04  0.00000000000E+00 0. -1.
        -11    1    3    3    0    0 -0.81137911248E+02 -0.21193302019E+03 -0.38561353538E+02  0.23018675826E+03  0.00000000000E+00 0.  1.
         22    1    1    2    0    0  0.60094383693E+03  0.13336187077E+04  0.50156860043E+03  0.15463645798E+04  0.00000000000E+00 0. -1.
<mgrwt>
<rscale>  0 0.29797433E+04</rscale>
<asrwt>0</asrwt>
<pdfrwt beam="1">  1        2 0.26607601E+00 0.29797433E+04</pdfrwt>
<pdfrwt beam="2">  1       -2 0.19745371E+00 0.29797433E+04</pdfrwt>
<totfact> 0.11194717E+00</totfact>
</mgrwt>
</event>
<event>
 6    1  0.1001928E-005  0.2456922E+04  0.7818608E-02  0.8418495E-01
          2   -1    0    0  501    0  0.00000000000E+00  0.00000000000E+00  0.11957641067E+04  0.11957641067E+04  0.00000000000E+00 0. -1.
         -2   -1    0    0    0  501 -0.00000000000E+00 -0.00000000000E+00 -0.12620516015E+04  0.12620516015E+04  0.00000000000E+00 0.  1.
         23    2    1    2    0    0  0.14414155283E+03 -0.90148730245E+03 -0.85292356613E+03  0.12527213333E+04  0.91520410427E+02 0.  0.
         11    1    3    3    0    0  0.12194812914E+03 -0.74993411089E+03 -0.66022261839E+03  0.10065616835E+04  0.00000000000E+00 0. -1.
        -11    1    3    3    0    0  0.22193423689E+02 -0.15155319156E+03 -0.19270094774E+03  0.24615964980E+03  0.00000000000E+00 0.  1.
         22    1    1    2    0    0 -0.14414155283E+03  0.90148730245E+03  0.78663607126E+03  0.12050943749E+04  0.00000000000E+00 0. -1.
<mgrwt>
<rscale>  0 0.24569217E+04</rscale>
<asrwt>0</asrwt>
<pdfrwt beam="1">  1        2 0.18396371E+00 0.24569217E+04</pdfrwt>
<pdfrwt beam="2">  1       -2 0.19416179E+00 0.24569217E+04</pdfrwt>
<totfact> 0.24788795E+00</totfact>
</mgrwt>
</event>
<event>
 6    1  0.1001928E-005  0.7806780E+03  0.7818608E-02  0.9588414E-01
         -2   -1    0    0    0  501 -0.00000000000E+00  0.00000000000E+00  0.27471814595E+03  0.27471814595E+03  0.00000000000E+00 0.  1.
          2   -1    0    0  501    0  0.00000000000E+00 -0.00000000000E+00 -0.55462130273E+03  0.55462130273E+03  0.00000000000E+00 0. -1.
         23    2    1    2    0    0  0.54495278623E+02 -0.35309059903E+03  0.10487423589E+02  0.36893810671E+03  0.91447438520E+02 0.  0.
         11    1    3    3    0    0  0.33900566660E+02 -0.18581198153E+03  0.50903668601E+02  0.19561831299E+03  0.00000000000E+00 0.  1.
        -11    1    3    3    0    0  0.20594711963E+02 -0.16727861750E+03 -0.40416245012E+02  0.17331979372E+03  0.00000000000E+00 0. -1.
         22    1    1    2    0    0 -0.54495278623E+02  0.35309059903E+03 -0.29039058037E+03  0.46040134197E+03  0.00000000000E+00 0. -1.
<mgrwt>
<rscale>  0 0.78067800E+03</rscale>
<asrwt>0</asrwt>
<pdfrwt beam="1">  1        2 0.85326354E-01 0.78067800E+03</pdfrwt>
<pdfrwt beam="2">  1       -2 0.42264330E-01 0.78067800E+03</pdfrwt>
<totfact> 0.29118707E+02</totfact>
</mgrwt>
</event>
<event>
 6    1  0.1001928E-005  0.3563266E+04  0.7818608E-02  0.8098958E-01
          2   -1    0    0  501    0  0.00000000000E+00  0.00000000000E+00  0.31579005510E+04  0.31579005510E+04  0.00000000000E+00 0. -1.
         -2   -1    0    0    0  501 -0.00000000000E+00 -0.00000000000E+00 -0.10051664562E+04  0.10051664562E+04  0.00000000000E+00 0.  1.
         23    2    1    2    0    0  0.14360027391E+04  0.10515629593E+04  0.10232473783E+04  0.20550753642E+04  0.91711674760E+02 0.  0.
         13    1    3    3    0    0  0.70531659079E+03  0.55120688000E+03  0.47250211868E+03  0.10122049051E+04  0.00000000000E+00 0.  1.
        -13    1    3    3    0    0  0.73068614829E+03  0.50035607927E+03  0.55074525960E+03  0.10428704590E+04  0.00000000000E+00 0. -1.
         22    1    1    2    0    0 -0.14360027391E+04 -0.10515629593E+04  0.11294867166E+04  0.21079916430E+04  0.00000000000E+00 0.  1.
<mgrwt>
<rscale>  0 0.35632658E+04</rscale>
<asrwt>0</asrwt>
<pdfrwt beam="1">  1        2 0.48583085E+00 0.35632658E+04</pdfrwt>
<pdfrwt beam="2">  1       -2 0.15464099E+00 0.35632658E+04</pdfrwt>
<totfact> 0.31158201E-01</totfact>
</mgrwt>
</event>
<event>
 6    1  0.1245452E-005  0.4914301E+04  0.7818608E-02  0.7841865E-01
         -1   -1    0    0    0  501 -0.00000000000E+00  0.00000000000E+00  0.26985239069E+04  0.26985239069E+04  0.00000000000E+00 0.  1.
          1   -1    0    0  501    0  0.00000000000E+00 -0.00000000000E+00 -0.22373670244E+04  0.22373670244E+04  0.00000000000E+00 0. -1.
         23    2    1    2    0    0  0.49430958331E+03  0.72001158533E+03  0.25368037161E+04  0.26839876419E+04  0.75219150681E+02 0.  0.
         13    1    3    3    0    0  0.21089537726E+03  0.33198031192E+03  0.10363898030E+04  0.11085087331E+04  0.00000000000E+00 0.  1.
        -13    1    3    3    0    0  0.28341420605E+03  0.38803127341E+03  0.15004139131E+04  0.15754789087E+04  0.00000000000E+00 0. -1.
         22    1    1    2    0    0 -0.49430958331E+03 -0.72001158533E+03 -0.20756468336E+04  0.22519032894E+04  0.00000000000E+00 0. -1.
<mgrwt>
<rscale>  0 0.49143009E+04</rscale>
<asrwt>0</asrwt>
<pdfrwt beam="1">  1        1 0.34421031E+00 0.49143009E+04</pdfrwt>
<pdfrwt beam="2">  1       -1 0.41515752E+00 0.49143009E+04</pdfrwt>
<totfact> 0.84122785E-03</totfact>
</mgrwt>
</event>
<event>
 6    1  0.1001928E-005  0.2039390E+04  0.7818608E-02  0.8588423E-01
          3   -1    0    0  501    0  0.00000000000E+00  0.00000000000E+00  0.16071877071E+04  0.16071877071E+04  0.00000000000E+00 0. -1.
         -3   -1    0    0    0  501 -0.00000000000E+00 -0.00000000000E+00 -0.64695497927E+03  0.64695497927E+03  0.00000000000E+00 0.  1.
         23    2    1    2    0    0  0.34015272277E+03  0.64738336165E+03 -0.30108683568E+03  0.79615224296E+03  0.91629796487E+02 0.  0.
         11    1    3    3    0    0  0.21960082071E+03  0.48421828399E+03 -0.24661521990E+03  0.58609805809E+03  0.00000000000E+00 0. -1.
        -11    1    3    3    0    0  0.12055190206E+03  0.16316507766E+03 -0.54471615780E+02  0.21005418487E+03  0.00000000000E+00 0.  1.
         22    1    1    2    0    0 -0.34015272277E+03 -0.64738336165E+03  0.12613195635E+04  0.14579904434E+04  0.00000000000E+00 0. -1.
<mgrwt>
<rscale>  0 0.20393902E+04</rscale>
<asrwt>0</asrwt>
<pdfrwt beam="1">  1        3 0.24725965E+00 0.20393902E+04</pdfrwt>
<pdfrwt beam="2">  1       -3 0.99531536E-01 0.20393902E+04</pdfrwt>
<totfact> 0.16382502E-01</totfact>
</mgrwt>
</event>
<event>
 6    1  0.1001928E-005  0.2825402E+04  0.7818608E-02  0.8295425E-01
         -2   -1    0    0    0  501 -0.00000000000E+00  0.00000000000E+00  0.10716733331E+04  0.10716733331E+04  0.00000000000E+00 0.  1.
          2   -1    0    0  501    0  0.00000000000E+00 -0.00000000000E+00 -0.18622509367E+04  0.18622509367E+04  0.00000000000E+00 0. -1.
         23    2    1    2    0    0 -0.16155764160E+03  0.10138591277E+04  0.60973523415E+03  0.11975812029E+04  0.91719569061E+02 0.  0.
         13    1    3    3    0    0 -0.11097684240E+03  0.61491208209E+03  0.32065628852E+03  0.70231985848E+03  0.00000000000E+00 0. -1.
        -13    1    3    3    0    0 -0.50580799193E+02  0.39894704559E+03  0.28907894563E+03  0.49526134438E+03  0.00000000000E+00 0.  1.
         22    1    1    2    0    0  0.16155764160E+03 -0.10138591277E+04 -0.14003128378E+04  0.17363430669E+04  0.00000000000E+00 0. -1.
<mgrwt>
<rscale>  0 0.28254024E+04</rscale>
<asrwt>0</asrwt>
<pdfrwt beam="1">  1        2 0.28650014E+00 0.28254024E+04</pdfrwt>
<pdfrwt beam="2">  1       -2 0.16487282E+00 0.28254024E+04</pdfrwt>
<totfact> 0.16056564E+00</totfact>
</mgrwt>
</event>
<event>
 6    1  0.1001928E-005  0.4992480E+04  0.7818608E-02  0.7829668E-01
          2   -1    0    0  501    0  0.00000000000E+00  0.00000000000E+00  0.28326795568E+04  0.28326795568E+04  0.00000000000E+00 0. -1.
         -2   -1    0    0    0  501 -0.00000000000E+00 -0.00000000000E+00 -0.21997595925E+04  0.21997595925E+04  0.00000000000E+00 0.  1.
         23    2    1    2    0    0  0.47965288920E+03  0.16761121907E+04 -0.14831933836E+04  0.22906596777E+04  0.88544768910E+02 0.  0.
         13    1    3    3    0    0  0.27798987816E+03  0.94392670200E+03 -0.78012609302E+03  0.12557359245E+04  0.00000000000E+00 0. -1.
        -13    1    3    3    0    0  0.20166301105E+03  0.73218548866E+03 -0.70306729061E+03  0.10349237532E+04  0.00000000000E+00 0.  1.
         22    1    1    2    0    0 -0.47965288920E+03 -0.16761121907E+04  0.21161133478E+04  0.27417794716E+04  0.00000000000E+00 0. -1.
<mgrwt>
<rscale>  0 0.49924800E+04</rscale>
<asrwt>0</asrwt>
<pdfrwt beam="1">  1        2 0.43579686E+00 0.49924800E+04</pdfrwt>
<pdfrwt beam="2">  1       -2 0.33842455E+00 0.49924800E+04</pdfrwt>
<totfact> 0.29594988E-02</totfact>
</mgrwt>
</event>
<event>
 6    1  0.1001928E-005  0.9679121E+03  0.7818608E-02  0.9344456E-01
         -2   -1    0    0    0  501 -0.00000000000E+00  0.00000000000E+00  0.17675115998E+03  0.17675115998E+03  0.00000000000E+00 0.  1.
          2   -1    0    0  501    0  0.00000000000E+00 -0.00000000000E+00 -0.13251028471E+04  0.13251028471E+04  0.00000000000E+00 0. -1.
         23    2    1    2    0    0 -0.41008874082E+02 -0.45437514972E+03 -0.35006748852E+03  0.58239973080E+03  0.92215483952E+02 0.  0.
         13    1    3    3    0    0 -0.18414809171E+02 -0.11259284868E+03 -0.13994710060E+03  0.18055870441E+03  0.00000000000E+00 0.  1.
        -13    1    3    3    0    0 -0.22594064912E+02 -0.34178230103E+03 -0.21012038792E+03  0.40184102639E+03  0.00000000000E+00 0. -1.
         22    1    1    2    0    0  0.41008874082E+02  0.45437514972E+03 -0.79828419855E+03  0.91945427624E+03  0.00000000000E+00 0. -1.
<mgrwt>
<rscale>  0 0.96791211E+03</rscale>
<asrwt>0</asrwt>
<pdfrwt beam="1">  1        2 0.20386199E+00 0.96791211E+03</pdfrwt>
<pdfrwt beam="2">  1       -2 0.27192485E-01 0.96791211E+03</pdfrwt>
<totfact> 0.19636816E+02</totfact>
</mgrwt>
</event>
<event>
 6    1  0.1001928E-005  0.1388463E+04  0.7818608E-02  0.8962212E-01
         -1   -1    0    0    0  501 -0.00000000000E+00  0.00000000000E+00  0.24161365259E+03  0.24161365259E+03  0.00000000000E+00 0. -1.
          1   -1    0    0  501    0  0.00000000000E+00 -0.00000000000E+00 -0.19947441777E+04  0.19947441777E+04  0.00000000000E+00 0.  1.
         23    2    1    2    0    0  0.64316308682E+03 -0.23887298895E+03 -0.74496240104E+03  0.10168817020E+04  0.91434981261E+02 0.  0.
         11    1    3    3    0    0  0.40615348572E+03 -0.12131919111E+03 -0.40660681172E+03  0.58737390087E+03  0.00000000000E+00 0.  1.
        -11    1    3    3    0    0  0.23700960110E+03 -0.11755379784E+03 -0.33835558933E+03  0.42950780113E+03  0.00000000000E+00 0. -1.
         22    1    1    2    0    0 -0.64316308682E+03  0.23887298895E+03 -0.10081681241E+04  0.12194761283E+04  0.00000000000E+00 0. -1.
<mgrwt>
<rscale>  0 0.13884631E+04</rscale>
<asrwt>0</asrwt>
<pdfrwt beam="1">  1        1 0.30688373E+00 0.13884631E+04</pdfrwt>
<pdfrwt beam="2">  1       -1 0.37171330E-01 0.13884631E+04</pdfrwt>
<totfact> 0.20432717E+01</totfact>
</mgrwt>
</event>
<event>
 6    1  0.1001928E-005  0.3551724E+04  0.7818608E-02  0.8101640E-01
          2   -1    0    0  501    0  0.00000000000E+00  0.00000000000E+00  0.16363602554E+04  0.16363602554E+04  0.00000000000E+00 0. -1.
         -2   -1    0    0    0  501 -0.00000000000E+00 -0.00000000000E+00 -0.19272561974E+04  0.19272561974E+04  0.00000000000E+00 0.  1.
         23    2    1    2    0    0  0.89926524034E+03 -0.11370070143E+04 -0.11727564284E+04  0.18668133291E+04  0.90396029330E+02 0.  0.
         11    1    3    3    0    0  0.66152226062E+03 -0.79945659525E+03 -0.88165562471E+03  0.13616384210E+04  0.00000000000E+00 0. -1.
        -11    1    3    3    0    0  0.23774297972E+03 -0.33755041907E+03 -0.29110080372E+03  0.50517490807E+03  0.00000000000E+00 0.  1.
         22    1    1    2    0    0 -0.89926524034E+03  0.11370070143E+04  0.88186048640E+03  0.16968031237E+04  0.00000000000E+00 0. -1.
<mgrwt>
<rscale>  0 0.35517238E+04</rscale>
<asrwt>0</asrwt>
<pdfrwt beam="1">  1        2 0.25174773E+00 0.35517238E+04</pdfrwt>
<pdfrwt beam="2">  1       -2 0.29650095E+00 0.35517238E+04</pdfrwt>
<totfact> 0.29072977E-01</totfact>
</mgrwt>
</event>
<event>
 6    1  0.1001928E-005  0.1683386E+04  0.7818608E-02  0.8770897E-01
          2   -1    0    0  501    0  0.00000000000E+00  0.00000000000E+00  0.24942535772E+04  0.24942535772E+04  0.00000000000E+00 0.  1.
         -2   -1    0    0    0  501 -0.00000000000E+00 -0.00000000000E+00 -0.28403157497E+03  0.28403157497E+03  0.00000000000E+00 0. -1.
         23    2    1    2    0    0  0.33805668914E+03  0.55237382546E+03  0.19892560667E+04  0.20940153861E+04  0.91441621654E+02 0.  0.
         11    1    3    3    0    0  0.26180651654E+03  0.41172863933E+03  0.16124170751E+04  0.16846221976E+04  0.00000000000E+00 0. -1.
        -11    1    3    3    0    0  0.76250172600E+02  0.14064518613E+03  0.37683899164E+03  0.40939318854E+03  0.00000000000E+00 0.  1.
         22    1    1    2    0    0 -0.33805668914E+03 -0.55237382546E+03  0.22096593556E+03  0.68426976610E+03  0.00000000000E+00 0. -1.
<mgrwt>
<rscale>  0 0.16833856E+04</rscale>
<asrwt>0</asrwt>
<pdfrwt beam="1">  1        2 0.38373130E+00 0.16833856E+04</pdfrwt>
<pdfrwt beam="2">  1       -2 0.43697167E-01 0.16833856E+04</pdfrwt>
<totfact> 0.16626706E+01</totfact>
</mgrwt>
</event>
<event>
 6    1  0.1001928E-005  0.2694365E+04  0.7818608E-02  0.8336836E-01
         -1   -1    0    0    0  501 -0.00000000000E+00  0.00000000000E+00  0.72800273137E+03  0.72800273137E+03  0.00000000000E+00 0. -1.
          1   -1    0    0  501    0  0.00000000000E+00 -0.00000000000E+00 -0.24929855966E+04  0.24929855966E+04  0.00000000000E+00 0.  1.
         23    2    1    2    0    0  0.10755747332E+04 -0.75852549211E+03 -0.12184958284E+04  0.17959023621E+04  0.91166230335E+02 0.  0.
         11    1    3    3    0    0  0.42726392751E+03 -0.34561763247E+03 -0.54442546804E+03  0.77356648187E+03  0.00000000000E+00 0.  1.
        -11    1    3    3    0    0  0.64831080564E+03 -0.41290785965E+03 -0.67407036036E+03  0.10223358802E+04  0.00000000000E+00 0. -1.
         22    1    1    2    0    0 -0.10755747332E+04  0.75852549211E+03 -0.54648703687E+03  0.14250859659E+04  0.00000000000E+00 0. -1.
<mgrwt>
<rscale>  0 0.26943647E+04</rscale>
<asrwt>0</asrwt>
<pdfrwt beam="1">  1        1 0.38353624E+00 0.26943647E+04</pdfrwt>
<pdfrwt beam="2">  1       -1 0.11200042E+00 0.26943647E+04</pdfrwt>
<totfact> 0.87473100E-01</totfact>
</mgrwt>
</event>
<event>
 6    1  0.1001928E-005  0.1971805E+04  0.7818608E-02  0.8619917E-01
         -1   -1    0    0    0  501 -0.00000000000E+00  0.00000000000E+00  0.10768039880E+04  0.10768039880E+04  0.00000000000E+00 0.  1.
          1   -1    0    0  501    0  0.00000000000E+00 -0.00000000000E+00 -0.90267515628E+03  0.90267515628E+03  0.00000000000E+00 0. -1.
         23    2    1    2    0    0  0.22104263285E+02  0.43299728444E+03  0.97239516018E+03  0.10710715386E+04  0.11690443331E+03 0.  0.
         11    1    3    3    0    0  0.70577697798E+00  0.38218271494E+03  0.91437072689E+03  0.99102873416E+03  0.00000000000E+00 0.  1.
        -11    1    3    3    0    0  0.21398486307E+02  0.50814569494E+02  0.58024433285E+02  0.80042804468E+02  0.00000000000E+00 0. -1.
         22    1    1    2    0    0 -0.22104263285E+02 -0.43299728444E+03 -0.79826632849E+03  0.90840760564E+03  0.00000000000E+00 0. -1.
<mgrwt>
<rscale>  0 0.19718055E+04</rscale>
<asrwt>0</asrwt>
<pdfrwt beam="1">  1        1 0.13887310E+00 0.19718055E+04</pdfrwt>
<pdfrwt beam="2">  1       -1 0.16566215E+00 0.19718055E+04</pdfrwt>
<totfact> 0.44607772E+00</totfact>
</mgrwt>
</event>
<event>
 6    1  0.1001928E-005  0.3868479E+04  0.7818608E-02  0.8031617E-01
          1   -1    0    0  501    0  0.00000000000E+00  0.00000000000E+00  0.27137774758E+04  0.27137774758E+04  0.00000000000E+00 0. -1.
         -1   -1    0    0    0  501 -0.00000000000E+00 -0.00000000000E+00 -0.13786255118E+04  0.13786255118E+04  0.00000000000E+00 0.  1.
         23    2    1    2    0    0 -0.13097650002E+04  0.13215303696E+04  0.12225838386E+04  0.22283755049E+04  0.94969862374E+02 0.  0.
         11    1    3    3    0    0 -0.11312610951E+04  0.11828966347E+04  0.10864602503E+04  0.19645335297E+04  0.00000000000E+00 0.  1.
        -11    1    3    3    0    0 -0.17850390513E+03  0.13863373489E+03  0.13612358828E+03  0.26384197521E+03  0.00000000000E+00 0. -1.
         22    1    1    2    0    0  0.13097650002E+04 -0.13215303696E+04  0.11256812546E+03  0.18640274828E+04  0.00000000000E+00 0.  1.
<mgrwt>
<rscale>  0 0.38684792E+04</rscale>
<asrwt>0</asrwt>
<pdfrwt beam="1">  1        1 0.41750423E+00 0.38684792E+04</pdfrwt>
<pdfrwt beam="2">  1       -1 0.21209623E+00 0.38684792E+04</pdfrwt>
<totfact> 0.94437706E-02</totfact>
</mgrwt>
</event>
<event>
 6    1  0.1001928E-005  0.7009676E+04  0.7818608E-02  0.7576438E-01
          2   -1    0    0  501    0  0.00000000000E+00  0.00000000000E+00  0.43413946757E+04  0.43413946757E+04  0.00000000000E+00 0. -1.
         -2   -1    0    0    0  501 -0.00000000000E+00 -0.00000000000E+00 -0.28294799339E+04  0.28294799339E+04  0.00000000000E+00 0.  1.
         23    2    1    2    0    0 -0.45335257443E+03  0.15605490474E+04  0.39321646049E+04  0.42556642765E+04  0.88983529940E+02 0.  0.
         13    1    3    3    0    0 -0.15905465125E+03  0.47112610832E+03  0.11127606499E+04  0.12188086216E+04  0.00000000000E+00 0. -1.
        -13    1    3    3    0    0 -0.29429792318E+03  0.10894229391E+04  0.28194039549E+04  0.30368556549E+04  0.00000000000E+00 0.  1.
         22    1    1    2    0    0  0.45335257443E+03 -0.15605490474E+04 -0.24202498631E+04  0.29152103331E+04  0.00000000000E+00 0.  1.
<mgrwt>
<rscale>  0 0.70096759E+04</rscale>
<asrwt>0</asrwt>
<pdfrwt beam="1">  1        2 0.66790687E+00 0.70096759E+04</pdfrwt>
<pdfrwt beam="2">  1       -2 0.43530461E+00 0.70096759E+04</pdfrwt>
<totfact> 0.46788403E-04</totfact>
</mgrwt>
</event>
<event>
 6    1  0.1001928E-005  0.4583700E+04  0.7818608E-02  0.7896145E-01
         -2   -1    0    0    0  501 -0.00000000000E+00  0.00000000000E+00  0.24238737976E+04  0.24238737976E+04  0.00000000000E+00 0.  1.
          2   -1    0    0  501    0  0.00000000000E+00 -0.00000000000E+00 -0.21670174744E+04  0.21670174744E+04  0.00000000000E+00 0. -1.
         23    2    1    2    0    0 -0.10758879693E+04 -0.20179113843E+04  0.26622285088E+03  0.23040618055E+04  0.91240999156E+02 0.  0.
         11    1    3    3    0    0 -0.42865730956E+03 -0.79517818221E+03  0.14992142379E+03  0.91571385476E+03  0.00000000000E+00 0. -1.
        -11    1    3    3    0    0 -0.64723065976E+03 -0.12227332021E+04  0.11630142710E+03  0.13883479507E+04  0.00000000000E+00 0.  1.
         22    1    1    2    0    0  0.10758879693E+04  0.20179113843E+04 -0.93665276422E+01  0.22868294666E+04  0.00000000000E+00 0.  1.
<mgrwt>
<rscale>  0 0.45837002E+04</rscale>
<asrwt>0</asrwt>
<pdfrwt beam="1">  1        2 0.33338730E+00 0.45837002E+04</pdfrwt>
<pdfrwt beam="2">  1       -2 0.37290366E+00 0.45837002E+04</pdfrwt>
<totfact> 0.45114460E-02</totfact>
</mgrwt>
</event>
<event>
 6    1  0.1001928E-005  0.2106285E+04  0.7818608E-02  0.8558480E-01
          2   -1    0    0  501    0  0.00000000000E+00  0.00000000000E+00  0.13056339933E+04  0.13056339933E+04  0.00000000000E+00 0. -1.
         -2   -1    0    0    0  501 -0.00000000000E+00 -0.00000000000E+00 -0.84947943188E+03  0.84947943188E+03  0.00000000000E+00 0.  1.
         23    2    1    2    0    0  0.89770208416E+03  0.32037308069E+03 -0.22496232302E+03  0.98360663775E+03  0.91465995348E+02 0.  0.
         13    1    3    3    0    0  0.33280875520E+03  0.15124359005E+03 -0.11936557291E+03  0.38455744833E+03  0.00000000000E+00 0. -1.
        -13    1    3    3    0    0  0.56489332897E+03  0.16912949064E+03 -0.10559675011E+03  0.59904918942E+03  0.00000000000E+00 0.  1.
         22    1    1    2    0    0 -0.89770208416E+03 -0.32037308069E+03  0.68111688445E+03  0.11715067874E+04  0.00000000000E+00 0.  1.
<mgrwt>
<rscale>  0 0.21062851E+04</rscale>
<asrwt>0</asrwt>
<pdfrwt beam="1">  1        2 0.20086677E+00 0.21062851E+04</pdfrwt>
<pdfrwt beam="2">  1       -2 0.13068914E+00 0.21062851E+04</pdfrwt>
<totfact> 0.64767948E+00</totfact>
</mgrwt>
</event>
<event>
 6    1  0.1001928E-005  0.3033985E+04  0.7818608E-02  0.8234092E-01
          2   -1    0    0  501    0  0.00000000000E+00  0.00000000000E+00  0.23811695198E+04  0.23811695198E+04  0.00000000000E+00 0. -1.
         -2   -1    0    0    0  501 -0.00000000000E+00 -0.00000000000E+00 -0.96644360905E+03  0.96644360905E+03  0.00000000000E+00 0.  1.
         23    2    1    2    0    0  0.13884673346E+04 -0.96700141389E+02  0.46090160112E+02  0.13955997389E+04  0.91552563306E+02 0.  0.
         13    1    3    3    0    0  0.78784795219E+03 -0.98229738844E+02  0.39812483233E+02  0.79494560266E+03  0.00000000000E+00 0. -1.
        -13    1    3    3    0    0  0.60061938239E+03  0.15295974551E+01  0.62776768797E+01  0.60065413626E+03  0.00000000000E+00 0.  1.
         22    1    1    2    0    0 -0.13884673346E+04  0.96700141389E+02  0.13686357506E+04  0.19520133899E+04  0.00000000000E+00 0. -1.
<mgrwt>
<rscale>  0 0.30339849E+04</rscale>
<asrwt>0</asrwt>
<pdfrwt beam="1">  1        2 0.36633377E+00 0.30339849E+04</pdfrwt>
<pdfrwt beam="2">  1       -2 0.14868363E+00 0.30339849E+04</pdfrwt>
<totfact> 0.10668635E+00</totfact>
</mgrwt>
</event>
<event>
 6    1  0.1001928E-005  0.2480530E+04  0.7818608E-02  0.8409955E-01
         -1   -1    0    0    0  501 -0.00000000000E+00  0.00000000000E+00  0.12862662102E+04  0.12862662102E+04  0.00000000000E+00 0.  1.
          1   -1    0    0  501    0  0.00000000000E+00 -0.00000000000E+00 -0.11959093481E+04  0.11959093481E+04  0.00000000000E+00 0. -1.
         23    2    1    2    0    0 -0.51914327879E+03  0.99746044397E+02 -0.10756046695E+04  0.12019703753E+04  0.91369363755E+02 0.  0.
         13    1    3    3    0    0 -0.34117464034E+03  0.43932235563E+02 -0.77937937949E+03  0.85191689366E+03  0.00000000000E+00 0.  1.
        -13    1    3    3    0    0 -0.17796863845E+03  0.55813808834E+02 -0.29622529004E+03  0.35005348161E+03  0.00000000000E+00 0. -1.
         22    1    1    2    0    0  0.51914327879E+03 -0.99746044397E+02  0.11659615317E+04  0.12802051830E+04  0.00000000000E+00 0.  1.
<mgrwt>
<rscale>  0 0.24805304E+04</rscale>
<asrwt>0</asrwt>
<pdfrwt beam="1">  1        1 0.18398605E+00 0.24805304E+04</pdfrwt>
<pdfrwt beam="2">  1       -1 0.19788711E+00 0.24805304E+04</pdfrwt>
<totfact> 0.14904526E+00</totfact>
</mgrwt>
</event>
<event>
 6    1  0.1001928E-005  0.3300771E+04  0.7818608E-02  0.8162699E-01
         -2   -1    0    0    0  501 -0.00000000000E+00  0.00000000000E+00  0.18995192023E+04  0.18995192023E+04  0.00000000000E+00 0.  1.
          2   -1    0    0  501    0  0.00000000000E+00 -0.00000000000E+00 -0.14339271562E+04  0.14339271562E+04  0.00000000000E+00 0. -1.
         23    2    1    2    0    0 -0.39743113585E+03 -0.22356931419E+03 -0.13671633928E+04  0.14448153079E+04  0.10208224746E+03 0.  0.
         13    1    3    3    0    0 -0.13061928143E+03 -0.39696007245E+02 -0.52514596548E+03  0.54260064019E+03  0.00000000000E+00 0.  1.
        -13    1    3    3    0    0 -0.26681185443E+03 -0.18387330695E+03 -0.84201742736E+03  0.90221466772E+03  0.00000000000E+00 0. -1.
         22    1    1    2    0    0  0.39743113585E+03  0.22356931419E+03  0.18327554390E+04  0.18886310506E+04  0.00000000000E+00 0.  1.
<mgrwt>
<rscale>  0 0.33007709E+04</rscale>
<asrwt>0</asrwt>
<pdfrwt beam="1">  1        2 0.22060418E+00 0.33007709E+04</pdfrwt>
<pdfrwt beam="2">  1       -2 0.29223372E+00 0.33007709E+04</pdfrwt>
<totfact> 0.40976678E-01</totfact>
</mgrwt>
</event>
<event>
 6    1  0.1103250E-005  0.4209727E+04  0.7818608E-02  0.7963525E-01
         -2   -1    0    0    0  501 -0.00000000000E+00  0.00000000000E+00  0.14508229528E+04  0.14508229528E+04  0.00000000000E+00 0.  1.
          2   -1    0    0  501    0  0.00000000000E+00 -0.00000000000E+00 -0.30537500641E+04  0.30537500641E+04  0.00000000000E+00 0. -1.
         23    2    1    2    0    0  0.16828388484E+04  0.11479178729E+04 -0.23896953265E+03  0.20530342534E+04  0.90449850235E+02 0.  0.
         11    1    3    3    0    0  0.67208950571E+03  0.48754093681E+03 -0.59761077163E+02  0.83244931082E+03  0.00000000000E+00 0.  1.
        -11    1    3    3    0    0  0.10107493427E+04  0.66037693605E+03 -0.17920845549E+03  0.12205849426E+04  0.00000000000E+00 0. -1.
         22    1    1    2    0    0 -0.16828388484E+04 -0.11479178729E+04 -0.13639575787E+04  0.24515387635E+04  0.00000000000E+00 0. -1.
<mgrwt>
<rscale>  0 0.42097272E+04</rscale>
<asrwt>0</asrwt>
<pdfrwt beam="1">  1        2 0.46980769E+00 0.42097272E+04</pdfrwt>
<pdfrwt beam="2">  1       -2 0.22320353E+00 0.42097272E+04</pdfrwt>
<totfact> 0.11775371E-01</totfact>
</mgrwt>
</event>
<event>
 6    1  0.1001928E-005  0.1557931E+04  0.7818608E-02  0.8846818E-01
          2   -1    0    0  501    0  0.00000000000E+00  0.00000000000E+00  0.31582293750E+04  0.31582293750E+04  0.00000000000E+00 0. -1.
         -2   -1    0    0    0  501 -0.00000000000E+00 -0.00000000000E+00 -0.19212894570E+03  0.19212894570E+03  0.00000000000E+00 0.  1.
         23    2    1    2    0    0  0.64525486796E+03 -0.98370699577E+02  0.58474473509E+03  0.88117108975E+03  0.92224969738E+02 0.  0.
         13    1    3    3    0    0  0.25315958776E+03 -0.58334301037E+02  0.17885181301E+03  0.31540551449E+03  0.00000000000E+00 0. -1.
        -13    1    3    3    0    0  0.39209528020E+03 -0.40036398541E+02  0.40589292207E+03  0.56576557526E+03  0.00000000000E+00 0.  1.
         22    1    1    2    0    0 -0.64525486796E+03  0.98370699577E+02  0.23813556942E+04  0.24691872310E+04  0.00000000000E+00 0. -1.
<mgrwt>
<rscale>  0 0.15579310E+04</rscale>
<asrwt>0</asrwt>
<pdfrwt beam="1">  1        2 0.48588141E+00 0.15579310E+04</pdfrwt>
<pdfrwt beam="2">  1       -2 0.29558302E-01 0.15579310E+04</pdfrwt>
<totfact> 0.14115934E+01</totfact>
</mgrwt>
</event>
<event>
 6    1  0.1513584E-005  0.3534320E+04  0.7818608E-02  0.8105704E-01
         -1   -1    0    0    0  501 -0.00000000000E+00  0.00000000000E+00  0.17470436097E+04  0.17470436097E+04  0.00000000000E+00 0.  1.
          1   -1    0    0  501    0  0.00000000000E+00 -0.00000000000E+00 -0.17875076761E+04  0.17875076761E+04  0.00000000000E+00 0. -1.
         23    2    1    2    0    0 -0.47659593893E+03  0.14826288019E+03  0.16738718038E+04  0.17490337008E+04  0.90257965422E+02 0.  0.
         13    1    3    3    0    0 -0.35798169924E+03  0.13947305903E+03  0.13655372069E+04  0.14185540154E+04  0.00000000000E+00 0.  1.
        -13    1    3    3    0    0 -0.11861423970E+03  0.87898211597E+01  0.30833459690E+03  0.33047968540E+03  0.00000000000E+00 0. -1.
         22    1    1    2    0    0  0.47659593893E+03 -0.14826288019E+03 -0.17143358701E+04  0.17855175850E+04  0.00000000000E+00 0. -1.
<mgrwt>
<rscale>  0 0.35343197E+04</rscale>
<asrwt>0</asrwt>
<pdfrwt beam="1">  1        1 0.27500118E+00 0.35343197E+04</pdfrwt>
<pdfrwt beam="2">  1       -1 0.26877594E+00 0.35343197E+04</pdfrwt>
<totfact> 0.17785141E-01</totfact>
</mgrwt>
</event>
<event>
 6    1  0.1001928E-005  0.6636212E+03  0.7818608E-02  0.9781550E-01
          1   -1    0    0  501    0  0.00000000000E+00  0.00000000000E+00  0.34930392905E+03  0.34930392905E+03  0.00000000000E+00 0. -1.
         -1   -1    0    0    0  501 -0.00000000000E+00 -0.00000000000E+00 -0.31519330204E+03  0.31519330204E+03  0.00000000000E+00 0.  1.
         23    2    1    2    0    0  0.16450053944E+02  0.29541434486E+03 -0.11885322704E+03  0.33142339533E+03  0.90416469576E+02 0.  0.
         13    1    3    3    0    0  0.12433712057E+02  0.19400819496E+03 -0.12265731367E+03  0.22986646886E+03  0.00000000000E+00 0.  1.
        -13    1    3    3    0    0  0.40163418873E+01  0.10140614990E+03  0.38040866336E+01  0.10155692647E+03  0.00000000000E+00 0. -1.
         22    1    1    2    0    0 -0.16450053944E+02 -0.29541434486E+03  0.15296385405E+03  0.33307383576E+03  0.00000000000E+00 0.  1.
<mgrwt>
<rscale>  0 0.66362115E+03</rscale>
<asrwt>0</asrwt>
<pdfrwt beam="1">  1        1 0.53739066E-01 0.66362115E+03</pdfrwt>
<pdfrwt beam="2">  1       -1 0.48491277E-01 0.66362115E+03</pdfrwt>
<totfact> 0.30968954E+02</totfact>
</mgrwt>
</event>
<event>
 6    1  0.1001928E-005  0.3729442E+04  0.7818608E-02  0.8061468E-01
         -1   -1    0    0    0  501 -0.00000000000E+00  0.00000000000E+00  0.17518080646E+04  0.17518080646E+04  0.00000000000E+00 0.  1.
          1   -1    0    0  501    0  0.00000000000E+00 -0.00000000000E+00 -0.19849115558E+04  0.19849115558E+04  0.00000000000E+00 0. -1.
         23    2    1    2    0    0  0.61965878173E+03  0.17570187694E+04 -0.71484201426E+02  0.18666359975E+04  0.90155388790E+02 0.  0.
         11    1    3    3    0    0  0.40665384002E+03  0.10209064612E+04 -0.48081040782E+02  0.10999677880E+04  0.00000000000E+00 0. -1.
        -11    1    3    3    0    0  0.21300494170E+03  0.73611230821E+03 -0.23403160644E+02  0.76666820947E+03  0.00000000000E+00 0.  1.
         22    1    1    2    0    0 -0.61965878173E+03 -0.17570187694E+04 -0.16161928977E+03  0.18700836229E+04  0.00000000000E+00 0.  1.
<mgrwt>
<rscale>  0 0.37294418E+04</rscale>
<asrwt>0</asrwt>
<pdfrwt beam="1">  1        1 0.30537101E+00 0.37294418E+04</pdfrwt>
<pdfrwt beam="2">  1       -1 0.26950893E+00 0.37294418E+04</pdfrwt>
<totfact> 0.12711031E-01</totfact>
</mgrwt>
</event>
<event>
 6    1  0.1001928E-005  0.1262102E+04  0.7818608E-02  0.9060170E-01
          1   -1    0    0  501    0  0.00000000000E+00  0.00000000000E+00  0.91246672599E+03  0.91246672599E+03  0.00000000000E+00 0. -1.
         -1   -1    0    0    0  501 -0.00000000000E+00 -0.00000000000E+00 -0.43642749344E+03  0.43642749344E+03  0.00000000000E+00 0.  1.
         23    2    1    2    0    0 -0.44037021408E+03  0.39189140124E+02 -0.23624951417E+03  0.51055241989E+03  0.96892860221E+02 0.  0.
         13    1    3    3    0    0 -0.77606862508E+02 -0.25415780698E+02 -0.23077554876E+02  0.84860830516E+02  0.00000000000E+00 0. -1.
        -13    1    3    3    0    0 -0.36276335157E+03  0.64604920821E+02 -0.21317195930E+03  0.42569158938E+03  0.00000000000E+00 0.  1.
         22    1    1    2    0    0  0.44037021408E+03 -0.39189140124E+02  0.71228874672E+03  0.83834179954E+03  0.00000000000E+00 0. -1.
<mgrwt>
<rscale>  0 0.12621023E+04</rscale>
<asrwt>0</asrwt>
<pdfrwt beam="1">  1        1 0.14037950E+00 0.12621023E+04</pdfrwt>
<pdfrwt beam="2">  1       -1 0.67142692E-01 0.12621023E+04</pdfrwt>
<totfact> 0.39356388E+01</totfact>
</mgrwt>
</event>
<event>
 6    1  0.1001928E-005  0.2641206E+04  0.7818608E-02  0.8354338E-01
          2   -1    0    0  501    0  0.00000000000E+00  0.00000000000E+00  0.37955864919E+04  0.37955864919E+04  0.00000000000E+00 0. -1.
         -2   -1    0    0    0  501 -0.00000000000E+00 -0.00000000000E+00 -0.45947899979E+03  0.45947899979E+03  0.00000000000E+00 0.  1.
         23    2    1    2    0    0 -0.45463741564E+03 -0.37271464537E+03  0.35723232339E+04  0.36214968188E+04  0.90191656334E+02 0.  0.
         13    1    3    3    0    0 -0.35247063979E+02 -0.11814823610E+02  0.35531074502E+03  0.35725015200E+03  0.00000000000E+00 0. -1.
        -13    1    3    3    0    0 -0.41939035167E+03 -0.36089982176E+03  0.32170124888E+04  0.32642466668E+04  0.00000000000E+00 0.  1.
         22    1    1    2    0    0  0.45463741564E+03  0.37271464537E+03 -0.23621574177E+03  0.63356867287E+03  0.00000000000E+00 0.  1.
<mgrwt>
<rscale>  0 0.26412060E+04</rscale>
<asrwt>0</asrwt>
<pdfrwt beam="1">  1        2 0.58393636E+00 0.26412060E+04</pdfrwt>
<pdfrwt beam="2">  1       -2 0.70689079E-01 0.26412060E+04</pdfrwt>
<totfact> 0.79487842E-01</totfact>
</mgrwt>
</event>
<event>
 6    1  0.1001928E-005  0.4238604E+04  0.7818608E-02  0.7958069E-01
         -1   -1    0    0    0  501 -0.00000000000E+00  0.00000000000E+00  0.11499277950E+04  0.11499277950E+04  0.00000000000E+00 0.  1.
          1   -1    0    0  501    0  0.00000000000E+00 -0.00000000000E+00 -0.39058455339E+04  0.39058455339E+04  0.00000000000E+00 0. -1.
         23    2    1    2    0    0  0.18781414677E+04  0.78008418915E+03 -0.67143933895E+03  0.21435582073E+04  0.89801377654E+02 0.  0.
         13    1    3    3    0    0  0.50330865181E+03  0.20161720253E+03 -0.22049168641E+03  0.58530819157E+03  0.00000000000E+00 0.  1.
        -13    1    3    3    0    0  0.13748328159E+04  0.57846698662E+03 -0.45094765254E+03  0.15582500158E+04  0.00000000000E+00 0. -1.
         22    1    1    2    0    0 -0.18781414677E+04 -0.78008418915E+03 -0.20844784000E+04  0.29122151216E+04  0.00000000000E+00 0. -1.
<mgrwt>
<rscale>  0 0.42386037E+04</rscale>
<asrwt>0</asrwt>
<pdfrwt beam="1">  1        1 0.60089932E+00 0.42386037E+04</pdfrwt>
<pdfrwt beam="2">  1       -1 0.17691197E+00 0.42386037E+04</pdfrwt>
<totfact> 0.19426763E-02</totfact>
</mgrwt>
</event>
<event>
 6    1  0.1001928E-005  0.1987604E+04  0.7818608E-02  0.8612438E-01
          2   -1    0    0  501    0  0.00000000000E+00  0.00000000000E+00  0.13055064488E+04  0.13055064488E+04  0.00000000000E+00 0. -1.
         -2   -1    0    0    0  501 -0.00000000000E+00 -0.00000000000E+00 -0.75652031612E+03  0.75652031612E+03  0.00000000000E+00 0.  1.
         23    2    1    2    0    0 -0.83156592662E+03  0.31984008747E+03  0.72697041359E+03  0.11534685796E+04  0.90577094610E+02 0.  0.
         11    1    3    3    0    0 -0.39704273753E+03  0.12876364556E+03  0.28973213246E+03  0.50810207677E+03  0.00000000000E+00 0. -1.
        -11    1    3    3    0    0 -0.43452318909E+03  0.19107644191E+03  0.43723828113E+03  0.64536650285E+03  0.00000000000E+00 0.  1.
         22    1    1    2    0    0  0.83156592662E+03 -0.31984008747E+03 -0.17798428089E+03  0.90855818532E+03  0.00000000000E+00 0. -1.
<mgrwt>
<rscale>  0 0.19876037E+04</rscale>
<asrwt>0</asrwt>
<pdfrwt beam="1">  1        2 0.20084715E+00 0.19876037E+04</pdfrwt>
<pdfrwt beam="2">  1       -2 0.11638774E+00 0.19876037E+04</pdfrwt>
<totfact> 0.87397838E+00</totfact>
</mgrwt>
</event>
<event>
 6    1  0.1001928E-005  0.2275710E+04  0.7818608E-02  0.8487560E-01
         -2   -1    0    0    0  501 -0.00000000000E+00  0.00000000000E+00  0.11240608313E+04  0.11240608313E+04  0.00000000000E+00 0.  1.
          2   -1    0    0  501    0  0.00000000000E+00 -0.00000000000E+00 -0.11518182844E+04  0.11518182844E+04  0.00000000000E+00 0. -1.
         23    2    1    2    0    0  0.82285757799E+03 -0.69541206079E+03 -0.37422921547E+03  0.11441833924E+04  0.91736589130E+02 0.  0.
         13    1    3    3    0    0  0.58470306586E+03 -0.54323577984E+03 -0.29185912810E+03  0.84980264672E+03  0.00000000000E+00 0.  1.
        -13    1    3    3    0    0  0.23815451213E+03 -0.15217628095E+03 -0.82370087371E+02  0.29438074568E+03  0.00000000000E+00 0. -1.
         22    1    1    2    0    0 -0.82285757799E+03  0.69541206079E+03  0.34647176235E+03  0.11316957233E+04  0.00000000000E+00 0.  1.
<mgrwt>
<rscale>  0 0.22757098E+04</rscale>
<asrwt>0</asrwt>
<pdfrwt beam="1">  1        2 0.17720281E+00 0.22757098E+04</pdfrwt>
<pdfrwt beam="2">  1       -2 0.17293244E+00 0.22757098E+04</pdfrwt>
<totfact> 0.37376069E+00</totfact>
</mgrwt>
</event>
<event>
 6    1  0.1001928E-005  0.1503866E+04  0.7818608E-02  0.8881886E-01
         -3   -1    0    0    0  501 -0.00000000000E+00  0.00000000000E+00  0.10283285741E+04  0.10283285741E+04  0.00000000000E+00 0.  1.
          3   -1    0    0  501    0  0.00000000000E+00 -0.00000000000E+00 -0.54982740485E+03  0.54982740485E+03  0.00000000000E+00 0. -1.
         23    2    1    2    0    0 -0.11468504985E+03  0.72091879359E+03  0.41680035553E+03  0.84556908444E+03  0.91585875462E+02 0.  0.
         13    1    3    3    0    0 -0.92518944585E+02  0.69314555996E+03  0.38728080472E+03  0.79937284424E+03  0.00000000000E+00 0.  1.
        -13    1    3    3    0    0 -0.22166105266E+02  0.27773233625E+02  0.29519550812E+02  0.46196240202E+02  0.00000000000E+00 0. -1.
         22    1    1    2    0    0  0.11468504985E+03 -0.72091879359E+03  0.61700813735E+02  0.73258689452E+03  0.00000000000E+00 0. -1.
<mgrwt>
<rscale>  0 0.15038660E+04</rscale>
<asrwt>0</asrwt>
<pdfrwt beam="1">  1        3 0.84588832E-01 0.15038660E+04</pdfrwt>
<pdfrwt beam="2">  1       -3 0.15820440E+00 0.15038660E+04</pdfrwt>
<totfact> 0.91119840E-01</totfact>
</mgrwt>
</event>
<event>
 6    1  0.1001928E-005  0.9618965E+03  0.7818608E-02  0.9351352E-01
          1   -1    0    0  501    0  0.00000000000E+00  0.00000000000E+00  0.29124401399E+03  0.29124401399E+03  0.00000000000E+00 0. -1.
         -1   -1    0    0    0  501 -0.00000000000E+00 -0.00000000000E+00 -0.79421797939E+03  0.79421797939E+03  0.00000000000E+00 0.  1.
         23    2    1    2    0    0 -0.41683552325E+03  0.88285933142E+02 -0.49482487646E+03  0.65930161620E+03  0.90998369910E+02 0.  0.
         13    1    3    3    0    0 -0.23049169139E+02  0.26930888753E+02 -0.25925745754E+02  0.43916753749E+02  0.00000000000E+00 0. -1.
        -13    1    3    3    0    0 -0.39378635411E+03  0.61355044389E+02 -0.46889913070E+03  0.61538486245E+03  0.00000000000E+00 0.  1.
         22    1    1    2    0    0  0.41683552325E+03 -0.88285933142E+02 -0.81490889376E+01  0.42616037719E+03  0.00000000000E+00 0. -1.
<mgrwt>
<rscale>  0 0.96189653E+03</rscale>
<asrwt>0</asrwt>
<pdfrwt beam="1">  1        1 0.44806772E-01 0.96189653E+03</pdfrwt>
<pdfrwt beam="2">  1       -1 0.12218738E+00 0.96189653E+03</pdfrwt>
<totfact> 0.54243296E+01</totfact>
</mgrwt>
</event>
<event>
 6    1  0.1001928E-005  0.2698471E+04  0.7818608E-02  0.8335501E-01
         -1   -1    0    0    0  501 -0.00000000000E+00  0.00000000000E+00  0.59172470802E+03  0.59172470802E+03  0.00000000000E+00 0.  1.
          1   -1    0    0  501    0  0.00000000000E+00 -0.00000000000E+00 -0.30764932755E+04  0.30764932755E+04  0.00000000000E+00 0. -1.
         23    2    1    2    0    0  0.88193295737E+02 -0.11107940340E+04 -0.22742759931E+04  0.25342212608E+04  0.91129920613E+02 0.  0.
         13    1    3    3    0    0 -0.60250853170E+01 -0.49478888791E+03 -0.99998463411E+03  0.11157157405E+04  0.00000000000E+00 0. -1.
        -13    1    3    3    0    0  0.94218381054E+02 -0.61600514605E+03 -0.12742913590E+04  0.14185055203E+04  0.00000000000E+00 0.  1.
         22    1    1    2    0    0 -0.88193295737E+02  0.11107940340E+04 -0.21049257435E+03  0.11339967227E+04  0.00000000000E+00 0.  1.
<mgrwt>
<rscale>  0 0.26984715E+04</rscale>
<asrwt>0</asrwt>
<pdfrwt beam="1">  1        1 0.47330665E+00 0.26984715E+04</pdfrwt>
<pdfrwt beam="2">  1       -1 0.91034573E-01 0.26984715E+04</pdfrwt>
<totfact> 0.53999085E-01</totfact>
</mgrwt>
</event>
<event>
 6    1  0.1001928E-005  0.2362576E+04  0.7818608E-02  0.8453649E-01
          2   -1    0    0  501    0  0.00000000000E+00  0.00000000000E+00  0.10827388655E+04  0.10827388655E+04  0.00000000000E+00 0. -1.
         -2   -1    0    0    0  501 -0.00000000000E+00 -0.00000000000E+00 -0.12888068676E+04  0.12888068676E+04  0.00000000000E+00 0.  1.
         23    2    1    2    0    0  0.26054430018E+03 -0.97472035979E+03 -0.71651551160E+03  0.12408292469E+04  0.91102301959E+02 0.  0.
         11    1    3    3    0    0  0.32338081944E+01 -0.19155684092E+02 -0.32409134991E+02  0.37785576340E+02  0.00000000000E+00 0. -1.
        -11    1    3    3    0    0  0.25731049199E+03 -0.95556467570E+03 -0.68410637661E+03  0.12030436705E+04  0.00000000000E+00 0.  1.
         22    1    1    2    0    0 -0.26054430018E+03  0.97472035979E+03  0.51044750954E+03  0.11307164862E+04  0.00000000000E+00 0. -1.
<mgrwt>
<rscale>  0 0.23625760E+04</rscale>
<asrwt>0</asrwt>
<pdfrwt beam="1">  1        2 0.16657521E+00 0.23625760E+04</pdfrwt>
<pdfrwt beam="2">  1       -2 0.19827798E+00 0.23625760E+04</pdfrwt>
<totfact> 0.27492635E+00</totfact>
</mgrwt>
</event>
<event>
 6    1  0.1001928E-005  0.4824615E+04  0.7818608E-02  0.7856146E-01
         -1   -1    0    0    0  501 -0.00000000000E+00  0.00000000000E+00  0.18468155134E+04  0.18468155134E+04  0.00000000000E+00 0.  1.
          1   -1    0    0  501    0  0.00000000000E+00 -0.00000000000E+00 -0.31509528173E+04  0.31509528173E+04  0.00000000000E+00 0. -1.
         23    2    1    2    0    0 -0.53057187063E+03  0.21551693525E+04  0.32427382383E+03  0.22449544524E+04  0.91681691350E+02 0.  0.
         13    1    3    3    0    0 -0.21836928154E+03  0.74387726148E+03  0.85763470182E+02  0.77999608722E+03  0.00000000000E+00 0.  1.
        -13    1    3    3    0    0 -0.31220258909E+03  0.14112920910E+04  0.23851035364E+03  0.14649583651E+04  0.00000000000E+00 0. -1.
         22    1    1    2    0    0  0.53057187063E+03 -0.21551693525E+04 -0.16284111278E+04  0.27528138784E+04  0.00000000000E+00 0. -1.
<mgrwt>
<rscale>  0 0.48246154E+04</rscale>
<asrwt>0</asrwt>
<pdfrwt beam="1">  1        1 0.48476197E+00 0.48246154E+04</pdfrwt>
<pdfrwt beam="2">  1       -1 0.28412547E+00 0.48246154E+04</pdfrwt>
<totfact> 0.14166513E-02</totfact>
</mgrwt>
</event>
<event>
 6    1  0.1001928E-005  0.3243847E+04  0.7818608E-02  0.8177332E-01
         -2   -1    0    0    0  501 -0.00000000000E+00  0.00000000000E+00  0.16093365768E+04  0.16093365768E+04  0.00000000000E+00 0.  1.
          2   -1    0    0  501    0  0.00000000000E+00 -0.00000000000E+00 -0.16346088570E+04  0.16346088570E+04  0.00000000000E+00 0. -1.
         23    2    1    2    0    0  0.15556480215E+04 -0.44105348462E+03 -0.12222212308E+03  0.16240787063E+04  0.90135750614E+02 0.  0.
         11    1    3    3    0    0  0.82699128820E+03 -0.21119651026E+03 -0.25338082074E+02  0.85390899697E+03  0.00000000000E+00 0.  1.
        -11    1    3    3    0    0  0.72865673333E+03 -0.22985697436E+03 -0.96884041010E+02  0.77016970928E+03  0.00000000000E+00 0. -1.
         22    1    1    2    0    0 -0.15556480215E+04  0.44105348462E+03  0.96949842904E+02  0.16198667276E+04  0.00000000000E+00 0.  1.
<mgrwt>
<rscale>  0 0.32438470E+04</rscale>
<asrwt>0</asrwt>
<pdfrwt beam="1">  1        2 0.25147829E+00 0.32438470E+04</pdfrwt>
<pdfrwt beam="2">  1       -2 0.24759024E+00 0.32438470E+04</pdfrwt>
<totfact> 0.59509760E-01</totfact>
</mgrwt>
</event>
<event>
 6    1  0.1001928E-005  0.2724381E+04  0.7818608E-02  0.8327137E-01
         -2   -1    0    0    0  501 -0.00000000000E+00  0.00000000000E+00  0.54937606031E+03  0.54937606031E+03  0.00000000000E+00 0.  1.
          2   -1    0    0  501    0  0.00000000000E+00 -0.00000000000E+00 -0.33775821236E+04  0.33775821236E+04  0.00000000000E+00 0. -1.
         23    2    1    2    0    0 -0.21280001180E+03 -0.13359206053E+04 -0.16270822066E+04  0.21179069885E+04  0.90364794420E+02 0.  0.
         13    1    3    3    0    0 -0.12940078341E+03 -0.10189526866E+04 -0.12001551356E+04  0.15796776538E+04  0.00000000000E+00 0.  1.
        -13    1    3    3    0    0 -0.83399228391E+02 -0.31696791864E+03 -0.42692707107E+03  0.53822933472E+03  0.00000000000E+00 0. -1.
         22    1    1    2    0    0  0.21280001180E+03  0.13359206053E+04 -0.12011238566E+04  0.18090511954E+04  0.00000000000E+00 0.  1.
<mgrwt>
<rscale>  0 0.27243809E+04</rscale>
<asrwt>0</asrwt>
<pdfrwt beam="1">  1        2 0.51962801E+00 0.27243809E+04</pdfrwt>
<pdfrwt beam="2">  1       -2 0.84519395E-01 0.27243809E+04</pdfrwt>
<totfact> 0.10553148E+00</totfact>
</mgrwt>
</event>
<event>
 6    1  0.1001928E-005  0.3819843E+04  0.7818608E-02  0.8041910E-01
         -2   -1    0    0    0  501 -0.00000000000E+00  0.00000000000E+00  0.18006728485E+04  0.18006728485E+04  0.00000000000E+00 0.  1.
          2   -1    0    0  501    0  0.00000000000E+00 -0.00000000000E+00 -0.20257987364E+04  0.20257987364E+04  0.00000000000E+00 0. -1.
         23    2    1    2    0    0 -0.10740212728E+03 -0.18215000131E+04 -0.67293989136E+03  0.19476594878E+04  0.10550766817E+03 0.  0.
         11    1    3    3    0    0  0.19736782996E+02 -0.27137983866E+03 -0.11261717306E+03  0.29448121350E+03  0.00000000000E+00 0. -1.
        -11    1    3    3    0    0 -0.12713891027E+03 -0.15501201745E+04 -0.56032271830E+03  0.16531782743E+04  0.00000000000E+00 0.  1.
         22    1    1    2    0    0  0.10740212728E+03  0.18215000131E+04  0.44781400346E+03  0.18788120972E+04  0.00000000000E+00 0.  1.
<mgrwt>
<rscale>  0 0.38198433E+04</rscale>
<asrwt>0</asrwt>
<pdfrwt beam="1">  1        2 0.31166134E+00 0.38198433E+04</pdfrwt>
<pdfrwt beam="2">  1       -2 0.27702659E+00 0.38198433E+04</pdfrwt>
<totfact> 0.22721271E-01</totfact>
</mgrwt>
</event>
<event>
 6    1  0.1001928E-005  0.6458494E+04  0.7818608E-02  0.7636015E-01
          2   -1    0    0  501    0  0.00000000000E+00  0.00000000000E+00  0.39102960800E+04  0.39102960800E+04  0.00000000000E+00 0. -1.
         -2   -1    0    0    0  501 -0.00000000000E+00 -0.00000000000E+00 -0.26668146513E+04  0.26668146513E+04  0.00000000000E+00 0.  1.
         23    2    1    2    0    0 -0.53611634216E+03  0.37688920527E+03 -0.25975075345E+04  0.26806171254E+04  0.95898779563E+02 0.  0.
         11    1    3    3    0    0 -0.10594338162E+03  0.51783421883E+02 -0.34991225944E+03  0.36924803614E+03  0.00000000000E+00 0.  1.
        -11    1    3    3    0    0 -0.43017296054E+03  0.32510578339E+03 -0.22475952751E+04  0.23113690893E+04  0.00000000000E+00 0. -1.
         22    1    1    2    0    0  0.53611634216E+03 -0.37688920527E+03  0.38409889632E+04  0.38964936059E+04  0.00000000000E+00 0. -1.
<mgrwt>
<rscale>  0 0.64584936E+04</rscale>
<asrwt>0</asrwt>
<pdfrwt beam="1">  1        2 0.60158401E+00 0.64584936E+04</pdfrwt>
<pdfrwt beam="2">  1       -2 0.41027918E+00 0.64584936E+04</pdfrwt>
<totfact> 0.16614254E-03</totfact>
</mgrwt>
</event>
<event>
 6    1  0.1001928E-005  0.3688655E+04  0.7818608E-02  0.8070481E-01
          2   -1    0    0  501    0  0.00000000000E+00  0.00000000000E+00  0.10879722952E+04  0.10879722952E+04  0.00000000000E+00 0. -1.
         -2   -1    0    0    0  501 -0.00000000000E+00 -0.00000000000E+00 -0.31264989016E+04  0.31264989016E+04  0.00000000000E+00 0.  1.
         23    2    1    2    0    0 -0.15801326097E+04 -0.72963694473E+02 -0.21008722119E+04  0.26314267440E+04  0.92735609873E+02 0.  0.
         13    1    3    3    0    0 -0.27697003587E+03 -0.47887051168E+02 -0.36480508571E+03  0.46053047782E+03  0.00000000000E+00 0.  1.
        -13    1    3    3    0    0 -0.13031625738E+04 -0.25076643305E+02 -0.17360671262E+04  0.21708962662E+04  0.00000000000E+00 0. -1.
         22    1    1    2    0    0  0.15801326097E+04  0.72963694473E+02  0.62345605512E+02  0.15830444528E+04  0.00000000000E+00 0. -1.
<mgrwt>
<rscale>  0 0.36886551E+04</rscale>
<asrwt>0</asrwt>
<pdfrwt beam="1">  1        2 0.16738035E+00 0.36886551E+04</pdfrwt>
<pdfrwt beam="2">  1       -2 0.48099983E+00 0.36886551E+04</pdfrwt>
<totfact> 0.38998741E-02</totfact>
</mgrwt>
</event>
<event>
 6    1  0.1001928E-005  0.2074171E+04  0.7818608E-02  0.8572707E-01
          1   -1    0    0  501    0  0.00000000000E+00  0.00000000000E+00  0.12643394619E+04  0.12643394619E+04  0.00000000000E+00 0. -1.
         -1   -1    0    0    0  501 -0.00000000000E+00 -0.00000000000E+00 -0.85067845503E+03  0.85067845503E+03  0.00000000000E+00 0.  1.
         23    2    1    2    0    0 -0.88045152368E+03 -0.48348558613E+03  0.46201118350E+03  0.11093882946E+04  0.91295438400E+02 0.  0.
         11    1    3    3    0    0 -0.40659151949E+03 -0.20957326239E+03  0.25872574417E+03  0.52552509619E+03  0.00000000000E+00 0.  1.
        -11    1    3    3    0    0 -0.47386000419E+03 -0.27391232374E+03  0.20328543933E+03  0.58386319845E+03  0.00000000000E+00 0. -1.
         22    1    1    2    0    0  0.88045152368E+03  0.48348558613E+03 -0.48350176669E+02  0.10056296222E+04  0.00000000000E+00 0.  1.
<mgrwt>
<rscale>  0 0.20741710E+04</rscale>
<asrwt>0</asrwt>
<pdfrwt beam="1">  1        1 0.19451376E+00 0.20741710E+04</pdfrwt>
<pdfrwt beam="2">  1       -1 0.13087361E+00 0.20741710E+04</pdfrwt>
<totfact> 0.44102184E+00</totfact>
</mgrwt>
</event>
<event>
 6    1  0.1001928E-005  0.1800935E+04  0.7818608E-02  0.8705802E-01
         -1   -1    0    0    0  501 -0.00000000000E+00  0.00000000000E+00  0.13052191224E+04  0.13052191224E+04  0.00000000000E+00 0.  1.
          1   -1    0    0  501    0  0.00000000000E+00 -0.00000000000E+00 -0.62123045879E+03  0.62123045879E+03  0.00000000000E+00 0. -1.
         23    2    1    2    0    0 -0.25629366410E+03  0.59538471609E+03  0.10078423408E+04  0.12018458228E+04  0.92291903598E+02 0.  0.
         13    1    3    3    0    0 -0.24393279774E+02  0.14043636205E+03  0.25557586168E+03  0.29263701911E+03  0.00000000000E+00 0.  1.
        -13    1    3    3    0    0 -0.23190038432E+03  0.45494835405E+03  0.75226647911E+03  0.90920880368E+03  0.00000000000E+00 0. -1.
         22    1    1    2    0    0  0.25629366410E+03 -0.59538471609E+03 -0.32385367719E+03  0.72460375837E+03  0.00000000000E+00 0. -1.
<mgrwt>
<rscale>  0 0.18009352E+04</rscale>
<asrwt>0</asrwt>
<pdfrwt beam="1">  1        1 0.95573917E-01 0.18009352E+04</pdfrwt>
<pdfrwt beam="2">  1       -1 0.20080294E+00 0.18009352E+04</pdfrwt>
<totfact> 0.45639949E+00</totfact>
</mgrwt>
</event>
<event>
 6    1  0.1001928E-005  0.2161904E+04  0.7818608E-02  0.8534454E-01
         -1   -1    0    0    0  501 -0.00000000000E+00  0.00000000000E+00  0.85199274144E+03  0.85199274144E+03  0.00000000000E+00 0.  1.
          1   -1    0    0  501    0  0.00000000000E+00 -0.00000000000E+00 -0.13714399963E+04  0.13714399963E+04  0.00000000000E+00 0. -1.
         23    2    1    2    0    0 -0.10615790018E+04  0.14000547892E+03 -0.39693934711E+03  0.11456759477E+04  0.91983806710E+02 0.  0.
         11    1    3    3    0    0 -0.59215276596E+03  0.53328907957E+02 -0.26116436926E+03  0.64938101176E+03  0.00000000000E+00 0. -1.
        -11    1    3    3    0    0 -0.46942623579E+03  0.86676570964E+02 -0.13577497785E+03  0.49629493592E+03  0.00000000000E+00 0.  1.
         22    1    1    2    0    0  0.10615790018E+04 -0.14000547892E+03 -0.12250790777E+03  0.10777567901E+04  0.00000000000E+00 0.  1.
<mgrwt>
<rscale>  0 0.21619037E+04</rscale>
<asrwt>0</asrwt>
<pdfrwt beam="1">  1        1 0.21099077E+00 0.21619037E+04</pdfrwt>
<pdfrwt beam="2">  1       -1 0.13107580E+00 0.21619037E+04</pdfrwt>
<totfact> 0.36562755E+00</totfact>
</mgrwt>
</event>
<event>
 6    1  0.1001928E-005  0.2101744E+04  0.7818608E-02  0.8560476E-01
         -1   -1    0    0    0  501 -0.00000000000E+00  0.00000000000E+00  0.54437890364E+03  0.54437890364E+03  0.00000000000E+00 0.  1.
          1   -1    0    0  501    0  0.00000000000E+00 -0.00000000000E+00 -0.20286081960E+04  0.20286081960E+04  0.00000000000E+00 0. -1.
         23    2    1    2    0    0  0.96361288073E+03 -0.38659539674E+03 -0.92567904254E+03  0.13940112024E+04  0.91541017739E+02 0.  0.
         11    1    3    3    0    0  0.14796571915E+03 -0.94976552632E+02 -0.14463642979E+03  0.22767102674E+03  0.00000000000E+00 0.  1.
        -11    1    3    3    0    0  0.81564716158E+03 -0.29161884411E+03 -0.78104261275E+03  0.11663401757E+04  0.00000000000E+00 0. -1.
         22    1    1    2    0    0 -0.96361288073E+03  0.38659539674E+03 -0.55855024984E+03  0.11789758972E+04  0.00000000000E+00 0. -1.
<mgrwt>
<rscale>  0 0.21017436E+04</rscale>
<asrwt>0</asrwt>
<pdfrwt beam="1">  1        1 0.31209357E+00 0.21017436E+04</pdfrwt>
<pdfrwt beam="2">  1       -1 0.83750601E-01 0.21017436E+04</pdfrwt>
<totfact> 0.37040443E+00</totfact>
</mgrwt>
</event>
<event>
 6    1  0.1001928E-005  0.3815962E+03  0.7818608E-02  0.1050345E+00
         -1   -1    0    0    0  501 -0.00000000000E+00  0.00000000000E+00  0.13268302327E+04  0.13268302327E+04  0.00000000000E+00 0.  1.
          1   -1    0    0  501    0  0.00000000000E+00 -0.00000000000E+00 -0.27436760425E+02  0.27436760425E+02  0.00000000000E+00 0. -1.
         23    2    1    2    0    0 -0.16060005566E+03 -0.78367036805E+02  0.74132418593E+03  0.76828482727E+03  0.93628290783E+02 0.  0.
         13    1    3    3    0    0 -0.15055682134E+03 -0.74512122462E+02  0.51499955070E+03  0.54170467053E+03  0.00000000000E+00 0. -1.
        -13    1    3    3    0    0 -0.10043234323E+02 -0.38549143428E+01  0.22632463522E+03  0.22658015674E+03  0.00000000000E+00 0.  1.
         22    1    1    2    0    0  0.16060005566E+03  0.78367036805E+02  0.55806928634E+03  0.58598216585E+03  0.00000000000E+00 0.  1.
<mgrwt>
<rscale>  0 0.38159624E+03</rscale>
<asrwt>0</asrwt>
<pdfrwt beam="1">  1        1 0.42210411E-02 0.38159624E+03</pdfrwt>
<pdfrwt beam="2">  1       -1 0.20412768E+00 0.38159624E+03</pdfrwt>
<totfact> 0.32954657E+02</totfact>
</mgrwt>
</event>
<event>
 6    1  0.1001928E-005  0.1940952E+04  0.7818608E-02  0.8634736E-01
         -2   -1    0    0    0  501 -0.00000000000E+00  0.00000000000E+00  0.72848813915E+03  0.72848813915E+03  0.00000000000E+00 0.  1.
          2   -1    0    0  501    0  0.00000000000E+00 -0.00000000000E+00 -0.12928465731E+04  0.12928465731E+04  0.00000000000E+00 0. -1.
         23    2    1    2    0    0 -0.35091318333E+03 -0.18065868990E+03 -0.12036565959E+04  0.12700160286E+04  0.91508947402E+02 0.  0.
         13    1    3    3    0    0 -0.12836667920E+02  0.10581303753E+02 -0.44033942780E+02  0.47071564125E+02  0.00000000000E+00 0. -1.
        -13    1    3    3    0    0 -0.33807651541E+03 -0.19123999366E+03 -0.11596226531E+04  0.12229444644E+04  0.00000000000E+00 0.  1.
         22    1    1    2    0    0  0.35091318333E+03  0.18065868990E+03  0.63929816199E+03  0.75131868365E+03  0.00000000000E+00 0.  1.
<mgrwt>
<rscale>  0 0.19409517E+04</rscale>
<asrwt>0</asrwt>
<pdfrwt beam="1">  1        2 0.19889947E+00 0.19409517E+04</pdfrwt>
<pdfrwt beam="2">  1       -2 0.11207510E+00 0.19409517E+04</pdfrwt>
<totfact> 0.97847550E+00</totfact>
</mgrwt>
</event>
<event>
 6    1  0.1001928E-005  0.2131777E+04  0.7818608E-02  0.8547373E-01
          2   -1    0    0  501    0  0.00000000000E+00  0.00000000000E+00  0.34569064533E+04  0.34569064533E+04  0.00000000000E+00 0. -1.
         -2   -1    0    0    0  501 -0.00000000000E+00 -0.00000000000E+00 -0.32865159704E+03  0.32865159704E+03  0.00000000000E+00 0.  1.
         23    2    1    2    0    0  0.88655086373E+03  0.32008671766E+03  0.24440276648E+04  0.26208285580E+04  0.83923555910E+02 0.  0.
         13    1    3    3    0    0  0.20070458538E+03  0.51167795103E+02  0.61861616517E+03  0.65236985956E+03  0.00000000000E+00 0. -1.
        -13    1    3    3    0    0  0.68584627835E+03  0.26891892256E+03  0.18254114997E+04  0.19684586985E+04  0.00000000000E+00 0.  1.
         22    1    1    2    0    0 -0.88655086373E+03 -0.32008671766E+03  0.68422719141E+03  0.11647294923E+04  0.00000000000E+00 0.  1.
<mgrwt>
<rscale>  0 0.21317766E+04</rscale>
<asrwt>0</asrwt>
<pdfrwt beam="1">  1        2 0.53183174E+00 0.21317766E+04</pdfrwt>
<pdfrwt beam="2">  1       -2 0.50561787E-01 0.21317766E+04</pdfrwt>
<totfact> 0.29734573E+00</totfact>
</mgrwt>
</event>
<event>
 6    1  0.1001928E-005  0.2958220E+04  0.7818608E-02  0.8255763E-01
          2   -1    0    0  501    0  0.00000000000E+00  0.00000000000E+00  0.12917787913E+04  0.12917787913E+04  0.00000000000E+00 0. -1.
         -2   -1    0    0    0  501 -0.00000000000E+00 -0.00000000000E+00 -0.16936075925E+04  0.16936075925E+04  0.00000000000E+00 0.  1.
         23    2    1    2    0    0  0.19925873393E+03 -0.14544290123E+04 -0.32945897019E+02  0.14717343789E+04  0.99241397622E+02 0.  0.
         11    1    3    3    0    0  0.26414082879E+02 -0.29057777801E+03  0.30774686326E+02  0.29339432538E+03  0.00000000000E+00 0. -1.
        -11    1    3    3    0    0  0.17284465105E+03 -0.11638512343E+04 -0.63720583345E+02  0.11783400535E+04  0.00000000000E+00 0.  1.
         22    1    1    2    0    0 -0.19925873393E+03  0.14544290123E+04 -0.36888290423E+03  0.15136520049E+04  0.00000000000E+00 0.  1.
<mgrwt>
<rscale>  0 0.29582200E+04</rscale>
<asrwt>0</asrwt>
<pdfrwt beam="1">  1        2 0.19873520E+00 0.29582200E+04</pdfrwt>
<pdfrwt beam="2">  1       -2 0.26055501E+00 0.29582200E+04</pdfrwt>
<totfact> 0.79481110E-01</totfact>
</mgrwt>
</event>
<event>
 6    1  0.1001928E-005  0.2324739E+04  0.7818608E-02  0.8468230E-01
         -1   -1    0    0    0  501 -0.00000000000E+00  0.00000000000E+00  0.75776093938E+03  0.75776093938E+03  0.00000000000E+00 0.  1.
          1   -1    0    0  501    0  0.00000000000E+00 -0.00000000000E+00 -0.17830198948E+04  0.17830198948E+04  0.00000000000E+00 0. -1.
         23    2    1    2    0    0 -0.44588729739E+03  0.28541383164E+03  0.61544277384E+03  0.81678005065E+03  0.89907207764E+02 0.  0.
         11    1    3    3    0    0 -0.28581366320E+03  0.22507501380E+03  0.45161455589E+03  0.57991716564E+03  0.00000000000E+00 0. -1.
        -11    1    3    3    0    0 -0.16007363419E+03  0.60338817838E+02  0.16382821794E+03  0.23686288501E+03  0.00000000000E+00 0.  1.
         22    1    1    2    0    0  0.44588729739E+03 -0.28541383164E+03 -0.16407017293E+04  0.17240007836E+04  0.00000000000E+00 0. -1.
<mgrwt>
<rscale>  0 0.23247390E+04</rscale>
<asrwt>0</asrwt>
<pdfrwt beam="1">  1        1 0.27431075E+00 0.23247390E+04</pdfrwt>
<pdfrwt beam="2">  1       -1 0.11657861E+00 0.23247390E+04</pdfrwt>
<totfact> 0.25063154E+00</totfact>
</mgrwt>
</event>
<event>
 6    1  0.1001928E-005  0.2874904E+04  0.7818608E-02  0.8280384E-01
         -1   -1    0    0    0  501 -0.00000000000E+00  0.00000000000E+00  0.98402232496E+03  0.98402232496E+03  0.00000000000E+00 0.  1.
          1   -1    0    0  501    0  0.00000000000E+00 -0.00000000000E+00 -0.20998179518E+04  0.20998179518E+04  0.00000000000E+00 0. -1.
         23    2    1    2    0    0 -0.80172282430E+03 -0.11760959078E+04 -0.35450118104E+03  0.14696747634E+04  0.91168806403E+02 0.  0.
         13    1    3    3    0    0 -0.17697999945E+03 -0.23154017568E+03 -0.10715257723E+03  0.31050675993E+03  0.00000000000E+00 0.  1.
        -13    1    3    3    0    0 -0.62474282485E+03 -0.94455573215E+03 -0.24734860382E+03  0.11591680034E+04  0.00000000000E+00 0. -1.
         22    1    1    2    0    0  0.80172282430E+03  0.11760959078E+04 -0.76129444577E+03  0.16141655134E+04  0.00000000000E+00 0. -1.
<mgrwt>
<rscale>  0 0.28749036E+04</rscale>
<asrwt>0</asrwt>
<pdfrwt beam="1">  1        1 0.32304891E+00 0.28749036E+04</pdfrwt>
<pdfrwt beam="2">  1       -1 0.15138805E+00 0.28749036E+04</pdfrwt>
<totfact> 0.74614479E-01</totfact>
</mgrwt>
</event>
<event>
 6    1  0.1001928E-005  0.2791553E+04  0.7818608E-02  0.8305896E-01
          2   -1    0    0  501    0  0.00000000000E+00  0.00000000000E+00  0.21844577390E+04  0.21844577390E+04  0.00000000000E+00 0.  1.
         -2   -1    0    0    0  501 -0.00000000000E+00 -0.00000000000E+00 -0.89184235717E+03  0.89184235717E+03  0.00000000000E+00 0. -1.
         23    2    1    2    0    0 -0.83058408803E+03 -0.98639291044E+03  0.62785816135E+02  0.12943568699E+04  0.92610727533E+02 0.  0.
         13    1    3    3    0    0 -0.39094405954E+03 -0.39415763703E+03  0.34797226469E+02  0.55624486289E+03  0.00000000000E+00 0.  1.
        -13    1    3    3    0    0 -0.43964002849E+03 -0.59223527341E+03  0.27988589666E+02  0.73811200700E+03  0.00000000000E+00 0. -1.
         22    1    1    2    0    0  0.83058408803E+03  0.98639291044E+03  0.12298295657E+04  0.17819432263E+04  0.00000000000E+00 0. -1.
<mgrwt>
<rscale>  0 0.27915529E+04</rscale>
<asrwt>0</asrwt>
<pdfrwt beam="1">  1        2 0.33607042E+00 0.27915529E+04</pdfrwt>
<pdfrwt beam="2">  1       -2 0.13720652E+00 0.27915529E+04</pdfrwt>
<totfact> 0.17361455E+00</totfact>
</mgrwt>
</event>
<event>
 6    1  0.1001928E-005  0.9422327E+03  0.7818608E-02  0.9374276E-01
         -2   -1    0    0    0  501 -0.00000000000E+00  0.00000000000E+00  0.30091334498E+03  0.30091334498E+03  0.00000000000E+00 0.  1.
          2   -1    0    0  501    0  0.00000000000E+00 -0.00000000000E+00 -0.73758977740E+03  0.73758977740E+03  0.00000000000E+00 0. -1.
         23    2    1    2    0    0 -0.28694828605E+03  0.12859617092E+03 -0.60052977073E+03  0.68392702263E+03  0.90795774784E+02 0.  0.
         11    1    3    3    0    0 -0.17541945387E+03  0.12020663129E+03 -0.34953704008E+03  0.40914271518E+03  0.00000000000E+00 0.  1.
        -11    1    3    3    0    0 -0.11152883217E+03  0.83895396313E+01 -0.25099273065E+03  0.27478430745E+03  0.00000000000E+00 0. -1.
         22    1    1    2    0    0  0.28694828605E+03 -0.12859617092E+03  0.16385333831E+03  0.35457609975E+03  0.00000000000E+00 0.  1.
<mgrwt>
<rscale>  0 0.94223268E+03</rscale>
<asrwt>0</asrwt>
<pdfrwt beam="1">  1        2 0.11347535E+00 0.94223268E+03</pdfrwt>
<pdfrwt beam="2">  1       -2 0.46294361E-01 0.94223268E+03</pdfrwt>
<totfact> 0.16969926E+02</totfact>
</mgrwt>
</event>
<event>
 6    1  0.1001928E-005  0.4167706E+03  0.7818608E-02  0.1038123E+00
          2   -1    0    0  501    0  0.00000000000E+00  0.00000000000E+00  0.87344949313E+03  0.87344949313E+03  0.00000000000E+00 0. -1.
         -2   -1    0    0    0  501 -0.00000000000E+00 -0.00000000000E+00 -0.49716011403E+02  0.49716011403E+02  0.00000000000E+00 0.  1.
         23    2    1    2    0    0 -0.12633093069E+03  0.15239532429E+03  0.51657276352E+03  0.55774582016E+03  0.71057307748E+02 0.  0.
         13    1    3    3    0    0 -0.58119609241E+02  0.43425370085E+02  0.11385342068E+03  0.13500464120E+03  0.00000000000E+00 0.  1.
        -13    1    3    3    0    0 -0.68211321451E+02  0.10896995421E+03  0.40271934283E+03  0.42274117896E+03  0.00000000000E+00 0. -1.
         22    1    1    2    0    0  0.12633093069E+03 -0.15239532429E+03  0.30716071821E+03  0.36541968438E+03  0.00000000000E+00 0.  1.
<mgrwt>
<rscale>  0 0.41677056E+03</rscale>
<asrwt>0</asrwt>
<pdfrwt beam="1">  1        2 0.13437683E+00 0.41677056E+03</pdfrwt>
<pdfrwt beam="2">  1       -2 0.76486178E-02 0.41677056E+03</pdfrwt>
<totfact> 0.32233531E+03</totfact>
</mgrwt>
</event>
<event>
 6    1  0.1001928E-005  0.1576585E+04  0.7818608E-02  0.8835063E-01
         -2   -1    0    0    0  501 -0.00000000000E+00  0.00000000000E+00  0.54181855742E+03  0.54181855742E+03  0.00000000000E+00 0.  1.
          2   -1    0    0  501    0  0.00000000000E+00 -0.00000000000E+00 -0.11468879705E+04  0.11468879705E+04  0.00000000000E+00 0. -1.
         23    2    1    2    0    0 -0.77179065327E+03 -0.13831821934E+03 -0.35638978034E+03  0.86612868840E+03  0.91501295403E+02 0.  0.
         11    1    3    3    0    0 -0.98137572048E+02 -0.16228535044E+02 -0.80655323887E+02  0.12806103884E+03  0.00000000000E+00 0. -1.
        -11    1    3    3    0    0 -0.67365308122E+03 -0.12208968430E+03 -0.27573445645E+03  0.73806764956E+03  0.00000000000E+00 0.  1.
         22    1    1    2    0    0  0.77179065327E+03  0.13831821934E+03 -0.24867963270E+03  0.82257783948E+03  0.00000000000E+00 0. -1.
<mgrwt>
<rscale>  0 0.15765852E+04</rscale>
<asrwt>0</asrwt>
<pdfrwt beam="1">  1        2 0.17644430E+00 0.15765852E+04</pdfrwt>
<pdfrwt beam="2">  1       -2 0.83356702E-01 0.15765852E+04</pdfrwt>
<totfact> 0.24678166E+01</totfact>
</mgrwt>
</event>
<event>
 6    1  0.1001928E-005  0.9597372E+03  0.7818608E-02  0.9353841E-01
          4   -1    0    0  501    0  0.00000000000E+00  0.00000000000E+00  0.69837414398E+03  0.69837414398E+03  0.00000000000E+00 0. -1.
         -4   -1    0    0    0  501 -0.00000000000E+00 -0.00000000000E+00 -0.32972853345E+03  0.32972853345E+03  0.00000000000E+00 0.  1.
         23    2    1    2    0    0 -0.28602719137E+03 -0.50673705556E+02  0.58947801017E+03  0.66321046407E+03  0.89355562395E+02 0.  0.
         11    1    3    3    0    0 -0.83527027465E+02  0.82497891813E+01  0.24838862402E+03  0.26218644489E+03  0.00000000000E+00 0.  1.
        -11    1    3    3    0    0 -0.20250016391E+03 -0.58923494737E+02  0.34108938615E+03  0.40102401918E+03  0.00000000000E+00 0. -1.
         22    1    1    2    0    0  0.28602719137E+03  0.50673705556E+02 -0.22083239964E+03  0.36489221336E+03  0.00000000000E+00 0.  1.
<mgrwt>
<rscale>  0 0.95973722E+03</rscale>
<asrwt>0</asrwt>
<pdfrwt beam="1">  1        4 0.10744218E+00 0.95973722E+03</pdfrwt>
<pdfrwt beam="2">  1       -4 0.50727467E-01 0.95973722E+03</pdfrwt>
<totfact> 0.51639738E+00</totfact>
</mgrwt>
</event>
<event>
 6    1  0.1001928E-005  0.1772678E+04  0.7818608E-02  0.8720966E-01
         -2   -1    0    0    0  501 -0.00000000000E+00  0.00000000000E+00  0.16785858157E+04  0.16785858157E+04  0.00000000000E+00 0.  1.
          2   -1    0    0  501    0  0.00000000000E+00 -0.00000000000E+00 -0.46801102460E+03  0.46801102460E+03  0.00000000000E+00 0. -1.
         23    2    1    2    0    0  0.46896600771E+03  0.10340309069E+03 -0.29235888416E+03  0.56880377790E+03  0.86271113644E+02 0.  0.
         11    1    3    3    0    0  0.35854473201E+03  0.44700814736E+02 -0.19697084503E+03  0.41152156868E+03  0.00000000000E+00 0. -1.
        -11    1    3    3    0    0  0.11042127570E+03  0.58702275955E+02 -0.95388039123E+02  0.15728220922E+03  0.00000000000E+00 0.  1.
         22    1    1    2    0    0 -0.46896600771E+03 -0.10340309069E+03  0.15029336752E+04  0.15777930624E+04  0.00000000000E+00 0.  1.
<mgrwt>
<rscale>  0 0.17726778E+04</rscale>
<asrwt>0</asrwt>
<pdfrwt beam="1">  1        2 0.72001697E-01 0.17726778E+04</pdfrwt>
<pdfrwt beam="2">  1       -2 0.25824397E+00 0.17726778E+04</pdfrwt>
<totfact> 0.35981176E+00</totfact>
</mgrwt>
</event>
<event>
 6    1  0.1001928E-005  0.3044046E+04  0.7818608E-02  0.8231264E-01
          3   -1    0    0  501    0  0.00000000000E+00  0.00000000000E+00  0.10540126011E+04  0.10540126011E+04  0.00000000000E+00 0. -1.
         -3   -1    0    0    0  501 -0.00000000000E+00 -0.00000000000E+00 -0.21978432956E+04  0.21978432956E+04  0.00000000000E+00 0.  1.
         23    2    1    2    0    0  0.11453875342E+04  0.34702226545E+03 -0.15745998339E+04  0.19798892668E+04  0.90883528037E+02 0.  0.
         13    1    3    3    0    0  0.59412667813E+03  0.22736121584E+03 -0.83152255621E+03  0.10469524314E+04  0.00000000000E+00 0. -1.
        -13    1    3    3    0    0  0.55126085607E+03  0.11966104960E+03 -0.74307727766E+03  0.93293683537E+03  0.00000000000E+00 0.  1.
         22    1    1    2    0    0 -0.11453875342E+04 -0.34702226545E+03  0.43076913934E+03  0.12719666299E+04  0.00000000000E+00 0. -1.
<mgrwt>
<rscale>  0 0.30440463E+04</rscale>
<asrwt>0</asrwt>
<pdfrwt beam="1">  1        3 0.16215579E+00 0.30440463E+04</pdfrwt>
<pdfrwt beam="2">  1       -3 0.33812973E+00 0.30440463E+04</pdfrwt>
<totfact> 0.13581276E-02</totfact>
</mgrwt>
</event>
<event>
 6    1  0.1001928E-005  0.6640754E+03  0.7818608E-02  0.9780720E-01
         -1   -1    0    0    0  501 -0.00000000000E+00  0.00000000000E+00  0.16722689062E+03  0.16722689062E+03  0.00000000000E+00 0.  1.
          1   -1    0    0  501    0  0.00000000000E+00 -0.00000000000E+00 -0.65927811861E+03  0.65927811861E+03  0.00000000000E+00 0. -1.
         23    2    1    2    0    0 -0.26749090454E+03 -0.70390403625E+02 -0.36645858207E+02  0.29368210830E+03  0.91651889672E+02 0.  0.
         13    1    3    3    0    0 -0.12640864077E+03  0.22888520168E+01  0.13738600126E+02  0.12717363106E+03  0.00000000000E+00 0. -1.
        -13    1    3    3    0    0 -0.14108226377E+03 -0.72679255642E+02 -0.50384458333E+02  0.16650847724E+03  0.00000000000E+00 0.  1.
         22    1    1    2    0    0  0.26749090454E+03  0.70390403625E+02 -0.45540536978E+03  0.53282290093E+03  0.00000000000E+00 0. -1.
<mgrwt>
<rscale>  0 0.66407539E+03</rscale>
<asrwt>0</asrwt>
<pdfrwt beam="1">  1        1 0.10142740E+00 0.66407539E+03</pdfrwt>
<pdfrwt beam="2">  1       -1 0.25727214E-01 0.66407539E+03</pdfrwt>
<totfact> 0.40195524E+02</totfact>
</mgrwt>
</event>
<event>
 6    1  0.1001928E-005  0.3276147E+04  0.7818608E-02  0.8168991E-01
          2   -1    0    0  501    0  0.00000000000E+00  0.00000000000E+00  0.19694918636E+04  0.19694918636E+04  0.00000000000E+00 0. -1.
         -2   -1    0    0    0  501 -0.00000000000E+00 -0.00000000000E+00 -0.13624247198E+04  0.13624247198E+04  0.00000000000E+00 0.  1.
         23    2    1    2    0    0 -0.24119152401E+03 -0.13942358386E+04  0.11406790882E+04  0.18196968136E+04  0.89893193654E+02 0.  0.
         13    1    3    3    0    0 -0.67958747781E+01 -0.16162324357E+03  0.10600166954E+03  0.19340271643E+03  0.00000000000E+00 0. -1.
        -13    1    3    3    0    0 -0.23439564924E+03 -0.12326125951E+04  0.10346774186E+04  0.16262940972E+04  0.00000000000E+00 0.  1.
         22    1    1    2    0    0  0.24119152401E+03  0.13942358386E+04 -0.53361194429E+03  0.15122197698E+04  0.00000000000E+00 0.  1.
<mgrwt>
<rscale>  0 0.32761468E+04</rscale>
<asrwt>0</asrwt>
<pdfrwt beam="1">  1        2 0.30299875E+00 0.32761468E+04</pdfrwt>
<pdfrwt beam="2">  1       -2 0.20960380E+00 0.32761468E+04</pdfrwt>
<totfact> 0.66971755E-01</totfact>
</mgrwt>
</event>
<event>
 6    1  0.1311849E-005  0.4002368E+04  0.7818608E-02  0.8004069E-01
          1   -1    0    0  501    0  0.00000000000E+00  0.00000000000E+00  0.24987059906E+04  0.24987059906E+04  0.00000000000E+00 0. -1.
         -1   -1    0    0    0  501 -0.00000000000E+00 -0.00000000000E+00 -0.16027244228E+04  0.16027244228E+04  0.00000000000E+00 0.  1.
         23    2    1    2    0    0 -0.13843372592E+04  0.13709701776E+04 -0.15417277852E+02  0.19504778963E+04  0.90429289960E+02 0.  0.
         13    1    3    3    0    0 -0.11173052791E+04  0.10558367892E+04 -0.20343146882E+02  0.15373926811E+04  0.00000000000E+00 0.  1.
        -13    1    3    3    0    0 -0.26703198002E+03  0.31513338835E+03  0.49258690302E+01  0.41308521517E+03  0.00000000000E+00 0. -1.
         22    1    1    2    0    0  0.13843372592E+04 -0.13709701776E+04  0.91139884574E+03  0.21509525171E+04  0.00000000000E+00 0. -1.
<mgrwt>
<rscale>  0 0.40023679E+04</rscale>
<asrwt>0</asrwt>
<pdfrwt beam="1">  1        1 0.38441631E+00 0.40023679E+04</pdfrwt>
<pdfrwt beam="2">  1       -1 0.24657299E+00 0.40023679E+04</pdfrwt>
<totfact> 0.77986007E-02</totfact>
</mgrwt>
</event>
<event>
 6    1  0.1001928E-005  0.4217711E+04  0.7818608E-02  0.7962012E-01
          2   -1    0    0  501    0  0.00000000000E+00  0.00000000000E+00  0.35821262311E+04  0.35821262311E+04  0.00000000000E+00 0.  1.
         -2   -1    0    0    0  501 -0.00000000000E+00 -0.00000000000E+00 -0.12415170993E+04  0.12415170993E+04  0.00000000000E+00 0. -1.
         23    2    1    2    0    0 -0.17507300413E+03  0.12804441242E+04 -0.73364859498E+03  0.14887897680E+04  0.89816482784E+02 0.  0.
         13    1    3    3    0    0 -0.46433743298E+01  0.23061442819E+03 -0.10626423732E+03  0.25396193326E+03  0.00000000000E+00 0.  1.
        -13    1    3    3    0    0 -0.17042962980E+03  0.10498296960E+04 -0.62738435766E+03  0.12348278348E+04  0.00000000000E+00 0. -1.
         22    1    1    2    0    0  0.17507300413E+03 -0.12804441242E+04  0.30742577268E+04  0.33348535624E+04  0.00000000000E+00 0.  1.
<mgrwt>
<rscale>  0 0.42177107E+04</rscale>
<asrwt>0</asrwt>
<pdfrwt beam="1">  1        2 0.55109634E+00 0.42177107E+04</pdfrwt>
<pdfrwt beam="2">  1       -2 0.19100263E+00 0.42177107E+04</pdfrwt>
<totfact> 0.83944777E-02</totfact>
</mgrwt>
</event>
<event>
 6    1  0.1001928E-005  0.2128731E+04  0.7818608E-02  0.8548691E-01
          2   -1    0    0  501    0  0.00000000000E+00  0.00000000000E+00  0.11971312249E+04  0.11971312249E+04  0.00000000000E+00 0.  1.
         -2   -1    0    0    0  501 -0.00000000000E+00 -0.00000000000E+00 -0.94632436646E+03  0.94632436646E+03  0.00000000000E+00 0. -1.
         23    2    1    2    0    0  0.30199192073E+03  0.51465113344E+03 -0.75944721406E+03  0.97013628258E+03  0.91320460408E+02 0.  0.
         11    1    3    3    0    0  0.26749805016E+03  0.41403121585E+03 -0.66584276575E+03  0.82844652406E+03  0.00000000000E+00 0.  1.
        -11    1    3    3    0    0  0.34493870577E+02  0.10061991760E+03 -0.93604448314E+02  0.14168975852E+03  0.00000000000E+00 0. -1.
         22    1    1    2    0    0 -0.30199192073E+03 -0.51465113344E+03  0.10102540725E+04  0.11733193088E+04  0.00000000000E+00 0.  1.
<mgrwt>
<rscale>  0 0.21287315E+04</rscale>
<asrwt>0</asrwt>
<pdfrwt beam="1">  1        2 0.18417403E+00 0.21287315E+04</pdfrwt>
<pdfrwt beam="2">  1       -2 0.14558836E+00 0.21287315E+04</pdfrwt>
<totfact> 0.56686571E+00</totfact>
</mgrwt>
</event>
<event>
 6    1  0.1001928E-005  0.1865863E+04  0.7818608E-02  0.8672037E-01
          2   -1    0    0  501    0  0.00000000000E+00  0.00000000000E+00  0.19851737753E+04  0.19851737753E+04  0.00000000000E+00 0.  1.
         -2   -1    0    0    0  501 -0.00000000000E+00 -0.00000000000E+00 -0.43843090002E+03  0.43843090002E+03  0.00000000000E+00 0. -1.
         23    2    1    2    0    0 -0.49254253574E+03 -0.64233755774E+03  0.17813055713E+03  0.83354324096E+03  0.88702601867E+02 0.  0.
         13    1    3    3    0    0 -0.23866825741E+03 -0.38364236968E+03  0.10055310018E+03  0.46287679879E+03  0.00000000000E+00 0.  1.
        -13    1    3    3    0    0 -0.25387427833E+03 -0.25869518807E+03  0.77577456949E+02  0.37066644217E+03  0.00000000000E+00 0. -1.
         22    1    1    2    0    0  0.49254253574E+03  0.64233755774E+03  0.13686123181E+04  0.15900614343E+04  0.00000000000E+00 0.  1.
<mgrwt>
<rscale>  0 0.18658634E+04</rscale>
<asrwt>0</asrwt>
<pdfrwt beam="1">  1        2 0.30541135E+00 0.18658634E+04</pdfrwt>
<pdfrwt beam="2">  1       -2 0.67450909E-01 0.18658634E+04</pdfrwt>
<totfact> 0.12886931E+01</totfact>
</mgrwt>
</event>
<event>
 6    1  0.1085411E-005  0.3405295E+04  0.7818608E-02  0.8136608E-01
          1   -1    0    0  501    0  0.00000000000E+00  0.00000000000E+00  0.22213674121E+04  0.22213674121E+04  0.00000000000E+00 0. -1.
         -1   -1    0    0    0  501 -0.00000000000E+00 -0.00000000000E+00 -0.13050556252E+04  0.13050556252E+04  0.00000000000E+00 0.  1.
         23    2    1    2    0    0  0.14917156508E+03  0.70651144759E+03 -0.11360350421E+04  0.13507534650E+04  0.11202109125E+03 0.  0.
         11    1    3    3    0    0  0.88722104776E+02  0.56262597472E+03 -0.95275738540E+03  0.11100298351E+04  0.00000000000E+00 0. -1.
        -11    1    3    3    0    0  0.60449460308E+02  0.14388547288E+03 -0.18327765669E+03  0.24072362991E+03  0.00000000000E+00 0.  1.
         22    1    1    2    0    0 -0.14917156508E+03 -0.70651144759E+03  0.20523468290E+04  0.21756695723E+04  0.00000000000E+00 0. -1.
<mgrwt>
<rscale>  0 0.34052947E+04</rscale>
<asrwt>0</asrwt>
<pdfrwt beam="1">  1        1 0.34174883E+00 0.34052947E+04</pdfrwt>
<pdfrwt beam="2">  1       -1 0.20077779E+00 0.34052947E+04</pdfrwt>
<totfact> 0.25751832E-01</totfact>
</mgrwt>
</event>
<event>
 6    1  0.1001928E-005  0.2436373E+04  0.7818608E-02  0.8426010E-01
         -2   -1    0    0    0  501 -0.00000000000E+00  0.00000000000E+00  0.14786181716E+04  0.14786181716E+04  0.00000000000E+00 0.  1.
          2   -1    0    0  501    0  0.00000000000E+00 -0.00000000000E+00 -0.10036252154E+04  0.10036252154E+04  0.00000000000E+00 0. -1.
         23    2    1    2    0    0 -0.12365732966E+03  0.79675360129E+03 -0.69009086684E+03  0.10653708623E+04  0.93178503372E+02 0.  0.
         11    1    3    3    0    0 -0.13387378610E+03  0.65464189642E+03 -0.54822104592E+03  0.86430580140E+03  0.00000000000E+00 0. -1.
        -11    1    3    3    0    0  0.10216456436E+02  0.14211170487E+03 -0.14186982092E+03  0.20106506094E+03  0.00000000000E+00 0.  1.
         22    1    1    2    0    0  0.12365732966E+03 -0.79675360129E+03  0.11650838230E+04  0.14168725246E+04  0.00000000000E+00 0.  1.
<mgrwt>
<rscale>  0 0.24363731E+04</rscale>
<asrwt>0</asrwt>
<pdfrwt beam="1">  1        2 0.15440388E+00 0.24363731E+04</pdfrwt>
<pdfrwt beam="2">  1       -2 0.22747972E+00 0.24363731E+04</pdfrwt>
<totfact> 0.19912520E+00</totfact>
</mgrwt>
</event>
<event>
 6    1  0.1001928E-005  0.2331464E+04  0.7818608E-02  0.8465618E-01
          2   -1    0    0  501    0  0.00000000000E+00  0.00000000000E+00  0.29870742132E+04  0.29870742132E+04  0.00000000000E+00 0. -1.
         -2   -1    0    0    0  501 -0.00000000000E+00 -0.00000000000E+00 -0.45493705395E+03  0.45493705395E+03  0.00000000000E+00 0.  1.
         23    2    1    2    0    0 -0.78121945114E+02 -0.65632797070E+03  0.26824410410E+04  0.27641759624E+04  0.91155741289E+02 0.  0.
         11    1    3    3    0    0 -0.77363459066E+02 -0.33097819741E+03  0.12643565567E+04  0.13092475604E+04  0.00000000000E+00 0. -1.
        -11    1    3    3    0    0 -0.75848604868E+00 -0.32534977329E+03  0.14180844843E+04  0.14549284020E+04  0.00000000000E+00 0.  1.
         22    1    1    2    0    0  0.78121945114E+02  0.65632797070E+03 -0.15030388179E+03  0.67783530471E+03  0.00000000000E+00 0.  1.
<mgrwt>
<rscale>  0 0.23314637E+04</rscale>
<asrwt>0</asrwt>
<pdfrwt beam="1">  1        2 0.45954987E+00 0.23314637E+04</pdfrwt>
<pdfrwt beam="2">  1       -2 0.69990318E-01 0.23314637E+04</pdfrwt>
<totfact> 0.29848541E+00</totfact>
</mgrwt>
</event>
<event>
 6    1  0.1001928E-005  0.1169625E+04  0.7818608E-02  0.9139867E-01
          2   -1    0    0  501    0  0.00000000000E+00  0.00000000000E+00  0.13483124319E+03  0.13483124319E+03  0.00000000000E+00 0. -1.
         -2   -1    0    0    0  501 -0.00000000000E+00 -0.00000000000E+00 -0.25365467719E+04  0.25365467719E+04  0.00000000000E+00 0.  1.
         23    2    1    2    0    0  0.25960744069E+03 -0.24762948655E+02 -0.23946398880E+04  0.24104962573E+04  0.90458752987E+02 0.  0.
         11    1    3    3    0    0  0.12842012872E+03 -0.37529213248E+02 -0.87742219232E+03  0.88756401171E+03  0.00000000000E+00 0. -1.
        -11    1    3    3    0    0  0.13118731197E+03  0.12766264593E+02 -0.15172176957E+04  0.15229322455E+04  0.00000000000E+00 0.  1.
         22    1    1    2    0    0 -0.25960744069E+03  0.24762948655E+02 -0.70756407001E+01  0.26088175785E+03  0.00000000000E+00 0. -1.
<mgrwt>
<rscale>  0 0.11696252E+04</rscale>
<asrwt>0</asrwt>
<pdfrwt beam="1">  1        2 0.20743271E-01 0.11696252E+04</pdfrwt>
<pdfrwt beam="2">  1       -2 0.39023790E+00 0.11696252E+04</pdfrwt>
<totfact> 0.23626765E+00</totfact>
</mgrwt>
</event>
<event>
 6    1  0.1001928E-005  0.6523044E+03  0.7818608E-02  0.9802465E-01
          1   -1    0    0  501    0  0.00000000000E+00  0.00000000000E+00  0.47647867667E+03  0.47647867667E+03  0.00000000000E+00 0. -1.
         -1   -1    0    0    0  501 -0.00000000000E+00 -0.00000000000E+00 -0.22325293692E+03  0.22325293692E+03  0.00000000000E+00 0.  1.
         23    2    1    2    0    0  0.96863039080E+02  0.29422445452E+03  0.44487380516E+02  0.32620493369E+03  0.92087207390E+02 0.  0.
         11    1    3    3    0    0  0.10146880299E+03  0.20096506923E+03  0.56370765976E+02  0.23207873726E+03  0.00000000000E+00 0. -1.
        -11    1    3    3    0    0 -0.46057639106E+01  0.93259385282E+02 -0.11883385460E+02  0.94126196430E+02  0.00000000000E+00 0.  1.
         22    1    1    2    0    0 -0.96863039080E+02 -0.29422445452E+03  0.20873835923E+03  0.37352667989E+03  0.00000000000E+00 0. -1.
<mgrwt>
<rscale>  0 0.65230442E+03</rscale>
<asrwt>0</asrwt>
<pdfrwt beam="1">  1        1 0.73304412E-01 0.65230442E+03</pdfrwt>
<pdfrwt beam="2">  1       -1 0.34346606E-01 0.65230442E+03</pdfrwt>
<totfact> 0.38469856E+02</totfact>
</mgrwt>
</event>
<event>
 6    1  0.1001928E-005  0.1528338E+04  0.7818608E-02  0.8865824E-01
         -2   -1    0    0    0  501 -0.00000000000E+00  0.00000000000E+00  0.64545400685E+03  0.64545400685E+03  0.00000000000E+00 0. -1.
          2   -1    0    0  501    0  0.00000000000E+00 -0.00000000000E+00 -0.90471836917E+03  0.90471836917E+03  0.00000000000E+00 0.  1.
         23    2    1    2    0    0 -0.67639882290E+02 -0.71626636814E+03 -0.38337943709E+03  0.82009209579E+03  0.89210924219E+02 0.  0.
         13    1    3    3    0    0 -0.28552634343E+02 -0.52653503070E+03 -0.31731360516E+03  0.61542043799E+03  0.00000000000E+00 0. -1.
        -13    1    3    3    0    0 -0.39087247947E+02 -0.18973133744E+03 -0.66065831930E+02  0.20467165780E+03  0.00000000000E+00 0.  1.
         22    1    1    2    0    0  0.67639882290E+02  0.71626636814E+03  0.12411507477E+03  0.73008028023E+03  0.00000000000E+00 0. -1.
<mgrwt>
<rscale>  0 0.15283378E+04</rscale>
<asrwt>0</asrwt>
<pdfrwt beam="1">  1        2 0.13918744E+00 0.15283378E+04</pdfrwt>
<pdfrwt beam="2">  1       -2 0.99300616E-01 0.15283378E+04</pdfrwt>
<totfact> 0.23573741E+01</totfact>
</mgrwt>
</event>
<event>
 6    1  0.1001928E-005  0.2042686E+04  0.7818608E-02  0.8586920E-01
         -1   -1    0    0    0  501 -0.00000000000E+00  0.00000000000E+00  0.65913379232E+03  0.65913379232E+03  0.00000000000E+00 0.  1.
          1   -1    0    0  501    0  0.00000000000E+00 -0.00000000000E+00 -0.15825939905E+04  0.15825939905E+04  0.00000000000E+00 0. -1.
         23    2    1    2    0    0 -0.10098690217E+04 -0.10610660517E+03 -0.55950185480E+03  0.11630435249E+04  0.92378907628E+02 0.  0.
         11    1    3    3    0    0 -0.47237177565E+03 -0.76757079420E+02 -0.30606213938E+03  0.56806758122E+03  0.00000000000E+00 0. -1.
        -11    1    3    3    0    0 -0.53749724604E+03 -0.29349525746E+02 -0.25343971541E+03  0.59497594364E+03  0.00000000000E+00 0.  1.
         22    1    1    2    0    0  0.10098690217E+04  0.10610660517E+03 -0.36395834339E+03  0.10786842580E+04  0.00000000000E+00 0.  1.
<mgrwt>
<rscale>  0 0.20426857E+04</rscale>
<asrwt>0</asrwt>
<pdfrwt beam="1">  1        1 0.24347600E+00 0.20426857E+04</pdfrwt>
<pdfrwt beam="2">  1       -1 0.10140520E+00 0.20426857E+04</pdfrwt>
<totfact> 0.48930944E+00</totfact>
</mgrwt>
</event>
<event>
 6    1  0.1001928E-005  0.1308661E+04  0.7818608E-02  0.9022725E-01
         -1   -1    0    0    0  501 -0.00000000000E+00  0.00000000000E+00  0.23758260441E+04  0.23758260441E+04  0.00000000000E+00 0.  1.
          1   -1    0    0  501    0  0.00000000000E+00 -0.00000000000E+00 -0.18021035048E+03  0.18021035048E+03  0.00000000000E+00 0. -1.
         23    2    1    2    0    0 -0.23647442662E+03  0.50289686794E+03  0.17660068406E+04  0.18536197228E+04  0.91107087965E+02 0.  0.
         11    1    3    3    0    0 -0.15578453289E+03  0.22477495425E+03  0.87198366990E+03  0.91386438891E+03  0.00000000000E+00 0. -1.
        -11    1    3    3    0    0 -0.80689893726E+02  0.27812191369E+03  0.89402317070E+03  0.93975533389E+03  0.00000000000E+00 0.  1.
         22    1    1    2    0    0  0.23647442662E+03 -0.50289686794E+03  0.42960885306E+03  0.70241667182E+03  0.00000000000E+00 0. -1.
<mgrwt>
<rscale>  0 0.13086611E+04</rscale>
<asrwt>0</asrwt>
<pdfrwt beam="1">  1        1 0.27724671E-01 0.13086611E+04</pdfrwt>
<pdfrwt beam="2">  1       -1 0.36551168E+00 0.13086611E+04</pdfrwt>
<totfact> 0.20699642E+00</totfact>
</mgrwt>
</event>
<event>
 6    1  0.1001928E-005  0.1778962E+04  0.7818608E-02  0.8717568E-01
         -2   -1    0    0    0  501 -0.00000000000E+00  0.00000000000E+00  0.39283144157E+03  0.39283144157E+03  0.00000000000E+00 0.  1.
          2   -1    0    0  501    0  0.00000000000E+00 -0.00000000000E+00 -0.20140362361E+04  0.20140362361E+04  0.00000000000E+00 0. -1.
         23    2    1    2    0    0  0.81439311571E+03 -0.21308687627E+03 -0.11914764243E+04  0.14617176176E+04  0.91433912394E+02 0.  0.
         11    1    3    3    0    0  0.95880069813E+02 -0.26882764794E+02 -0.19751771462E+03  0.22119882102E+03  0.00000000000E+00 0.  1.
        -11    1    3    3    0    0  0.71851304590E+03 -0.18620411148E+03 -0.99395870964E+03  0.12405187966E+04  0.00000000000E+00 0. -1.
         22    1    1    2    0    0 -0.81439311571E+03  0.21308687627E+03 -0.42972837023E+03  0.94515006001E+03  0.00000000000E+00 0. -1.
<mgrwt>
<rscale>  0 0.17789623E+04</rscale>
<asrwt>0</asrwt>
<pdfrwt beam="1">  1        2 0.30985173E+00 0.17789623E+04</pdfrwt>
<pdfrwt beam="2">  1       -2 0.60435607E-01 0.17789623E+04</pdfrwt>
<totfact> 0.15827750E+01</totfact>
</mgrwt>
</event>
<event>
 6    1  0.1001928E-005  0.2828384E+04  0.7818608E-02  0.8294510E-01
          2   -1    0    0  501    0  0.00000000000E+00  0.00000000000E+00  0.14664599775E+04  0.14664599775E+04  0.00000000000E+00 0. -1.
         -2   -1    0    0    0  501 -0.00000000000E+00 -0.00000000000E+00 -0.13637865890E+04  0.13637865890E+04  0.00000000000E+00 0.  1.
         23    2    1    2    0    0 -0.10187772672E+03  0.83272660956E+03  0.11886669746E+04  0.14579511367E+04  0.94231963970E+02 0.  0.
         13    1    3    3    0    0 -0.49933591463E+02  0.35002861190E+03  0.58147246741E+03  0.68053186778E+03  0.00000000000E+00 0.  1.
        -13    1    3    3    0    0 -0.51944135257E+02  0.48269799766E+03  0.60719450718E+03  0.77741926892E+03  0.00000000000E+00 0. -1.
         22    1    1    2    0    0  0.10187772672E+03 -0.83272660956E+03 -0.10859935862E+04  0.13722954298E+04  0.00000000000E+00 0.  1.
<mgrwt>
<rscale>  0 0.28283836E+04</rscale>
<asrwt>0</asrwt>
<pdfrwt beam="1">  1        2 0.22560923E+00 0.28283836E+04</pdfrwt>
<pdfrwt beam="2">  1       -2 0.20981332E+00 0.28283836E+04</pdfrwt>
<totfact> 0.13220800E+00</totfact>
</mgrwt>
</event>
<event>
 6    1  0.1001928E-005  0.4251868E+04  0.7818608E-02  0.7955579E-01
         -2   -1    0    0    0  501 -0.00000000000E+00  0.00000000000E+00  0.22403141874E+04  0.22403141874E+04  0.00000000000E+00 0.  1.
          2   -1    0    0  501    0  0.00000000000E+00 -0.00000000000E+00 -0.20173933824E+04  0.20173933824E+04  0.00000000000E+00 0. -1.
         23    2    1    2    0    0 -0.20920309316E+04 -0.24219356750E+03 -0.17314392074E+03  0.21147847038E+04  0.84168780002E+02 0.  0.
         11    1    3    3    0    0 -0.11337042247E+04 -0.92877345620E+02 -0.11103630382E+03  0.11429088027E+04  0.00000000000E+00 0.  1.
        -11    1    3    3    0    0 -0.95832670687E+03 -0.14931622188E+03 -0.62107616921E+02  0.97187590118E+03  0.00000000000E+00 0. -1.
         22    1    1    2    0    0  0.20920309316E+04  0.24219356750E+03  0.39606472573E+03  0.21429228660E+04  0.00000000000E+00 0.  1.
<mgrwt>
<rscale>  0 0.42518678E+04</rscale>
<asrwt>0</asrwt>
<pdfrwt beam="1">  1        2 0.31036821E+00 0.42518678E+04</pdfrwt>
<pdfrwt beam="2">  1       -2 0.34466372E+00 0.42518678E+04</pdfrwt>
<totfact> 0.84893199E-02</totfact>
</mgrwt>
</event>
<event>
 6    1  0.1001928E-005  0.1347562E+04  0.7818608E-02  0.8992676E-01
         -2   -1    0    0    0  501 -0.00000000000E+00  0.00000000000E+00  0.29715812075E+03  0.29715812075E+03  0.00000000000E+00 0.  1.
          2   -1    0    0  501    0  0.00000000000E+00 -0.00000000000E+00 -0.15277420359E+04  0.15277420359E+04  0.00000000000E+00 0. -1.
         23    2    1    2    0    0  0.13894108522E+03 -0.65027323025E+03 -0.50279074416E+03  0.83907928098E+03  0.95370898172E+02 0.  0.
         11    1    3    3    0    0  0.11711378751E+03 -0.56167054369E+03 -0.47143613697E+03  0.74259105173E+03  0.00000000000E+00 0.  1.
        -11    1    3    3    0    0  0.21827297712E+02 -0.88602686564E+02 -0.31354607185E+02  0.96488229248E+02  0.00000000000E+00 0. -1.
         22    1    1    2    0    0 -0.13894108522E+03  0.65027323025E+03 -0.72779317094E+03  0.98582087562E+03  0.00000000000E+00 0. -1.
<mgrwt>
<rscale>  0 0.13475622E+04</rscale>
<asrwt>0</asrwt>
<pdfrwt beam="1">  1        2 0.23503724E+00 0.13475622E+04</pdfrwt>
<pdfrwt beam="2">  1       -2 0.45716634E-01 0.13475622E+04</pdfrwt>
<totfact> 0.54256902E+01</totfact>
</mgrwt>
</event>
<event>
 6    1  0.1001928E-005  0.3457055E+04  0.7818608E-02  0.8124043E-01
          2   -1    0    0  501    0  0.00000000000E+00  0.00000000000E+00  0.21884449566E+04  0.21884449566E+04  0.00000000000E+00 0. -1.
         -2   -1    0    0    0  501 -0.00000000000E+00 -0.00000000000E+00 -0.13652653046E+04  0.13652653046E+04  0.00000000000E+00 0.  1.
         23    2    1    2    0    0 -0.12518842440E+04 -0.77436900594E+03  0.13409081395E+04  0.19932922709E+04  0.91202637683E+02 0.  0.
         13    1    3    3    0    0 -0.10660218049E+04 -0.68331893411E+03  0.11843101132E+04  0.17337582584E+04  0.00000000000E+00 0. -1.
        -13    1    3    3    0    0 -0.18586243905E+03 -0.91050071831E+02  0.15659802630E+03  0.25953401256E+03  0.00000000000E+00 0.  1.
         22    1    1    2    0    0  0.12518842440E+04  0.77436900594E+03 -0.51772848740E+03  0.15604179903E+04  0.00000000000E+00 0. -1.
<mgrwt>
<rscale>  0 0.34570554E+04</rscale>
<asrwt>0</asrwt>
<pdfrwt beam="1">  1        2 0.33668384E+00 0.34570554E+04</pdfrwt>
<pdfrwt beam="2">  1       -2 0.21004082E+00 0.34570554E+04</pdfrwt>
<totfact> 0.49465954E-01</totfact>
</mgrwt>
</event>
<event>
 6    1  0.1001928E-005  0.4404893E+04  0.7818608E-02  0.7927502E-01
         -1   -1    0    0    0  501 -0.00000000000E+00  0.00000000000E+00  0.10338180623E+04  0.10338180623E+04  0.00000000000E+00 0.  1.
          1   -1    0    0  501    0  0.00000000000E+00 -0.00000000000E+00 -0.46920940944E+04  0.46920940944E+04  0.00000000000E+00 0. -1.
         23    2    1    2    0    0 -0.10396891093E+04 -0.13991026082E+04 -0.82310682532E+02  0.17477254172E+04  0.96579154777E+02 0.  0.
         13    1    3    3    0    0 -0.10046239047E+03 -0.18755814615E+03 -0.14369095079E+02  0.21325388855E+03  0.00000000000E+00 0.  1.
        -13    1    3    3    0    0 -0.93922671887E+03 -0.12115444620E+04 -0.67941587453E+02  0.15344715287E+04  0.00000000000E+00 0. -1.
         22    1    1    2    0    0  0.10396891093E+04  0.13991026082E+04 -0.35759653496E+04  0.39781867394E+04  0.00000000000E+00 0. -1.
<mgrwt>
<rscale>  0 0.44048935E+04</rscale>
<asrwt>0</asrwt>
<pdfrwt beam="1">  1        1 0.72186063E+00 0.44048935E+04</pdfrwt>
<pdfrwt beam="2">  1       -1 0.15904893E+00 0.44048935E+04</pdfrwt>
<totfact> 0.44835098E-03</totfact>
</mgrwt>
</event>
<event>
 6    1  0.1001928E-005  0.2475980E+04  0.7818608E-02  0.8411593E-01
          2   -1    0    0  501    0  0.00000000000E+00  0.00000000000E+00  0.10246166531E+04  0.10246166531E+04  0.00000000000E+00 0. -1.
         -2   -1    0    0    0  501 -0.00000000000E+00 -0.00000000000E+00 -0.14957980181E+04  0.14957980181E+04  0.00000000000E+00 0.  1.
         23    2    1    2    0    0  0.63532282764E+03 -0.85336229869E+03 -0.87690017863E+03  0.13817882777E+04  0.92317998517E+02 0.  0.
         13    1    3    3    0    0  0.59037398010E+03 -0.74813159674E+03 -0.77030656278E+03  0.12254038204E+04  0.00000000000E+00 0. -1.
        -13    1    3    3    0    0  0.44948847532E+02 -0.10523070195E+03 -0.10659361585E+03  0.15638445724E+03  0.00000000000E+00 0.  1.
         22    1    1    2    0    0 -0.63532282764E+03  0.85336229869E+03  0.40571881364E+03  0.11386263935E+04  0.00000000000E+00 0. -1.
<mgrwt>
<rscale>  0 0.24759803E+04</rscale>
<asrwt>0</asrwt>
<pdfrwt beam="1">  1        2 0.15763333E+00 0.24759803E+04</pdfrwt>
<pdfrwt beam="2">  1       -2 0.23012277E+00 0.24759803E+04</pdfrwt>
<totfact> 0.18523928E+00</totfact>
</mgrwt>
</event>
<event>
 6    1  0.1001928E-005  0.2631382E+04  0.7818608E-02  0.8357619E-01
          1   -1    0    0  501    0  0.00000000000E+00  0.00000000000E+00  0.17513257950E+04  0.17513257950E+04  0.00000000000E+00 0. -1.
         -1   -1    0    0    0  501 -0.00000000000E+00 -0.00000000000E+00 -0.98841846883E+03  0.98841846883E+03  0.00000000000E+00 0.  1.
         23    2    1    2    0    0  0.10149042790E+04  0.81261301584E+03  0.18421511983E+03  0.13166296238E+04  0.95957004614E+02 0.  0.
         13    1    3    3    0    0  0.47991303180E+03  0.33792728779E+03  0.11453673312E+03  0.59802176645E+03  0.00000000000E+00 0. -1.
        -13    1    3    3    0    0  0.53499124721E+03  0.47468572806E+03  0.69678386707E+02  0.71860785731E+03  0.00000000000E+00 0.  1.
         22    1    1    2    0    0 -0.10149042790E+04 -0.81261301584E+03  0.57869220633E+03  0.14231146400E+04  0.00000000000E+00 0. -1.
<mgrwt>
<rscale>  0 0.26313820E+04</rscale>
<asrwt>0</asrwt>
<pdfrwt beam="1">  1        1 0.26943474E+00 0.26313820E+04</pdfrwt>
<pdfrwt beam="2">  1       -1 0.15206438E+00 0.26313820E+04</pdfrwt>
<totfact> 0.12984803E+00</totfact>
</mgrwt>
</event>
<event>
 6    1  0.1114556E-005  0.4471332E+04  0.7818608E-02  0.7915675E-01
          2   -1    0    0  501    0  0.00000000000E+00  0.00000000000E+00  0.18959690377E+04  0.18959690377E+04  0.00000000000E+00 0. -1.
         -2   -1    0    0    0  501 -0.00000000000E+00 -0.00000000000E+00 -0.26362263324E+04  0.26362263324E+04  0.00000000000E+00 0.  1.
         23    2    1    2    0    0  0.13703963756E+03 -0.21712433856E+04  0.14569001084E+03  0.21831571989E+04  0.10895904700E+03 0.  0.
         11    1    3    3    0    0  0.10146131198E+03 -0.13590301008E+04  0.40761063906E+02  0.13634216799E+04  0.00000000000E+00 0. -1.
        -11    1    3    3    0    0  0.35578325580E+02 -0.81221328476E+03  0.10492894694E+03  0.81973551899E+03  0.00000000000E+00 0.  1.
         22    1    1    2    0    0 -0.13703963756E+03  0.21712433856E+04 -0.88594730552E+03  0.23490381712E+04  0.00000000000E+00 0.  1.
<mgrwt>
<rscale>  0 0.44713325E+04</rscale>
<asrwt>0</asrwt>
<pdfrwt beam="1">  1        2 0.29168755E+00 0.44713325E+04</pdfrwt>
<pdfrwt beam="2">  1       -2 0.40557328E+00 0.44713325E+04</pdfrwt>
<totfact> 0.39561410E-02</totfact>
</mgrwt>
</event>
<event>
 6    1  0.1001928E-005  0.2697109E+04  0.7818608E-02  0.8335943E-01
          2   -1    0    0  501    0  0.00000000000E+00  0.00000000000E+00  0.47091017498E+04  0.47091017498E+04  0.00000000000E+00 0. -1.
         -2   -1    0    0    0  501 -0.00000000000E+00 -0.00000000000E+00 -0.38618822952E+03  0.38618822952E+03  0.00000000000E+00 0.  1.
         23    2    1    2    0    0 -0.90150886704E+03 -0.99719136446E+03  0.20035952317E+04  0.24145538531E+04  0.92561343446E+02 0.  0.
         11    1    3    3    0    0 -0.59823286318E+03 -0.66186048749E+03  0.14065519346E+04  0.16656320747E+04  0.00000000000E+00 0. -1.
        -11    1    3    3    0    0 -0.30327600385E+03 -0.33533087697E+03  0.59704329711E+03  0.74892177841E+03  0.00000000000E+00 0.  1.
         22    1    1    2    0    0  0.90150886704E+03  0.99719136446E+03  0.23193182885E+04  0.26807361262E+04  0.00000000000E+00 0.  1.
<mgrwt>
<rscale>  0 0.26971093E+04</rscale>
<asrwt>0</asrwt>
<pdfrwt beam="1">  1        2 0.72447715E+00 0.26971093E+04</pdfrwt>
<pdfrwt beam="2">  1       -2 0.59413577E-01 0.26971093E+04</pdfrwt>
<totfact> 0.17471259E-01</totfact>
</mgrwt>
</event>
<event>
 6    1  0.1001928E-005  0.5224520E+03  0.7818608E-02  0.1008079E+00
         -1   -1    0    0    0  501 -0.00000000000E+00  0.00000000000E+00  0.89851939440E+02  0.89851939440E+02  0.00000000000E+00 0.  1.
          1   -1    0    0  501    0  0.00000000000E+00 -0.00000000000E+00 -0.75946084692E+03  0.75946084692E+03  0.00000000000E+00 0. -1.
         23    2    1    2    0    0  0.97793740697E+02  0.14734107204E+03 -0.63987431213E+03  0.66998862906E+03  0.90402547077E+02 0.  0.
         11    1    3    3    0    0  0.20070764507E+02  0.91039015801E+01 -0.22102934391E+03  0.22212538685E+03  0.00000000000E+00 0.  1.
        -11    1    3    3    0    0  0.77722976190E+02  0.13823717046E+03 -0.41884496821E+03  0.44786324221E+03  0.00000000000E+00 0. -1.
         22    1    1    2    0    0 -0.97793740697E+02 -0.14734107204E+03 -0.29734595347E+02  0.17932415730E+03  0.00000000000E+00 0.  1.
<mgrwt>
<rscale>  0 0.52245203E+03</rscale>
<asrwt>0</asrwt>
<pdfrwt beam="1">  1        1 0.11684013E+00 0.52245203E+03</pdfrwt>
<pdfrwt beam="2">  1       -1 0.13823375E-01 0.52245203E+03</pdfrwt>
<totfact> 0.91040970E+02</totfact>
</mgrwt>
</event>
<event>
 6    1  0.1001928E-005  0.2390087E+04  0.7818608E-02  0.8443224E-01
          1   -1    0    0  501    0  0.00000000000E+00  0.00000000000E+00  0.28593989686E+04  0.28593989686E+04  0.00000000000E+00 0. -1.
         -1   -1    0    0    0  501 -0.00000000000E+00 -0.00000000000E+00 -0.49945068623E+03  0.49945068623E+03  0.00000000000E+00 0.  1.
         23    2    1    2    0    0  0.57590128328E+03 -0.95547931779E+03  0.17767592818E+04  0.20999960394E+04  0.92232342465E+02 0.  0.
         11    1    3    3    0    0  0.11143620136E+03 -0.21397905469E+03  0.45240815990E+03  0.51271649668E+03  0.00000000000E+00 0. -1.
        -11    1    3    3    0    0  0.46446508192E+03 -0.74150026310E+03  0.13243511219E+04  0.15872795427E+04  0.00000000000E+00 0.  1.
         22    1    1    2    0    0 -0.57590128328E+03  0.95547931779E+03  0.58318900053E+03  0.12588536155E+04  0.00000000000E+00 0.  1.
<mgrwt>
<rscale>  0 0.23900868E+04</rscale>
<asrwt>0</asrwt>
<pdfrwt beam="1">  1        1 0.43990752E+00 0.23900868E+04</pdfrwt>
<pdfrwt beam="2">  1       -1 0.76838569E-01 0.23900868E+04</pdfrwt>
<totfact> 0.11516900E+00</totfact>
</mgrwt>
</event>
<event>
 6    1  0.1001928E-005  0.3399834E+03  0.7818608E-02  0.1066803E+00
         -2   -1    0    0    0  501 -0.00000000000E+00  0.00000000000E+00  0.12819759929E+02  0.12819759929E+02  0.00000000000E+00 0.  1.
          2   -1    0    0  501    0  0.00000000000E+00 -0.00000000000E+00 -0.22541124153E+04  0.22541124153E+04  0.00000000000E+00 0. -1.
         23    2    1    2    0    0 -0.94981150007E+02 -0.36774939163E+02 -0.20041318996E+04  0.20088255324E+04  0.91986594223E+02 0.  0.
         11    1    3    3    0    0 -0.28570613640E+02 -0.53780651830E+01 -0.13917364298E+04  0.13920400474E+04  0.00000000000E+00 0. -1.
        -11    1    3    3    0    0 -0.66410536368E+02 -0.31396873980E+02 -0.61239546983E+03  0.61678548500E+03  0.00000000000E+00 0.  1.
         22    1    1    2    0    0  0.94981150007E+02  0.36774939163E+02 -0.23716075575E+03  0.25810664283E+03  0.00000000000E+00 0.  1.
<mgrwt>
<rscale>  0 0.33998341E+03</rscale>
<asrwt>0</asrwt>
<pdfrwt beam="1">  1        2 0.34678664E+00 0.33998341E+03</pdfrwt>
<pdfrwt beam="2">  1       -2 0.19722701E-02 0.33998341E+03</pdfrwt>
<totfact> 0.42907965E+03</totfact>
</mgrwt>
</event>
<event>
 6    1  0.1001928E-005  0.2488110E+04  0.7818608E-02  0.8407234E-01
          1   -1    0    0  501    0  0.00000000000E+00  0.00000000000E+00  0.89901971236E+03  0.89901971236E+03  0.00000000000E+00 0. -1.
         -1   -1    0    0    0  501 -0.00000000000E+00 -0.00000000000E+00 -0.17215109238E+04  0.17215109238E+04  0.00000000000E+00 0.  1.
         23    2    1    2    0    0 -0.79965843130E+03 -0.73754001999E+03 -0.10437979477E+04  0.15103975093E+04  0.91474546641E+02 0.  0.
         11    1    3    3    0    0 -0.20684948501E+03 -0.14486898365E+03 -0.26790169979E+03  0.36816443694E+03  0.00000000000E+00 0. -1.
        -11    1    3    3    0    0 -0.59280894628E+03 -0.59267103634E+03 -0.77589624792E+03  0.11422330724E+04  0.00000000000E+00 0.  1.
         22    1    1    2    0    0  0.79965843130E+03  0.73754001999E+03  0.22130673625E+03  0.11101331269E+04  0.00000000000E+00 0.  1.
<mgrwt>
<rscale>  0 0.24881095E+04</rscale>
<asrwt>0</asrwt>
<pdfrwt beam="1">  1        1 0.13831072E+00 0.24881095E+04</pdfrwt>
<pdfrwt beam="2">  1       -1 0.26484784E+00 0.24881095E+04</pdfrwt>
<totfact> 0.90472301E-01</totfact>
</mgrwt>
</event>
<event>
 6    1  0.1001928E-005  0.2281443E+04  0.7818608E-02  0.8485274E-01
         -1   -1    0    0    0  501 -0.00000000000E+00  0.00000000000E+00  0.13857654772E+04  0.13857654772E+04  0.00000000000E+00 0.  1.
          1   -1    0    0  501    0  0.00000000000E+00 -0.00000000000E+00 -0.93900844203E+03  0.93900844203E+03  0.00000000000E+00 0. -1.
         23    2    1    2    0    0 -0.53618515146E+03  0.38687406715E+02  0.12468650509E+04  0.13608423507E+04  0.90709514835E+02 0.  0.
         13    1    3    3    0    0 -0.21251429847E+03 -0.11277329394E+02  0.40482204613E+03  0.45735149966E+03  0.00000000000E+00 0.  1.
        -13    1    3    3    0    0 -0.32367085299E+03  0.49964736110E+02  0.84204300482E+03  0.90349085103E+03  0.00000000000E+00 0. -1.
         22    1    1    2    0    0  0.53618515146E+03 -0.38687406715E+02 -0.80010801573E+03  0.96393156859E+03  0.00000000000E+00 0. -1.
<mgrwt>
<rscale>  0 0.22814429E+04</rscale>
<asrwt>0</asrwt>
<pdfrwt beam="1">  1        1 0.14446284E+00 0.22814429E+04</pdfrwt>
<pdfrwt beam="2">  1       -1 0.21319469E+00 0.22814429E+04</pdfrwt>
<totfact> 0.18727919E+00</totfact>
</mgrwt>
</event>
<event>
 6    1  0.1001928E-005  0.5752240E+03  0.7818608E-02  0.9958185E-01
          1   -1    0    0  501    0  0.00000000000E+00  0.00000000000E+00  0.51226570800E+03  0.51226570800E+03  0.00000000000E+00 0. -1.
         -1   -1    0    0    0  501 -0.00000000000E+00 -0.00000000000E+00 -0.16148001357E+03  0.16148001357E+03  0.00000000000E+00 0.  1.
         23    2    1    2    0    0 -0.21494932409E+03 -0.14025586914E+03  0.31161765355E+03  0.41411318088E+03  0.92245562600E+02 0.  0.
         11    1    3    3    0    0 -0.18284026169E+03 -0.91723353490E+02  0.18952271504E+03  0.27885945275E+03  0.00000000000E+00 0.  1.
        -11    1    3    3    0    0 -0.32109062395E+02 -0.48532515654E+02  0.12209493851E+03  0.13525372813E+03  0.00000000000E+00 0. -1.
         22    1    1    2    0    0  0.21494932409E+03  0.14025586914E+03  0.39168040888E+02  0.25963254069E+03  0.00000000000E+00 0.  1.
<mgrwt>
<rscale>  0 0.57522404E+03</rscale>
<asrwt>0</asrwt>
<pdfrwt beam="1">  1        1 0.78810108E-01 0.57522404E+03</pdfrwt>
<pdfrwt beam="2">  1       -1 0.24843079E-01 0.57522404E+03</pdfrwt>
<totfact> 0.61219441E+02</totfact>
</mgrwt>
</event>
<event>
 6    1  0.1001928E-005  0.2842940E+04  0.7818608E-02  0.8290060E-01
         -1   -1    0    0    0  501 -0.00000000000E+00  0.00000000000E+00  0.84252790788E+03  0.84252790788E+03  0.00000000000E+00 0.  1.
          1   -1    0    0  501    0  0.00000000000E+00 -0.00000000000E+00 -0.23982321767E+04  0.23982321767E+04  0.00000000000E+00 0. -1.
         23    2    1    2    0    0 -0.11700534429E+04  0.79618844813E+03 -0.91068826620E+03  0.16854508717E+04  0.91926157173E+02 0.  0.
         11    1    3    3    0    0 -0.10352655335E+04  0.73800591390E+03 -0.82015447601E+03  0.15129708584E+04  0.00000000000E+00 0.  1.
        -11    1    3    3    0    0 -0.13478790939E+03  0.58182534229E+02 -0.90533790186E+02  0.17248001325E+03  0.00000000000E+00 0. -1.
         22    1    1    2    0    0  0.11700534429E+04 -0.79618844813E+03 -0.64501600267E+03  0.15553092130E+04  0.00000000000E+00 0. -1.
<mgrwt>
<rscale>  0 0.28429404E+04</rscale>
<asrwt>0</asrwt>
<pdfrwt beam="1">  1        1 0.36895879E+00 0.28429404E+04</pdfrwt>
<pdfrwt beam="2">  1       -1 0.12961968E+00 0.28429404E+04</pdfrwt>
<totfact> 0.70183931E-01</totfact>
</mgrwt>
</event>
<event>
 6    1  0.1001928E-005  0.3081457E+04  0.7818608E-02  0.8220845E-01
         -2   -1    0    0    0  501 -0.00000000000E+00  0.00000000000E+00  0.19510997624E+04  0.19510997624E+04  0.00000000000E+00 0.  1.
          2   -1    0    0  501    0  0.00000000000E+00 -0.00000000000E+00 -0.12166695318E+04  0.12166695318E+04  0.00000000000E+00 0. -1.
         23    2    1    2    0    0 -0.15235852373E+04  0.10441740581E+03  0.56617044938E+03  0.16313688503E+04  0.92738223507E+02 0.  0.
         11    1    3    3    0    0 -0.42450755477E+03 -0.69777376694E+01  0.13521370629E+03  0.44557614304E+03  0.00000000000E+00 0. -1.
        -11    1    3    3    0    0 -0.10990776826E+04  0.11139514348E+03  0.43095674309E+03  0.11857927073E+04  0.00000000000E+00 0.  1.
         22    1    1    2    0    0  0.15235852373E+04 -0.10441740581E+03  0.16825978120E+03  0.15364004439E+04  0.00000000000E+00 0. -1.
<mgrwt>
<rscale>  0 0.30814566E+04</rscale>
<asrwt>0</asrwt>
<pdfrwt beam="1">  1        2 0.18717993E+00 0.30814566E+04</pdfrwt>
<pdfrwt beam="2">  1       -2 0.30016919E+00 0.30814566E+04</pdfrwt>
<totfact> 0.49905845E-01</totfact>
</mgrwt>
</event>
<event>
 6    1  0.1001928E-005  0.2502154E+04  0.7818608E-02  0.8402219E-01
          1   -1    0    0  501    0  0.00000000000E+00  0.00000000000E+00  0.88844806096E+03  0.88844806096E+03  0.00000000000E+00 0. -1.
         -1   -1    0    0    0  501 -0.00000000000E+00 -0.00000000000E+00 -0.17617161076E+04  0.17617161076E+04  0.00000000000E+00 0.  1.
         23    2    1    2    0    0 -0.71514554678E+03  0.16370761552E+03 -0.15085518302E+04  0.16796906644E+04  0.86016087191E+02 0.  0.
         11    1    3    3    0    0 -0.65375770880E+03  0.15415144465E+03 -0.13183171837E+04  0.14795681824E+04  0.00000000000E+00 0. -1.
        -11    1    3    3    0    0 -0.61387837971E+02  0.95561708701E+01 -0.19023464653E+03  0.20012248198E+03  0.00000000000E+00 0.  1.
         22    1    1    2    0    0  0.71514554678E+03 -0.16370761552E+03  0.63528378361E+03  0.97047350411E+03  0.00000000000E+00 0. -1.
<mgrwt>
<rscale>  0 0.25021537E+04</rscale>
<asrwt>0</asrwt>
<pdfrwt beam="1">  1        1 0.13668432E+00 0.25021537E+04</pdfrwt>
<pdfrwt beam="2">  1       -1 0.27103325E+00 0.25021537E+04</pdfrwt>
<totfact> 0.84054238E-01</totfact>
</mgrwt>
</event>
<event>
 6    1  0.1001928E-005  0.7355769E+03  0.7818608E-02  0.9658254E-01
          2   -1    0    0  501    0  0.00000000000E+00  0.00000000000E+00  0.94833703227E+03  0.94833703227E+03  0.00000000000E+00 0. -1.
         -2   -1    0    0    0  501 -0.00000000000E+00 -0.00000000000E+00 -0.14263743389E+03  0.14263743389E+03  0.00000000000E+00 0.  1.
         23    2    1    2    0    0  0.10302561557E+03 -0.38466021249E+02  0.92100787951E+03  0.93163234382E+03  0.87117149088E+02 0.  0.
         11    1    3    3    0    0  0.31531147857E+02  0.13513224022E+02  0.51366372719E+03  0.51480796919E+03  0.00000000000E+00 0.  1.
        -11    1    3    3    0    0  0.71494467713E+02 -0.51979245271E+02  0.40734415232E+03  0.41682437463E+03  0.00000000000E+00 0. -1.
         22    1    1    2    0    0 -0.10302561557E+03  0.38466021249E+02 -0.11530828114E+03  0.15934212234E+03  0.00000000000E+00 0.  1.
<mgrwt>
<rscale>  0 0.73557695E+03</rscale>
<asrwt>0</asrwt>
<pdfrwt beam="1">  1        2 0.14589800E+00 0.73557695E+03</pdfrwt>
<pdfrwt beam="2">  1       -2 0.21944221E-01 0.73557695E+03</pdfrwt>
<totfact> 0.49597494E+02</totfact>
</mgrwt>
</event>
<event>
 6    1  0.1001928E-005  0.6692681E+04  0.7818608E-02  0.7609987E-01
         -2   -1    0    0    0  501 -0.00000000000E+00  0.00000000000E+00  0.36666949932E+04  0.36666949932E+04  0.00000000000E+00 0.  1.
          2   -1    0    0  501    0  0.00000000000E+00 -0.00000000000E+00 -0.30539749064E+04  0.30539749064E+04  0.00000000000E+00 0. -1.
         23    2    1    2    0    0 -0.19053101487E+04 -0.10759028416E+04  0.28479926317E+04  0.35926965881E+04  0.92914243348E+02 0.  0.
         13    1    3    3    0    0 -0.60189557266E+03 -0.37719114280E+03  0.97192505394E+03  0.12038229725E+04  0.00000000000E+00 0.  1.
        -13    1    3    3    0    0 -0.13034145761E+04 -0.69871169881E+03  0.18760675777E+04  0.23888736156E+04  0.00000000000E+00 0. -1.
         22    1    1    2    0    0  0.19053101487E+04  0.10759028416E+04 -0.22352725449E+04  0.31279733115E+04  0.00000000000E+00 0. -1.
<mgrwt>
<rscale>  0 0.66926809E+04</rscale>
<asrwt>0</asrwt>
<pdfrwt beam="1">  1        2 0.46984229E+00 0.66926809E+04</pdfrwt>
<pdfrwt beam="2">  1       -2 0.56410692E+00 0.66926809E+04</pdfrwt>
<totfact> 0.76460327E-04</totfact>
</mgrwt>
</event>
<event>
 6    1  0.1001928E-005  0.1035069E+04  0.7818608E-02  0.9270896E-01
         -2   -1    0    0    0  501 -0.00000000000E+00  0.00000000000E+00  0.13841624937E+03  0.13841624937E+03  0.00000000000E+00 0.  1.
          2   -1    0    0  501    0  0.00000000000E+00 -0.00000000000E+00 -0.19350478344E+04  0.19350478344E+04  0.00000000000E+00 0. -1.
         23    2    1    2    0    0  0.38402434604E+03  0.34054679768E+03 -0.92758873107E+03  0.10641661586E+04  0.92638757029E+02 0.  0.
         13    1    3    3    0    0  0.22224465233E+03  0.16677330616E+03 -0.41724199297E+03  0.50129522423E+03  0.00000000000E+00 0. -1.
        -13    1    3    3    0    0  0.16177969371E+03  0.17377349152E+03 -0.51034673810E+03  0.56287093435E+03  0.00000000000E+00 0.  1.
         22    1    1    2    0    0 -0.38402434604E+03 -0.34054679768E+03 -0.86904285396E+03  0.10092979252E+04  0.00000000000E+00 0.  1.
<mgrwt>
<rscale>  0 0.10350692E+04</rscale>
<asrwt>0</asrwt>
<pdfrwt beam="1">  1        2 0.29769965E+00 0.10350692E+04</pdfrwt>
<pdfrwt beam="2">  1       -2 0.21294809E-01 0.10350692E+04</pdfrwt>
<totfact> 0.13875145E+02</totfact>
</mgrwt>
</event>
<event>
 6    1  0.1001928E-005  0.5177749E+03  0.7818608E-02  0.1009241E+00
          1   -1    0    0  501    0  0.00000000000E+00  0.00000000000E+00  0.38768029190E+03  0.38768029190E+03  0.00000000000E+00 0. -1.
         -1   -1    0    0    0  501 -0.00000000000E+00 -0.00000000000E+00 -0.17288140016E+03  0.17288140016E+03  0.00000000000E+00 0.  1.
         23    2    1    2    0    0  0.15528734167E+03  0.34828630931E+02  0.32130356578E+03  0.36906642421E+03  0.87446281134E+02 0.  0.
         11    1    3    3    0    0  0.53001528675E+02 -0.26494030466E+02  0.14037177382E+03  0.15236577889E+03  0.00000000000E+00 0. -1.
        -11    1    3    3    0    0  0.10228581300E+03  0.61322661397E+02  0.18093179195E+03  0.21670064532E+03  0.00000000000E+00 0.  1.
         22    1    1    2    0    0 -0.15528734167E+03 -0.34828630931E+02 -0.10650467404E+03  0.19149526785E+03  0.00000000000E+00 0.  1.
<mgrwt>
<rscale>  0 0.51777490E+03</rscale>
<asrwt>0</asrwt>
<pdfrwt beam="1">  1        1 0.59643122E-01 0.51777490E+03</pdfrwt>
<pdfrwt beam="2">  1       -1 0.26597139E-01 0.51777490E+03</pdfrwt>
<totfact> 0.79202572E+02</totfact>
</mgrwt>
</event>
<event>
 6    1  0.1001928E-005  0.2352222E+04  0.7818608E-02  0.8457611E-01
          1   -1    0    0  501    0  0.00000000000E+00  0.00000000000E+00  0.20444871623E+04  0.20444871623E+04  0.00000000000E+00 0. -1.
         -1   -1    0    0    0  501 -0.00000000000E+00 -0.00000000000E+00 -0.67656897396E+03  0.67656897396E+03  0.00000000000E+00 0.  1.
         23    2    1    2    0    0 -0.17006829808E+03 -0.10528532266E+04  0.11593551063E+03  0.10764030518E+04  0.88200592397E+02 0.  0.
         11    1    3    3    0    0 -0.71038850593E+02 -0.21482241490E+03  0.26929437186E+02  0.22786044594E+03  0.00000000000E+00 0. -1.
        -11    1    3    3    0    0 -0.99029447491E+02 -0.83803081173E+03  0.89006073443E+02  0.84854260588E+03  0.00000000000E+00 0.  1.
         22    1    1    2    0    0  0.17006829808E+03  0.10528532266E+04  0.12519826777E+04  0.16446530844E+04  0.00000000000E+00 0. -1.
<mgrwt>
<rscale>  0 0.23522216E+04</rscale>
<asrwt>0</asrwt>
<pdfrwt beam="1">  1        1 0.31453648E+00 0.23522216E+04</pdfrwt>
<pdfrwt beam="2">  1       -1 0.10408754E+00 0.23522216E+04</pdfrwt>
<totfact> 0.21727996E+00</totfact>
</mgrwt>
</event>
<event>
 6    1  0.1001928E-005  0.2224590E+04  0.7818608E-02  0.8508262E-01
          1   -1    0    0  501    0  0.00000000000E+00  0.00000000000E+00  0.23302862690E+04  0.23302862690E+04  0.00000000000E+00 0. -1.
         -1   -1    0    0    0  501 -0.00000000000E+00 -0.00000000000E+00 -0.53092208497E+03  0.53092208497E+03  0.00000000000E+00 0.  1.
         23    2    1    2    0    0 -0.72026416634E+03  0.84527451444E+03  0.90706403434E+03  0.14366140148E+04  0.88460109570E+02 0.  0.
         11    1    3    3    0    0 -0.55232050759E+03  0.59185040222E+03  0.67820957466E+03  0.10560838361E+04  0.00000000000E+00 0. -1.
        -11    1    3    3    0    0 -0.16794365876E+03  0.25342411221E+03  0.22885445969E+03  0.38053017868E+03  0.00000000000E+00 0.  1.
         22    1    1    2    0    0  0.72026416634E+03 -0.84527451444E+03  0.89230014966E+03  0.14245943392E+04  0.00000000000E+00 0. -1.
<mgrwt>
<rscale>  0 0.22245902E+04</rscale>
<asrwt>0</asrwt>
<pdfrwt beam="1">  1        1 0.35850558E+00 0.22245902E+04</pdfrwt>
<pdfrwt beam="2">  1       -1 0.81680322E-01 0.22245902E+04</pdfrwt>
<totfact> 0.24080386E+00</totfact>
</mgrwt>
</event>
<event>
 6    1  0.1001928E-005  0.4077555E+04  0.7818608E-02  0.7989081E-01
          2   -1    0    0  501    0  0.00000000000E+00  0.00000000000E+00  0.35454860344E+04  0.35454860344E+04  0.00000000000E+00 0.  1.
         -2   -1    0    0    0  501 -0.00000000000E+00 -0.00000000000E+00 -0.11723679846E+04  0.11723679846E+04  0.00000000000E+00 0. -1.
         23    2    1    2    0    0  0.13519862914E+04  0.12153753500E+04  0.12234904812E+03  0.18245919720E+04  0.95720432559E+02 0.  0.
         13    1    3    3    0    0  0.66905337085E+03  0.58391834597E+03  0.13620831965E+02  0.88813207062E+03  0.00000000000E+00 0. -1.
        -13    1    3    3    0    0  0.68293292057E+03  0.63145700398E+03  0.10872821616E+03  0.93645990136E+03  0.00000000000E+00 0.  1.
         22    1    1    2    0    0 -0.13519862914E+04 -0.12153753500E+04  0.22507690017E+04  0.28932620470E+04  0.00000000000E+00 0.  1.
<mgrwt>
<rscale>  0 0.40775553E+04</rscale>
<asrwt>0</asrwt>
<pdfrwt beam="1">  1        2 0.54545938E+00 0.40775553E+04</pdfrwt>
<pdfrwt beam="2">  1       -2 0.18036431E+00 0.40775553E+04</pdfrwt>
<totfact> 0.10651360E-01</totfact>
</mgrwt>
</event>
<event>
 6    1  0.1001928E-005  0.7023541E+03  0.7818608E-02  0.9713215E-01
          1   -1    0    0  501    0  0.00000000000E+00  0.00000000000E+00  0.11591808402E+04  0.11591808402E+04  0.00000000000E+00 0. -1.
         -1   -1    0    0    0  501 -0.00000000000E+00 -0.00000000000E+00 -0.10639007388E+03  0.10639007388E+03  0.00000000000E+00 0.  1.
         23    2    1    2    0    0 -0.30927274310E+03  0.10640687123E+03  0.73476852030E+03  0.80937994441E+03  0.90769290597E+02 0.  0.
         13    1    3    3    0    0 -0.94041951697E+02  0.11582198519E+02  0.30609411250E+03  0.32042415906E+03  0.00000000000E+00 0.  1.
        -13    1    3    3    0    0 -0.21523079140E+03  0.94824672712E+02  0.42867440780E+03  0.48895578534E+03  0.00000000000E+00 0. -1.
         22    1    1    2    0    0  0.30927274310E+03 -0.10640687123E+03  0.31802224606E+03  0.45619096972E+03  0.00000000000E+00 0.  1.
<mgrwt>
<rscale>  0 0.70235414E+03</rscale>
<asrwt>0</asrwt>
<pdfrwt beam="1">  1        1 0.17833551E+00 0.70235414E+03</pdfrwt>
<pdfrwt beam="2">  1       -1 0.16367704E-01 0.70235414E+03</pdfrwt>
<totfact> 0.33137662E+02</totfact>
</mgrwt>
</event>
<event>
 6    1  0.1001928E-005  0.3147095E+04  0.7818608E-02  0.8202931E-01
         -1   -1    0    0    0  501 -0.00000000000E+00  0.00000000000E+00  0.13215953156E+04  0.13215953156E+04  0.00000000000E+00 0.  1.
          1   -1    0    0  501    0  0.00000000000E+00 -0.00000000000E+00 -0.18735321628E+04  0.18735321628E+04  0.00000000000E+00 0. -1.
         23    2    1    2    0    0  0.55898956855E+03 -0.12815329853E+04  0.45356090698E+03  0.14729713112E+04  0.95555518409E+02 0.  0.
         11    1    3    3    0    0  0.23118199545E+03 -0.64730490674E+03  0.21293120586E+03  0.71957519116E+03  0.00000000000E+00 0.  1.
        -11    1    3    3    0    0  0.32780757310E+03 -0.63422807859E+03  0.24062970111E+03  0.75339612006E+03  0.00000000000E+00 0. -1.
         22    1    1    2    0    0 -0.55898956855E+03  0.12815329853E+04 -0.10054977542E+04  0.17221561671E+04  0.00000000000E+00 0. -1.
<mgrwt>
<rscale>  0 0.31470947E+04</rscale>
<asrwt>0</asrwt>
<pdfrwt beam="1">  1        1 0.28823572E+00 0.31470947E+04</pdfrwt>
<pdfrwt beam="2">  1       -1 0.20332236E+00 0.31470947E+04</pdfrwt>
<totfact> 0.43578139E-01</totfact>
</mgrwt>
</event>
<event>
 6    1  0.1001928E-005  0.1364144E+04  0.7818608E-02  0.8980190E-01
          1   -1    0    0  501    0  0.00000000000E+00  0.00000000000E+00  0.32394843972E+03  0.32394843972E+03  0.00000000000E+00 0. -1.
         -1   -1    0    0    0  501 -0.00000000000E+00 -0.00000000000E+00 -0.14360997707E+04  0.14360997707E+04  0.00000000000E+00 0.  1.
         23    2    1    2    0    0  0.13590404068E+03  0.58725245504E+03 -0.15514449006E+03  0.62903209747E+03  0.90973691948E+02 0.  0.
         11    1    3    3    0    0  0.11775106308E+03  0.51907970761E+03 -0.10512231562E+03  0.54254931292E+03  0.00000000000E+00 0.  1.
        -11    1    3    3    0    0  0.18152977599E+02  0.68172747433E+02 -0.50022174436E+02  0.86482784550E+02  0.00000000000E+00 0. -1.
         22    1    1    2    0    0 -0.13590404068E+03 -0.58725245504E+03 -0.95700684096E+03  0.11310161130E+04  0.00000000000E+00 0.  1.
<mgrwt>
<rscale>  0 0.13641441E+04</rscale>
<asrwt>0</asrwt>
<pdfrwt beam="1">  1        1 0.49838221E-01 0.13641441E+04</pdfrwt>
<pdfrwt beam="2">  1       -1 0.22093843E+00 0.13641441E+04</pdfrwt>
<totfact> 0.84114039E+00</totfact>
</mgrwt>
</event>
<event>
 6    1  0.1001928E-005  0.4687830E+04  0.7818608E-02  0.7878554E-01
          2   -1    0    0  501    0  0.00000000000E+00  0.00000000000E+00  0.22381358010E+04  0.22381358010E+04  0.00000000000E+00 0. -1.
         -2   -1    0    0    0  501 -0.00000000000E+00 -0.00000000000E+00 -0.24546938879E+04  0.24546938879E+04  0.00000000000E+00 0.  1.
         23    2    1    2    0    0  0.92560960366E+03  0.12197853716E+04  0.16669564627E+04  0.22654326160E+04  0.93870112671E+02 0.  0.
         11    1    3    3    0    0  0.18791918838E+03  0.19645729122E+03  0.26938725485E+03  0.38272520392E+03  0.00000000000E+00 0.  1.
        -11    1    3    3    0    0  0.73769041528E+03  0.10233280803E+04  0.13975692078E+04  0.18827074121E+04  0.00000000000E+00 0. -1.
         22    1    1    2    0    0 -0.92560960366E+03 -0.12197853716E+04 -0.18835145496E+04  0.24273970729E+04  0.00000000000E+00 0.  1.
<mgrwt>
<rscale>  0 0.46878303E+04</rscale>
<asrwt>0</asrwt>
<pdfrwt beam="1">  1        2 0.34432859E+00 0.46878303E+04</pdfrwt>
<pdfrwt beam="2">  1       -2 0.37764521E+00 0.46878303E+04</pdfrwt>
<totfact> 0.38033638E-02</totfact>
</mgrwt>
</event>
<event>
 6    1  0.1001928E-005  0.1207562E+04  0.7818608E-02  0.9106263E-01
         -1   -1    0    0    0  501 -0.00000000000E+00  0.00000000000E+00  0.11691514680E+03  0.11691514680E+03  0.00000000000E+00 0.  1.
          1   -1    0    0  501    0  0.00000000000E+00 -0.00000000000E+00 -0.31180868176E+04  0.31180868176E+04  0.00000000000E+00 0. -1.
         23    2    1    2    0    0 -0.23683165675E+03  0.43309383395E+03 -0.24244653573E+04  0.24758908561E+04  0.91344185326E+02 0.  0.
         11    1    3    3    0    0 -0.93991790176E+02  0.10774669137E+03 -0.56739260004E+03  0.58513089878E+03  0.00000000000E+00 0. -1.
        -11    1    3    3    0    0 -0.14283986658E+03  0.32534714258E+03 -0.18570727572E+04  0.18907599573E+04  0.00000000000E+00 0.  1.
         22    1    1    2    0    0  0.23683165675E+03 -0.43309383395E+03 -0.57670631358E+03  0.75911110832E+03  0.00000000000E+00 0.  1.
<mgrwt>
<rscale>  0 0.12075621E+04</rscale>
<asrwt>0</asrwt>
<pdfrwt beam="1">  1        1 0.47970557E+00 0.12075621E+04</pdfrwt>
<pdfrwt beam="2">  1       -1 0.17986949E-01 0.12075621E+04</pdfrwt>
<totfact> 0.11992852E+01</totfact>
</mgrwt>
</event>
<event>
 6    1  0.1001928E-005  0.2446744E+04  0.7818608E-02  0.8422208E-01
          2   -1    0    0  501    0  0.00000000000E+00  0.00000000000E+00  0.81487624993E+03  0.81487624993E+03  0.00000000000E+00 0. -1.
         -2   -1    0    0    0  501 -0.00000000000E+00 -0.00000000000E+00 -0.18366455881E+04  0.18366455881E+04  0.00000000000E+00 0.  1.
         23    2    1    2    0    0 -0.24975793282E+03 -0.11748716134E+04 -0.75326268934E+03  0.14207504729E+04  0.91787222449E+02 0.  0.
         11    1    3    3    0    0 -0.12271150218E+03 -0.40689768777E+03 -0.29676720746E+03  0.51835761450E+03  0.00000000000E+00 0.  1.
        -11    1    3    3    0    0 -0.12704643064E+03 -0.76797392558E+03 -0.45649548188E+03  0.90239285839E+03  0.00000000000E+00 0. -1.
         22    1    1    2    0    0  0.24975793282E+03  0.11748716134E+04 -0.26850664887E+03  0.12307713652E+04  0.00000000000E+00 0. -1.
<mgrwt>
<rscale>  0 0.24467439E+04</rscale>
<asrwt>0</asrwt>
<pdfrwt beam="1">  1        2 0.12536558E+00 0.24467439E+04</pdfrwt>
<pdfrwt beam="2">  1       -2 0.28256086E+00 0.24467439E+04</pdfrwt>
<totfact> 0.12230902E+00</totfact>
</mgrwt>
</event>
<event>
 6    1  0.1517749E-005  0.5094495E+04  0.7818608E-02  0.7814093E-01
         -2   -1    0    0    0  501 -0.00000000000E+00  0.00000000000E+00  0.25339662203E+04  0.25339662203E+04  0.00000000000E+00 0. -1.
          2   -1    0    0  501    0  0.00000000000E+00 -0.00000000000E+00 -0.25605987762E+04  0.25605987762E+04  0.00000000000E+00 0.  1.
         23    2    1    2    0    0 -0.84955985632E+03 -0.12895404137E+04 -0.20376309103E+04  0.25590609422E+04  0.11039361874E+03 0.  0.
         11    1    3    3    0    0 -0.45200979773E+03 -0.77751643510E+03 -0.12185603824E+04  0.15145078639E+04  0.00000000000E+00 0. -1.
        -11    1    3    3    0    0 -0.39755005859E+03 -0.51202397857E+03 -0.81907052787E+03  0.10445530783E+04  0.00000000000E+00 0.  1.
         22    1    1    2    0    0  0.84955985632E+03  0.12895404137E+04  0.20109983545E+04  0.25355040544E+04  0.00000000000E+00 0. -1.
<mgrwt>
<rscale>  0 0.50944954E+04</rscale>
<asrwt>0</asrwt>
<pdfrwt beam="1">  1        2 0.39393827E+00 0.50944954E+04</pdfrwt>
<pdfrwt beam="2">  1       -2 0.38984096E+00 0.50944954E+04</pdfrwt>
<totfact> 0.20061052E-02</totfact>
</mgrwt>
</event>
<event>
 6    1  0.1001928E-005  0.3279630E+04  0.7818608E-02  0.8168098E-01
          2   -1    0    0  501    0  0.00000000000E+00  0.00000000000E+00  0.20573604312E+04  0.20573604312E+04  0.00000000000E+00 0. -1.
         -2   -1    0    0    0  501 -0.00000000000E+00 -0.00000000000E+00 -0.13070114798E+04  0.13070114798E+04  0.00000000000E+00 0.  1.
         23    2    1    2    0    0  0.15015593889E+04  0.45789726795E+03  0.85751282517E+03  0.17908934070E+04  0.87295151703E+02 0.  0.
         13    1    3    3    0    0  0.95240157831E+03  0.32464330067E+03  0.51918591889E+03  0.11322614793E+04  0.00000000000E+00 0. -1.
        -13    1    3    3    0    0  0.54915781064E+03  0.13325396729E+03  0.33832690628E+03  0.65863192778E+03  0.00000000000E+00 0.  1.
         22    1    1    2    0    0 -0.15015593889E+04 -0.45789726795E+03 -0.10716387375E+03  0.15734785039E+04  0.00000000000E+00 0.  1.
<mgrwt>
<rscale>  0 0.32796303E+04</rscale>
<asrwt>0</asrwt>
<pdfrwt beam="1">  1        2 0.31651699E+00 0.32796303E+04</pdfrwt>
<pdfrwt beam="2">  1       -2 0.20107869E+00 0.32796303E+04</pdfrwt>
<totfact> 0.67951893E-01</totfact>
</mgrwt>
</event>
<event>
 6    1  0.1001928E-005  0.7460830E+03  0.7818608E-02  0.9641516E-01
         -1   -1    0    0    0  501 -0.00000000000E+00  0.00000000000E+00  0.16736474844E+03  0.16736474844E+03  0.00000000000E+00 0.  1.
          1   -1    0    0  501    0  0.00000000000E+00 -0.00000000000E+00 -0.83147717041E+03  0.83147717041E+03  0.00000000000E+00 0. -1.
         23    2    1    2    0    0 -0.15980510999E+03  0.17609968227E+03 -0.71212278372E+03  0.75624396728E+03  0.90759614765E+02 0.  0.
         11    1    3    3    0    0 -0.65707248621E+02  0.21519691538E+02 -0.26538497895E+03  0.27424391825E+03  0.00000000000E+00 0. -1.
        -11    1    3    3    0    0 -0.94097861369E+02  0.15457999073E+03 -0.44673780477E+03  0.48200004902E+03  0.00000000000E+00 0.  1.
         22    1    1    2    0    0  0.15980510999E+03 -0.17609968227E+03  0.48010361745E+02  0.24259795157E+03  0.00000000000E+00 0.  1.
<mgrwt>
<rscale>  0 0.74608302E+03</rscale>
<asrwt>0</asrwt>
<pdfrwt beam="1">  1        1 0.12791957E+00 0.74608302E+03</pdfrwt>
<pdfrwt beam="2">  1       -1 0.25748423E-01 0.74608302E+03</pdfrwt>
<totfact> 0.27944284E+02</totfact>
</mgrwt>
</event>
<event>
 6    1  0.1001928E-005  0.3003884E+04  0.7818608E-02  0.8242623E-01
         -2   -1    0    0    0  501 -0.00000000000E+00  0.00000000000E+00  0.59148738317E+03  0.59148738317E+03  0.00000000000E+00 0.  1.
          2   -1    0    0  501    0  0.00000000000E+00 -0.00000000000E+00 -0.38138247478E+04  0.38138247478E+04  0.00000000000E+00 0. -1.
         23    2    1    2    0    0 -0.14424819334E+04  0.23034610234E+03 -0.11139144576E+04  0.18403051895E+04  0.11001961787E+03 0.  0.
         13    1    3    3    0    0 -0.51520747005E+03  0.10570159624E+03 -0.46119401169E+03  0.69950802787E+03  0.00000000000E+00 0.  1.
        -13    1    3    3    0    0 -0.92727446339E+03  0.12464450610E+03 -0.65272044591E+03  0.11407971616E+04  0.00000000000E+00 0. -1.
         22    1    1    2    0    0  0.14424819334E+04 -0.23034610234E+03 -0.21084229070E+04  0.25650069415E+04  0.00000000000E+00 0. -1.
<mgrwt>
<rscale>  0 0.30038836E+04</rscale>
<asrwt>0</asrwt>
<pdfrwt beam="1">  1        2 0.58674227E+00 0.30038836E+04</pdfrwt>
<pdfrwt beam="2">  1       -2 0.90998058E-01 0.30038836E+04</pdfrwt>
<totfact> 0.42227352E-01</totfact>
</mgrwt>
</event>
<event>
 6    1  0.1001928E-005  0.2004605E+04  0.7818608E-02  0.8604471E-01
          2   -1    0    0  501    0  0.00000000000E+00  0.00000000000E+00  0.95669813345E+03  0.95669813345E+03  0.00000000000E+00 0. -1.
         -2   -1    0    0    0  501 -0.00000000000E+00 -0.00000000000E+00 -0.10500803559E+04  0.10500803559E+04  0.00000000000E+00 0.  1.
         23    2    1    2    0    0 -0.54514549671E+03 -0.24441814499E+03 -0.84973430243E+03  0.10429360172E+04  0.93505663822E+02 0.  0.
         11    1    3    3    0    0 -0.32640856775E+03 -0.15887072743E+03 -0.59018532882E+03  0.69289334208E+03  0.00000000000E+00 0.  1.
        -11    1    3    3    0    0 -0.21873692896E+03 -0.85547417558E+02 -0.25954897360E+03  0.35004267517E+03  0.00000000000E+00 0. -1.
         22    1    1    2    0    0  0.54514549671E+03  0.24441814499E+03  0.75635207997E+03  0.96384247212E+03  0.00000000000E+00 0. -1.
<mgrwt>
<rscale>  0 0.20046046E+04</rscale>
<asrwt>0</asrwt>
<pdfrwt beam="1">  1        2 0.14718433E+00 0.20046046E+04</pdfrwt>
<pdfrwt beam="2">  1       -2 0.16155082E+00 0.20046046E+04</pdfrwt>
<totfact> 0.61224296E+00</totfact>
</mgrwt>
</event>
<event>
 6    1  0.1124591E-005  0.4008705E+04  0.7818608E-02  0.8002793E-01
         -1   -1    0    0    0  501 -0.00000000000E+00  0.00000000000E+00  0.13781804202E+04  0.13781804202E+04  0.00000000000E+00 0.  1.
          1   -1    0    0  501    0  0.00000000000E+00 -0.00000000000E+00 -0.29150234711E+04  0.29150234711E+04  0.00000000000E+00 0. -1.
         23    2    1    2    0    0  0.16607437161E+03  0.73848975010E+03 -0.27555242323E+04  0.28585849071E+04  0.75140324350E+02 0.  0.
         11    1    3    3    0    0  0.85192258334E+02  0.28235111621E+03 -0.11862315320E+04  0.12223441091E+04  0.00000000000E+00 0. -1.
        -11    1    3    3    0    0  0.80882113276E+02  0.45613863389E+03 -0.15692927004E+04  0.16362407980E+04  0.00000000000E+00 0.  1.
         22    1    1    2    0    0 -0.16607437161E+03 -0.73848975010E+03  0.12186811814E+04  0.14346189842E+04  0.00000000000E+00 0.  1.
<mgrwt>
<rscale>  0 0.40087047E+04</rscale>
<asrwt>0</asrwt>
<pdfrwt beam="1">  1        1 0.44846515E+00 0.40087047E+04</pdfrwt>
<pdfrwt beam="2">  1       -1 0.21202776E+00 0.40087047E+04</pdfrwt>
<totfact> 0.67094118E-02</totfact>
</mgrwt>
</event>
<event>
 6    1  0.1001928E-005  0.2000170E+04  0.7818608E-02  0.8606541E-01
         -2   -1    0    0    0  501 -0.00000000000E+00  0.00000000000E+00  0.21508521899E+04  0.21508521899E+04  0.00000000000E+00 0.  1.
          2   -1    0    0  501    0  0.00000000000E+00 -0.00000000000E+00 -0.46501099519E+03  0.46501099519E+03  0.00000000000E+00 0. -1.
         23    2    1    2    0    0 -0.25667002503E+03 -0.33837940814E+03  0.20257852726E+04  0.20718575769E+04  0.91693634030E+02 0.  0.
         11    1    3    3    0    0 -0.14491601124E+03 -0.23130640442E+03  0.14594560279E+04  0.14847609910E+04  0.00000000000E+00 0.  1.
        -11    1    3    3    0    0 -0.11175401379E+03 -0.10707300373E+03  0.56632924474E+03  0.58709658590E+03  0.00000000000E+00 0. -1.
         22    1    1    2    0    0  0.25667002503E+03  0.33837940814E+03 -0.33994407793E+03  0.54400560818E+03  0.00000000000E+00 0. -1.
<mgrwt>
<rscale>  0 0.20001699E+04</rscale>
<asrwt>0</asrwt>
<pdfrwt beam="1">  1        2 0.71540154E-01 0.20001699E+04</pdfrwt>
<pdfrwt beam="2">  1       -2 0.33090033E+00 0.20001699E+04</pdfrwt>
<totfact> 0.12775709E+00</totfact>
</mgrwt>
</event>
<event>
 6    1  0.1001928E-005  0.1104147E+04  0.7818608E-02  0.9201159E-01
          1   -1    0    0  501    0  0.00000000000E+00  0.00000000000E+00  0.63838829455E+03  0.63838829455E+03  0.00000000000E+00 0. -1.
         -1   -1    0    0    0  501 -0.00000000000E+00 -0.00000000000E+00 -0.47742940436E+03  0.47742940436E+03  0.00000000000E+00 0.  1.
         23    2    1    2    0    0  0.45055120193E+02 -0.47645993726E+03  0.35140255585E+03  0.60073243853E+03  0.91387475986E+02 0.  0.
         13    1    3    3    0    0  0.28524370493E+02 -0.35686189025E+02  0.40908495525E+02  0.61324129062E+02  0.00000000000E+00 0. -1.
        -13    1    3    3    0    0  0.16530749700E+02 -0.44077374823E+03  0.31049406033E+03  0.53940830946E+03  0.00000000000E+00 0.  1.
         22    1    1    2    0    0 -0.45055120193E+02  0.47645993726E+03 -0.19044366567E+03  0.51508526038E+03  0.00000000000E+00 0.  1.
<mgrwt>
<rscale>  0 0.11041474E+04</rscale>
<asrwt>0</asrwt>
<pdfrwt beam="1">  1        1 0.98213584E-01 0.11041474E+04</pdfrwt>
<pdfrwt beam="2">  1       -1 0.73450677E-01 0.11041474E+04</pdfrwt>
<totfact> 0.58224210E+01</totfact>
</mgrwt>
</event>
<event>
 6    1  0.1001928E-005  0.1844353E+04  0.7818608E-02  0.8683062E-01
          2   -1    0    0  501    0  0.00000000000E+00  0.00000000000E+00  0.25970227696E+04  0.25970227696E+04  0.00000000000E+00 0. -1.
         -2   -1    0    0    0  501 -0.00000000000E+00 -0.00000000000E+00 -0.32745566790E+03  0.32745566790E+03  0.00000000000E+00 0.  1.
         23    2    1    2    0    0  0.35828168198E+02  0.57289531640E+03 -0.26381693512E+01  0.58088941743E+03  0.89066571445E+02 0.  0.
         11    1    3    3    0    0  0.61647332853E+02  0.28885704886E+03  0.81739285234E+01  0.29547521288E+03  0.00000000000E+00 0. -1.
        -11    1    3    3    0    0 -0.25819164655E+02  0.28403826755E+03 -0.10812097875E+02  0.28541420455E+03  0.00000000000E+00 0.  1.
         22    1    1    2    0    0 -0.35828168198E+02 -0.57289531640E+03  0.22722052710E+04  0.23435890201E+04  0.00000000000E+00 0. -1.
<mgrwt>
<rscale>  0 0.18443534E+04</rscale>
<asrwt>0</asrwt>
<pdfrwt beam="1">  1        2 0.39954195E+00 0.18443534E+04</pdfrwt>
<pdfrwt beam="2">  1       -2 0.50377797E-01 0.18443534E+04</pdfrwt>
<totfact> 0.10725964E+01</totfact>
</mgrwt>
</event>
<event>
 6    1  0.1001928E-005  0.1908140E+04  0.7818608E-02  0.8650815E-01
          2   -1    0    0  501    0  0.00000000000E+00  0.00000000000E+00  0.71181211284E+03  0.71181211284E+03  0.00000000000E+00 0. -1.
         -2   -1    0    0    0  501 -0.00000000000E+00 -0.00000000000E+00 -0.12787776933E+04  0.12787776933E+04  0.00000000000E+00 0.  1.
         23    2    1    2    0    0  0.22600411122E+03  0.88115556397E+03 -0.57674577939E+03  0.10808598250E+04  0.90051546912E+02 0.  0.
         13    1    3    3    0    0  0.86198831405E+02  0.46996296637E+03 -0.26627236416E+03  0.54698848270E+03  0.00000000000E+00 0.  1.
        -13    1    3    3    0    0  0.13980527982E+03  0.41119259760E+03 -0.31047341523E+03  0.53387134232E+03  0.00000000000E+00 0. -1.
         22    1    1    2    0    0 -0.22600411122E+03 -0.88115556397E+03  0.97801989533E+01  0.90972998109E+03  0.00000000000E+00 0. -1.
<mgrwt>
<rscale>  0 0.19081399E+04</rscale>
<asrwt>0</asrwt>
<pdfrwt beam="1">  1        2 0.10950956E+00 0.19081399E+04</pdfrwt>
<pdfrwt beam="2">  1       -2 0.19673503E+00 0.19081399E+04</pdfrwt>
<totfact> 0.52433285E+00</totfact>
</mgrwt>
</event>
<event>
 6    1  0.1001928E-005  0.4083954E+04  0.7818608E-02  0.7987821E-01
         -2   -1    0    0    0  501 -0.00000000000E+00  0.00000000000E+00  0.15954958366E+04  0.15954958366E+04  0.00000000000E+00 0.  1.
          2   -1    0    0  501    0  0.00000000000E+00 -0.00000000000E+00 -0.26134013308E+04  0.26134013308E+04  0.00000000000E+00 0. -1.
         23    2    1    2    0    0 -0.52067998005E+03  0.92518023042E+03  0.12874430144E+04  0.16708471586E+04  0.84584938032E+02 0.  0.
         13    1    3    3    0    0 -0.22282091137E+03  0.35383448889E+03  0.56350355564E+03  0.70170097712E+03  0.00000000000E+00 0.  1.
        -13    1    3    3    0    0 -0.29785906869E+03  0.57134574154E+03  0.72393945879E+03  0.96914618153E+03  0.00000000000E+00 0. -1.
         22    1    1    2    0    0  0.52067998005E+03 -0.92518023042E+03 -0.23053485087E+04  0.25380500088E+04  0.00000000000E+00 0. -1.
<mgrwt>
<rscale>  0 0.40839544E+04</rscale>
<asrwt>0</asrwt>
<pdfrwt beam="1">  1        2 0.40206174E+00 0.40839544E+04</pdfrwt>
<pdfrwt beam="2">  1       -2 0.24546090E+00 0.40839544E+04</pdfrwt>
<totfact> 0.16047937E-01</totfact>
</mgrwt>
</event>
<event>
 6    1  0.1001928E-005  0.1410307E+04  0.7818608E-02  0.8946392E-01
         -2   -1    0    0    0  501 -0.00000000000E+00  0.00000000000E+00  0.56484673370E+03  0.56484673370E+03  0.00000000000E+00 0.  1.
          2   -1    0    0  501    0  0.00000000000E+00 -0.00000000000E+00 -0.88031202952E+03  0.88031202952E+03  0.00000000000E+00 0. -1.
         23    2    1    2    0    0  0.38470542232E+03 -0.28821125208E+03  0.36608086118E+03  0.61115087842E+03  0.91794397910E+02 0.  0.
         13    1    3    3    0    0  0.30040763847E+03 -0.24793044481E+03  0.25296653732E+03  0.46444194871E+03  0.00000000000E+00 0.  1.
        -13    1    3    3    0    0  0.84297783845E+02 -0.40280807269E+02  0.11311432386E+03  0.14670892971E+03  0.00000000000E+00 0. -1.
         22    1    1    2    0    0 -0.38470542232E+03  0.28821125208E+03 -0.68154615700E+03  0.83400788480E+03  0.00000000000E+00 0. -1.
<mgrwt>
<rscale>  0 0.14103069E+04</rscale>
<asrwt>0</asrwt>
<pdfrwt beam="1">  1        2 0.13543262E+00 0.14103069E+04</pdfrwt>
<pdfrwt beam="2">  1       -2 0.86899498E-01 0.14103069E+04</pdfrwt>
<totfact> 0.33704754E+01</totfact>
</mgrwt>
</event>
<event>
 6    1  0.1001928E-005  0.2358741E+04  0.7818608E-02  0.8455114E-01
         -1   -1    0    0    0  501 -0.00000000000E+00  0.00000000000E+00  0.16169480864E+04  0.16169480864E+04  0.00000000000E+00 0.  1.
          1   -1    0    0  501    0  0.00000000000E+00 -0.00000000000E+00 -0.86020996378E+03  0.86020996378E+03  0.00000000000E+00 0. -1.
         23    2    1    2    0    0 -0.65931864788E+03 -0.65996871270E+03  0.11337247911E+04  0.14709877219E+04  0.90626677713E+02 0.  0.
         11    1    3    3    0    0 -0.41027711579E+03 -0.35369445362E+03  0.68625921909E+03  0.87428759230E+03  0.00000000000E+00 0.  1.
        -11    1    3    3    0    0 -0.24904153209E+03 -0.30627425908E+03  0.44746557204E+03  0.59670012958E+03  0.00000000000E+00 0. -1.
         22    1    1    2    0    0  0.65931864788E+03  0.65996871270E+03 -0.37698666856E+03  0.10061703283E+04  0.00000000000E+00 0.  1.
<mgrwt>
<rscale>  0 0.23587411E+04</rscale>
<asrwt>0</asrwt>
<pdfrwt beam="1">  1        1 0.13234000E+00 0.23587411E+04</pdfrwt>
<pdfrwt beam="2">  1       -1 0.24876124E+00 0.23587411E+04</pdfrwt>
<totfact> 0.12542249E+00</totfact>
</mgrwt>
</event>
<event>
 6    1  0.1001928E-005  0.2609981E+04  0.7818608E-02  0.8364819E-01
         -2   -1    0    0    0  501 -0.00000000000E+00  0.00000000000E+00  0.69004032556E+03  0.69004032556E+03  0.00000000000E+00 0.  1.
          2   -1    0    0  501    0  0.00000000000E+00 -0.00000000000E+00 -0.24679715689E+04  0.24679715689E+04  0.00000000000E+00 0. -1.
         23    2    1    2    0    0  0.44230784446E+03  0.11880763150E+04 -0.12588531565E+04  0.17881200667E+04  0.74165650867E+02 0.  0.
         11    1    3    3    0    0  0.32381692658E+03  0.78756130806E+03 -0.87219240444E+03  0.12189461868E+04  0.00000000000E+00 0. -1.
        -11    1    3    3    0    0  0.11849091788E+03  0.40051500693E+03 -0.38666075207E+03  0.56917387992E+03  0.00000000000E+00 0.  1.
         22    1    1    2    0    0 -0.44230784446E+03 -0.11880763150E+04 -0.51907808680E+03  0.13698918277E+04  0.00000000000E+00 0. -1.
<mgrwt>
<rscale>  0 0.26099808E+04</rscale>
<asrwt>0</asrwt>
<pdfrwt beam="1">  1        2 0.37968794E+00 0.26099808E+04</pdfrwt>
<pdfrwt beam="2">  1       -2 0.10616005E+00 0.26099808E+04</pdfrwt>
<totfact> 0.22982582E+00</totfact>
</mgrwt>
</event>
<event>
 6    1  0.1001928E-005  0.1667104E+04  0.7818608E-02  0.8780352E-01
         -1   -1    0    0    0  501 -0.00000000000E+00  0.00000000000E+00  0.11588576830E+04  0.11588576830E+04  0.00000000000E+00 0.  1.
          1   -1    0    0  501    0  0.00000000000E+00 -0.00000000000E+00 -0.59956392860E+03  0.59956392860E+03  0.00000000000E+00 0. -1.
         23    2    1    2    0    0 -0.82532788242E+03  0.77678808594E+02  0.34260119883E+03  0.90159270544E+03  0.91069831710E+02 0.  0.
         13    1    3    3    0    0 -0.39102981998E+03  0.53049255798E+02  0.20900415991E+03  0.44654370728E+03  0.00000000000E+00 0. -1.
        -13    1    3    3    0    0 -0.43429806244E+03  0.24629552796E+02  0.13359703892E+03  0.45504899815E+03  0.00000000000E+00 0.  1.
         22    1    1    2    0    0  0.82532788242E+03 -0.77678808594E+02  0.21669255559E+03  0.85682890617E+03  0.00000000000E+00 0.  1.
<mgrwt>
<rscale>  0 0.16671044E+04</rscale>
<asrwt>0</asrwt>
<pdfrwt beam="1">  1        1 0.92240605E-01 0.16671044E+04</pdfrwt>
<pdfrwt beam="2">  1       -1 0.17828580E+00 0.16671044E+04</pdfrwt>
<totfact> 0.70039573E+00</totfact>
</mgrwt>
</event>
<event>
 6    1  0.1001928E-005  0.2032127E+04  0.7818608E-02  0.8591746E-01
         -2   -1    0    0    0  501 -0.00000000000E+00  0.00000000000E+00  0.30620618615E+03  0.30620618615E+03  0.00000000000E+00 0.  1.
          2   -1    0    0  501    0  0.00000000000E+00 -0.00000000000E+00 -0.33715371235E+04  0.33715371235E+04  0.00000000000E+00 0. -1.
         23    2    1    2    0    0  0.68059657063E+03 -0.66770383452E+03 -0.21590336577E+04  0.23622909686E+04  0.99760625665E+02 0.  0.
         11    1    3    3    0    0  0.39943282978E+03 -0.32457046821E+03 -0.11277072919E+04  0.12396032876E+04  0.00000000000E+00 0. -1.
        -11    1    3    3    0    0  0.28116374085E+03 -0.34313336631E+03 -0.10313263658E+04  0.11226876810E+04  0.00000000000E+00 0.  1.
         22    1    1    2    0    0 -0.68059657063E+03  0.66770383452E+03 -0.90629727961E+03  0.13154523411E+04  0.00000000000E+00 0.  1.
<mgrwt>
<rscale>  0 0.20321275E+04</rscale>
<asrwt>0</asrwt>
<pdfrwt beam="1">  1        2 0.51869801E+00 0.20321275E+04</pdfrwt>
<pdfrwt beam="2">  1       -2 0.47108645E-01 0.20321275E+04</pdfrwt>
<totfact> 0.39628039E+00</totfact>
</mgrwt>
</event>
<event>
 6    1  0.1001928E-005  0.1383466E+04  0.7818608E-02  0.8965874E-01
         -2   -1    0    0    0  501 -0.00000000000E+00  0.00000000000E+00  0.47637418232E+03  0.47637418232E+03  0.00000000000E+00 0. -1.
          2   -1    0    0  501    0  0.00000000000E+00 -0.00000000000E+00 -0.10044509098E+04  0.10044509098E+04  0.00000000000E+00 0.  1.
         23    2    1    2    0    0 -0.74955132759E+02 -0.24441077788E+03 -0.94964807187E+03  0.98779639255E+03  0.92495148318E+02 0.  0.
         13    1    3    3    0    0 -0.56419302321E+02 -0.23335453119E+03 -0.76235323659E+03  0.79926211735E+03  0.00000000000E+00 0.  1.
        -13    1    3    3    0    0 -0.18535830438E+02 -0.11056246687E+02 -0.18729483529E+03  0.18853427520E+03  0.00000000000E+00 0. -1.
         22    1    1    2    0    0  0.74955132759E+02  0.24441077788E+03  0.42157134435E+03  0.49302869961E+03  0.00000000000E+00 0. -1.
<mgrwt>
<rscale>  0 0.13834659E+04</rscale>
<asrwt>0</asrwt>
<pdfrwt beam="1">  1        2 0.15453091E+00 0.13834659E+04</pdfrwt>
<pdfrwt beam="2">  1       -2 0.73288336E-01 0.13834659E+04</pdfrwt>
<totfact> 0.40988505E+01</totfact>
</mgrwt>
</event>
<event>
 6    1  0.1001928E-005  0.1729743E+04  0.7818608E-02  0.8744580E-01
          1   -1    0    0  501    0  0.00000000000E+00  0.00000000000E+00  0.74519177440E+03  0.74519177440E+03  0.00000000000E+00 0. -1.
         -1   -1    0    0    0  501 -0.00000000000E+00 -0.00000000000E+00 -0.10037721927E+04  0.10037721927E+04  0.00000000000E+00 0.  1.
         23    2    1    2    0    0  0.69103517023E+03 -0.17295633220E+03  0.36136721702E+03  0.80462368420E+03  0.96899475176E+02 0.  0.
         13    1    3    3    0    0  0.31234006378E+03 -0.12557899210E+03  0.15265722848E+03  0.36963580468E+03  0.00000000000E+00 0. -1.
        -13    1    3    3    0    0  0.37869510646E+03 -0.47377340101E+02  0.20870998853E+03  0.43498787951E+03  0.00000000000E+00 0.  1.
         22    1    1    2    0    0 -0.69103517023E+03  0.17295633220E+03 -0.61994763527E+03  0.94434028286E+03  0.00000000000E+00 0. -1.
<mgrwt>
<rscale>  0 0.17297431E+04</rscale>
<asrwt>0</asrwt>
<pdfrwt beam="1">  1        1 0.11464489E+00 0.17297431E+04</pdfrwt>
<pdfrwt beam="2">  1       -1 0.15442649E+00 0.17297431E+04</pdfrwt>
<totfact> 0.75712037E+00</totfact>
</mgrwt>
</event>
<event>
 6    1  0.1001928E-005  0.2381592E+04  0.7818608E-02  0.8446428E-01
         -1   -1    0    0    0  501 -0.00000000000E+00  0.00000000000E+00  0.17920277435E+04  0.17920277435E+04  0.00000000000E+00 0.  1.
          1   -1    0    0  501    0  0.00000000000E+00 -0.00000000000E+00 -0.79127949120E+03  0.79127949120E+03  0.00000000000E+00 0. -1.
         23    2    1    2    0    0  0.12154534292E+03  0.57282013436E+03  0.16234609529E+04  0.17285164509E+04  0.96163812350E+02 0.  0.
         11    1    3    3    0    0  0.75410409411E+02  0.39974042249E+03  0.12457324227E+04  0.13104687727E+04  0.00000000000E+00 0. -1.
        -11    1    3    3    0    0  0.46134933513E+02  0.17307971187E+03  0.37772853018E+03  0.41804767821E+03  0.00000000000E+00 0.  1.
         22    1    1    2    0    0 -0.12154534292E+03 -0.57282013436E+03 -0.62271270054E+03  0.85479078383E+03  0.00000000000E+00 0. -1.
<mgrwt>
<rscale>  0 0.23815917E+04</rscale>
<asrwt>0</asrwt>
<pdfrwt beam="1">  1        1 0.12173531E+00 0.23815917E+04</pdfrwt>
<pdfrwt beam="2">  1       -1 0.27569657E+00 0.23815917E+04</pdfrwt>
<totfact> 0.95849792E-01</totfact>
</mgrwt>
</event>
<event>
 6    1  0.1001928E-005  0.1726920E+04  0.7818608E-02  0.8746158E-01
         -1   -1    0    0    0  501 -0.00000000000E+00  0.00000000000E+00  0.11252266206E+04  0.11252266206E+04  0.00000000000E+00 0.  1.
          1   -1    0    0  501    0  0.00000000000E+00 -0.00000000000E+00 -0.66258940614E+03  0.66258940614E+03  0.00000000000E+00 0. -1.
         23    2    1    2    0    0 -0.36339487195E+03 -0.63368739405E+03  0.70473531689E+03  0.10182531394E+04  0.81068135695E+02 0.  0.
         13    1    3    3    0    0 -0.11431289641E+03 -0.21778896914E+03  0.18696847055E+03  0.30896064853E+03  0.00000000000E+00 0.  1.
        -13    1    3    3    0    0 -0.24908197553E+03 -0.41589842491E+03  0.51776684634E+03  0.70929249083E+03  0.00000000000E+00 0. -1.
         22    1    1    2    0    0  0.36339487195E+03  0.63368739405E+03 -0.24209810247E+03  0.76956288733E+03  0.00000000000E+00 0. -1.
<mgrwt>
<rscale>  0 0.17269201E+04</rscale>
<asrwt>0</asrwt>
<pdfrwt beam="1">  1        1 0.10193683E+00 0.17269201E+04</pdfrwt>
<pdfrwt beam="2">  1       -1 0.17311179E+00 0.17269201E+04</pdfrwt>
<totfact> 0.65607702E+00</totfact>
</mgrwt>
</event>
<event>
 6    1  0.1001928E-005  0.3411855E+04  0.7818608E-02  0.8135003E-01
         -2   -1    0    0    0  501 -0.00000000000E+00  0.00000000000E+00  0.12808025002E+04  0.12808025002E+04  0.00000000000E+00 0.  1.
          2   -1    0    0  501    0  0.00000000000E+00 -0.00000000000E+00 -0.22721602666E+04  0.22721602666E+04  0.00000000000E+00 0. -1.
         23    2    1    2    0    0 -0.25354534225E+03  0.53482308680E+03 -0.21608206171E+04  0.22422513822E+04  0.90689287774E+02 0.  0.
         11    1    3    3    0    0 -0.17099359253E+03  0.41443032069E+03 -0.17401273539E+04  0.17969514482E+04  0.00000000000E+00 0. -1.
        -11    1    3    3    0    0 -0.82551749720E+02  0.12039276610E+03 -0.42069326314E+03  0.44529993393E+03  0.00000000000E+00 0.  1.
         22    1    1    2    0    0  0.25354534225E+03 -0.53482308680E+03  0.11694628507E+04  0.13107113846E+04  0.00000000000E+00 0.  1.
<mgrwt>
<rscale>  0 0.34118550E+04</rscale>
<asrwt>0</asrwt>
<pdfrwt beam="1">  1        2 0.34956311E+00 0.34118550E+04</pdfrwt>
<pdfrwt beam="2">  1       -2 0.19704654E+00 0.34118550E+04</pdfrwt>
<totfact> 0.54124882E-01</totfact>
</mgrwt>
</event>
<event>
 6    1  0.1001928E-005  0.5578314E+04  0.7818608E-02  0.7745004E-01
         -1   -1    0    0    0  501 -0.00000000000E+00  0.00000000000E+00  0.23883145734E+04  0.23883145734E+04  0.00000000000E+00 0.  1.
          1   -1    0    0  501    0  0.00000000000E+00 -0.00000000000E+00 -0.32572752692E+04  0.32572752692E+04  0.00000000000E+00 0. -1.
         23    2    1    2    0    0 -0.22859737317E+04 -0.14481069574E+04  0.24623190859E+03  0.27187580731E+04  0.91244970717E+02 0.  0.
         13    1    3    3    0    0 -0.19669256027E+04 -0.12823249054E+04  0.20953917586E+03  0.23573417563E+04  0.00000000000E+00 0.  1.
        -13    1    3    3    0    0 -0.31904812903E+03 -0.16578205201E+03  0.36692732731E+02  0.36141631679E+03  0.00000000000E+00 0. -1.
         22    1    1    2    0    0  0.22859737317E+04  0.14481069574E+04 -0.11151926044E+04  0.29268317695E+04  0.00000000000E+00 0.  1.
<mgrwt>
<rscale>  0 0.55783144E+04</rscale>
<asrwt>0</asrwt>
<pdfrwt beam="1">  1        1 0.50111928E+00 0.55783144E+04</pdfrwt>
<pdfrwt beam="2">  1       -1 0.36743301E+00 0.55783144E+04</pdfrwt>
<totfact> 0.31557645E-03</totfact>
</mgrwt>
</event>
<event>
 6    1  0.1001928E-005  0.4174693E+04  0.7818608E-02  0.7970204E-01
         -2   -1    0    0    0  501 -0.00000000000E+00  0.00000000000E+00  0.10268606111E+04  0.10268606111E+04  0.00000000000E+00 0.  1.
          2   -1    0    0  501    0  0.00000000000E+00 -0.00000000000E+00 -0.42430451536E+04  0.42430451536E+04  0.00000000000E+00 0. -1.
         23    2    1    2    0    0 -0.10527896046E+04 -0.32088357569E+03 -0.38462636596E+04  0.40017054987E+04  0.92577203273E+02 0.  0.
         11    1    3    3    0    0 -0.63854873274E+03 -0.19047006379E+03 -0.24891237658E+04  0.25767732634E+04  0.00000000000E+00 0. -1.
        -11    1    3    3    0    0 -0.41424087191E+03 -0.13041351189E+03 -0.13571398938E+04  0.14249322353E+04  0.00000000000E+00 0.  1.
         22    1    1    2    0    0  0.10527896046E+04  0.32088357569E+03  0.63007911715E+03  0.12682002660E+04  0.00000000000E+00 0.  1.
<mgrwt>
<rscale>  0 0.41746933E+04</rscale>
<asrwt>0</asrwt>
<pdfrwt beam="1">  1        2 0.65277617E+00 0.41746933E+04</pdfrwt>
<pdfrwt beam="2">  1       -2 0.15797856E+00 0.41746933E+04</pdfrwt>
<totfact> 0.43009136E-02</totfact>
</mgrwt>
</event>
<event>
 6    1  0.1001928E-005  0.3722710E+04  0.7818608E-02  0.8062948E-01
          1   -1    0    0  501    0  0.00000000000E+00  0.00000000000E+00  0.22035750091E+04  0.22035750091E+04  0.00000000000E+00 0. -1.
         -1   -1    0    0    0  501 -0.00000000000E+00 -0.00000000000E+00 -0.15722823168E+04  0.15722823168E+04  0.00000000000E+00 0.  1.
         23    2    1    2    0    0 -0.18075535268E+04 -0.32644345945E+03  0.61449816459E+03  0.19389857625E+04  0.90789362913E+02 0.  0.
         11    1    3    3    0    0 -0.17058751314E+03 -0.49455175033E+02  0.80342547988E+02  0.19493803886E+03  0.00000000000E+00 0. -1.
        -11    1    3    3    0    0 -0.16369660136E+04 -0.27698828442E+03  0.53415561660E+03  0.17440477236E+04  0.00000000000E+00 0.  1.
         22    1    1    2    0    0  0.18075535268E+04  0.32644345945E+03  0.16794527790E+02  0.18368715634E+04  0.00000000000E+00 0.  1.
<mgrwt>
<rscale>  0 0.37227098E+04</rscale>
<asrwt>0</asrwt>
<pdfrwt beam="1">  1        1 0.33901154E+00 0.37227098E+04</pdfrwt>
<pdfrwt beam="2">  1       -1 0.24188959E+00 0.37227098E+04</pdfrwt>
<totfact> 0.13669540E-01</totfact>
</mgrwt>
</event>
<event>
 6    1  0.1001928E-005  0.1019364E+04  0.7818608E-02  0.9287558E-01
         -1   -1    0    0    0  501 -0.00000000000E+00  0.00000000000E+00  0.71872319746E+03  0.71872319746E+03  0.00000000000E+00 0.  1.
          1   -1    0    0  501    0  0.00000000000E+00 -0.00000000000E+00 -0.36144060215E+03  0.36144060215E+03  0.00000000000E+00 0. -1.
         23    2    1    2    0    0 -0.19892193334E+03  0.11651953488E+02 -0.31201553288E+03  0.38183315588E+03  0.93472790622E+02 0.  0.
         13    1    3    3    0    0  0.35018570444E+01  0.16938804460E+02 -0.30374359111E+02  0.34954081174E+02  0.00000000000E+00 0. -1.
        -13    1    3    3    0    0 -0.20242379038E+03 -0.52868509725E+01 -0.28164117377E+03  0.34687907471E+03  0.00000000000E+00 0.  1.
         22    1    1    2    0    0  0.19892193334E+03 -0.11651953488E+02  0.66929812819E+03  0.69833064374E+03  0.00000000000E+00 0.  1.
<mgrwt>
<rscale>  0 0.10193640E+04</rscale>
<asrwt>0</asrwt>
<pdfrwt beam="1">  1        1 0.55606247E-01 0.10193640E+04</pdfrwt>
<pdfrwt beam="2">  1       -1 0.11057280E+00 0.10193640E+04</pdfrwt>
<totfact> 0.51847853E+01</totfact>
</mgrwt>
</event>
<event>
 6    1  0.1001928E-005  0.4042787E+04  0.7818608E-02  0.7995970E-01
          2   -1    0    0  501    0  0.00000000000E+00  0.00000000000E+00  0.34705288000E+04  0.34705288000E+04  0.00000000000E+00 0. -1.
         -2   -1    0    0    0  501 -0.00000000000E+00 -0.00000000000E+00 -0.11773514302E+04  0.11773514302E+04  0.00000000000E+00 0.  1.
         23    2    1    2    0    0 -0.14626870410E+04  0.70730361807E+03 -0.23352781126E+03  0.16438877435E+04  0.89999369680E+02 0.  0.
         13    1    3    3    0    0 -0.38373505731E+03  0.15138714767E+03 -0.83771453163E+02  0.42093742891E+03  0.00000000000E+00 0. -1.
        -13    1    3    3    0    0 -0.10789519837E+04  0.55591647040E+03 -0.14975635810E+03  0.12229503146E+04  0.00000000000E+00 0.  1.
         22    1    1    2    0    0  0.14626870410E+04 -0.70730361807E+03  0.25267051811E+04  0.30039924867E+04  0.00000000000E+00 0.  1.
<mgrwt>
<rscale>  0 0.40427872E+04</rscale>
<asrwt>0</asrwt>
<pdfrwt beam="1">  1        2 0.53392750E+00 0.40427872E+04</pdfrwt>
<pdfrwt beam="2">  1       -2 0.18113099E+00 0.40427872E+04</pdfrwt>
<totfact> 0.11914233E-01</totfact>
</mgrwt>
</event>
<event>
 6    1  0.1001928E-005  0.2697861E+04  0.7818608E-02  0.8335699E-01
         -2   -1    0    0    0  501 -0.00000000000E+00  0.00000000000E+00  0.56963178047E+03  0.56963178047E+03  0.00000000000E+00 0.  1.
          2   -1    0    0  501    0  0.00000000000E+00 -0.00000000000E+00 -0.31943689449E+04  0.31943689449E+04  0.00000000000E+00 0. -1.
         23    2    1    2    0    0  0.13966423937E+03 -0.10354101683E+04 -0.12674217729E+03  0.10563155014E+04  0.90324651278E+02 0.  0.
         11    1    3    3    0    0  0.12860704953E+03 -0.90426115512E+03 -0.80860766469E+02  0.91693318916E+03  0.00000000000E+00 0. -1.
        -11    1    3    3    0    0  0.11057189848E+02 -0.13114901318E+03 -0.45881410824E+02  0.13938231224E+03  0.00000000000E+00 0.  1.
         22    1    1    2    0    0 -0.13966423937E+03  0.10354101683E+04 -0.24979949871E+04  0.27076852240E+04  0.00000000000E+00 0. -1.
<mgrwt>
<rscale>  0 0.26978614E+04</rscale>
<asrwt>0</asrwt>
<pdfrwt beam="1">  1        2 0.49144138E+00 0.26978614E+04</pdfrwt>
<pdfrwt beam="2">  1       -2 0.87635657E-01 0.26978614E+04</pdfrwt>
<totfact> 0.12891550E+00</totfact>
</mgrwt>
</event>
<event>
 6    1  0.1001928E-005  0.3062102E+04  0.7818608E-02  0.8226216E-01
          1   -1    0    0  501    0  0.00000000000E+00  0.00000000000E+00  0.13358558626E+04  0.13358558626E+04  0.00000000000E+00 0. -1.
         -1   -1    0    0    0  501 -0.00000000000E+00 -0.00000000000E+00 -0.17547676070E+04  0.17547676070E+04  0.00000000000E+00 0.  1.
         23    2    1    2    0    0 -0.10703543079E+04 -0.10660527554E+04  0.32937842085E+02  0.15138245381E+04  0.91940245967E+02 0.  0.
         13    1    3    3    0    0 -0.31143846299E+03 -0.36081759797E+03 -0.12791815362E+02  0.47680906637E+03  0.00000000000E+00 0. -1.
        -13    1    3    3    0    0 -0.75891584493E+03 -0.70523515743E+03  0.45729657446E+02  0.10370154717E+04  0.00000000000E+00 0.  1.
         22    1    1    2    0    0  0.10703543079E+04  0.10660527554E+04 -0.45184958651E+03  0.15767989316E+04  0.00000000000E+00 0.  1.
<mgrwt>
<rscale>  0 0.30621016E+04</rscale>
<asrwt>0</asrwt>
<pdfrwt beam="1">  1        1 0.20551629E+00 0.30621016E+04</pdfrwt>
<pdfrwt beam="2">  1       -1 0.26996425E+00 0.30621016E+04</pdfrwt>
<totfact> 0.37321395E-01</totfact>
</mgrwt>
</event>
<event>
 6    1  0.1001928E-005  0.2380629E+04  0.7818608E-02  0.8446791E-01
          1   -1    0    0  501    0  0.00000000000E+00  0.00000000000E+00  0.16310154383E+04  0.16310154383E+04  0.00000000000E+00 0. -1.
         -1   -1    0    0    0  501 -0.00000000000E+00 -0.00000000000E+00 -0.86869125452E+03  0.86869125452E+03  0.00000000000E+00 0.  1.
         23    2    1    2    0    0 -0.23723444179E+02 -0.11126873962E+04 -0.56050555315E+02  0.11182678571E+04  0.93516265813E+02 0.  0.
         11    1    3    3    0    0 -0.64680703764E+01 -0.64063703770E+03 -0.77953099196E+02  0.64539471308E+03  0.00000000000E+00 0.  1.
        -11    1    3    3    0    0 -0.17255373802E+02 -0.47205035848E+03  0.21902543881E+02  0.47287314398E+03  0.00000000000E+00 0. -1.
         22    1    1    2    0    0  0.23723444179E+02  0.11126873962E+04  0.81837473914E+03  0.13814388358E+04  0.00000000000E+00 0. -1.
<mgrwt>
<rscale>  0 0.23806292E+04</rscale>
<asrwt>0</asrwt>
<pdfrwt beam="1">  1        1 0.25092545E+00 0.23806292E+04</pdfrwt>
<pdfrwt beam="2">  1       -1 0.13364481E+00 0.23806292E+04</pdfrwt>
<totfact> 0.22543762E+00</totfact>
</mgrwt>
</event>
<event>
 6    1  0.1001928E-005  0.2351007E+04  0.7818608E-02  0.8458077E-01
          2   -1    0    0  501    0  0.00000000000E+00  0.00000000000E+00  0.32440747217E+04  0.32440747217E+04  0.00000000000E+00 0. -1.
         -2   -1    0    0    0  501 -0.00000000000E+00 -0.00000000000E+00 -0.42594835178E+03  0.42594835178E+03  0.00000000000E+00 0.  1.
         23    2    1    2    0    0 -0.17900390216E+03  0.39731337972E+03  0.31124198817E+04  0.31441818524E+04  0.93923812700E+02 0.  0.
         11    1    3    3    0    0 -0.68208464954E+02  0.21793237661E+03  0.13474277836E+04  0.13666413383E+04  0.00000000000E+00 0. -1.
        -11    1    3    3    0    0 -0.11079543721E+03  0.17938100311E+03  0.17649920981E+04  0.17775405141E+04  0.00000000000E+00 0.  1.
         22    1    1    2    0    0  0.17900390216E+03 -0.39731337972E+03 -0.29429351176E+03  0.52584122105E+03  0.00000000000E+00 0.  1.
<mgrwt>
<rscale>  0 0.23510068E+04</rscale>
<asrwt>0</asrwt>
<pdfrwt beam="1">  1        2 0.49908840E+00 0.23510068E+04</pdfrwt>
<pdfrwt beam="2">  1       -2 0.65530518E-01 0.23510068E+04</pdfrwt>
<totfact> 0.23528719E+00</totfact>
</mgrwt>
</event>
<event>
 6    1  0.1001928E-005  0.3037345E+04  0.7818608E-02  0.8233146E-01
          2   -1    0    0  501    0  0.00000000000E+00  0.00000000000E+00  0.23862149736E+04  0.23862149736E+04  0.00000000000E+00 0.  1.
         -2   -1    0    0    0  501 -0.00000000000E+00 -0.00000000000E+00 -0.96653751115E+03  0.96653751115E+03  0.00000000000E+00 0. -1.
         23    2    1    2    0    0 -0.14442280338E+04 -0.17335364862E+03  0.23460743604E+03  0.14765230029E+04  0.96090727158E+02 0.  0.
         11    1    3    3    0    0 -0.11799227707E+04 -0.10400728691E+03  0.19334674283E+03  0.12001742472E+04  0.00000000000E+00 0. -1.
        -11    1    3    3    0    0 -0.26430526310E+03 -0.69346361710E+02  0.41260693216E+02  0.27634875572E+03  0.00000000000E+00 0.  1.
         22    1    1    2    0    0  0.14442280338E+04  0.17335364862E+03  0.11850700264E+04  0.18762294819E+04  0.00000000000E+00 0.  1.
<mgrwt>
<rscale>  0 0.30373451E+04</rscale>
<asrwt>0</asrwt>
<pdfrwt beam="1">  1        2 0.36710999E+00 0.30373451E+04</pdfrwt>
<pdfrwt beam="2">  1       -2 0.14869808E+00 0.30373451E+04</pdfrwt>
<totfact> 0.10592237E+00</totfact>
</mgrwt>
</event>
<event>
 6    1  0.1001928E-005  0.2737434E+04  0.7818608E-02  0.8322960E-01
         -2   -1    0    0    0  501 -0.00000000000E+00  0.00000000000E+00  0.13550573134E+04  0.13550573134E+04  0.00000000000E+00 0. -1.
          2   -1    0    0  501    0  0.00000000000E+00 -0.00000000000E+00 -0.13825143944E+04  0.13825143944E+04  0.00000000000E+00 0.  1.
         23    2    1    2    0    0 -0.65794492771E+03  0.10802190091E+04 -0.53282840975E+03  0.13755273563E+04  0.91677467828E+02 0.  0.
         11    1    3    3    0    0 -0.11163504326E+03  0.12394285779E+03 -0.71319049746E+02  0.18141284887E+03  0.00000000000E+00 0.  1.
        -11    1    3    3    0    0 -0.54630988446E+03  0.95627615131E+03 -0.46150936000E+03  0.11941145074E+04  0.00000000000E+00 0. -1.
         22    1    1    2    0    0  0.65794492771E+03 -0.10802190091E+04  0.50537132882E+03  0.13620443515E+04  0.00000000000E+00 0. -1.
<mgrwt>
<rscale>  0 0.27374340E+04</rscale>
<asrwt>0</asrwt>
<pdfrwt beam="1">  1        2 0.21269452E+00 0.27374340E+04</pdfrwt>
<pdfrwt beam="2">  1       -2 0.20847036E+00 0.27374340E+04</pdfrwt>
<totfact> 0.15172890E+00</totfact>
</mgrwt>
</event>
<event>
 6    1  0.1001928E-005  0.1737147E+04  0.7818608E-02  0.8740457E-01
          1   -1    0    0  501    0  0.00000000000E+00  0.00000000000E+00  0.17480747367E+04  0.17480747367E+04  0.00000000000E+00 0. -1.
         -1   -1    0    0    0  501 -0.00000000000E+00 -0.00000000000E+00 -0.43157205033E+03  0.43157205033E+03  0.00000000000E+00 0.  1.
         23    2    1    2    0    0 -0.58370850772E+03  0.16373262854E+03  0.14361466590E+04  0.15617158233E+04  0.94419760768E+02 0.  0.
         13    1    3    3    0    0 -0.47804573015E+03  0.16820132170E+03  0.11526429201E+04  0.12591287090E+04  0.00000000000E+00 0. -1.
        -13    1    3    3    0    0 -0.10566277757E+03 -0.44686931591E+01  0.28350373890E+03  0.30258711432E+03  0.00000000000E+00 0.  1.
         22    1    1    2    0    0  0.58370850772E+03 -0.16373262854E+03 -0.11964397263E+03  0.61793096364E+03  0.00000000000E+00 0.  1.
<mgrwt>
<rscale>  0 0.17371473E+04</rscale>
<asrwt>0</asrwt>
<pdfrwt beam="1">  1        1 0.26893457E+00 0.17371473E+04</pdfrwt>
<pdfrwt beam="2">  1       -1 0.66395701E-01 0.17371473E+04</pdfrwt>
<totfact> 0.96367495E+00</totfact>
</mgrwt>
</event>
<event>
 6    1  0.1001928E-005  0.1142067E+04  0.7818608E-02  0.9165134E-01
         -2   -1    0    0    0  501 -0.00000000000E+00  0.00000000000E+00  0.16550798103E+03  0.16550798103E+03  0.00000000000E+00 0.  1.
          2   -1    0    0  501    0  0.00000000000E+00 -0.00000000000E+00 -0.19701710309E+04  0.19701710309E+04  0.00000000000E+00 0. -1.
         23    2    1    2    0    0  0.38120969000E+03 -0.34863290800E+03 -0.13466614275E+04  0.14452941784E+04  0.92263370469E+02 0.  0.
         11    1    3    3    0    0  0.31829008712E+03 -0.26512875877E+03 -0.11538696683E+04  0.12259759581E+04  0.00000000000E+00 0. -1.
        -11    1    3    3    0    0  0.62919602877E+02 -0.83504149232E+02 -0.19279175915E+03  0.21931822031E+03  0.00000000000E+00 0.  1.
         22    1    1    2    0    0 -0.38120969000E+03  0.34863290800E+03 -0.45800162243E+03  0.69038483358E+03  0.00000000000E+00 0.  1.
<mgrwt>
<rscale>  0 0.11420666E+04</rscale>
<asrwt>0</asrwt>
<pdfrwt beam="1">  1        2 0.30310326E+00 0.11420666E+04</pdfrwt>
<pdfrwt beam="2">  1       -2 0.25462765E-01 0.11420666E+04</pdfrwt>
<totfact> 0.95534509E+01</totfact>
</mgrwt>
</event>
<event>
 6    1  0.1001928E-005  0.7601900E+03  0.7818608E-02  0.9619498E-01
          2   -1    0    0  501    0  0.00000000000E+00  0.00000000000E+00  0.26620046310E+04  0.26620046310E+04  0.00000000000E+00 0. -1.
         -2   -1    0    0    0  501 -0.00000000000E+00 -0.00000000000E+00 -0.54271957950E+02  0.54271957950E+02  0.00000000000E+00 0.  1.
         23    2    1    2    0    0  0.18571375265E+02  0.22062464341E+03  0.24023485680E+04  0.24142786422E+04  0.91883571114E+02 0.  0.
         13    1    3    3    0    0  0.19694053937E+02  0.94621849846E+02  0.15083669550E+04  0.15114602281E+04  0.00000000000E+00 0. -1.
        -13    1    3    3    0    0 -0.11226786723E+01  0.12600279356E+03  0.89398161305E+03  0.90281841411E+03  0.00000000000E+00 0.  1.
         22    1    1    2    0    0 -0.18571375265E+02 -0.22062464341E+03  0.20538410509E+03  0.30199794682E+03  0.00000000000E+00 0.  1.
<mgrwt>
<rscale>  0 0.76018999E+03</rscale>
<asrwt>0</asrwt>
<pdfrwt beam="1">  1        2 0.40953907E+00 0.76018999E+03</pdfrwt>
<pdfrwt beam="2">  1       -2 0.83495341E-02 0.76018999E+03</pdfrwt>
<totfact> 0.26784743E+02</totfact>
</mgrwt>
</event>
<event>
 6    1  0.1001928E-005  0.2023846E+04  0.7818608E-02  0.8595552E-01
         -2   -1    0    0    0  501 -0.00000000000E+00  0.00000000000E+00  0.15260329563E+04  0.15260329563E+04  0.00000000000E+00 0.  1.
          2   -1    0    0  501    0  0.00000000000E+00 -0.00000000000E+00 -0.67101315778E+03  0.67101315778E+03  0.00000000000E+00 0. -1.
         23    2    1    2    0    0 -0.13012643843E+03  0.25232889981E+03 -0.62518496247E+03  0.68986035973E+03  0.66695689287E+02 0.  0.
         11    1    3    3    0    0 -0.48096672551E+02  0.47332345980E+02 -0.10576834392E+03  0.12546148198E+03  0.00000000000E+00 0. -1.
        -11    1    3    3    0    0 -0.82029765883E+02  0.20499655383E+03 -0.51941661855E+03  0.56439887775E+03  0.00000000000E+00 0.  1.
         22    1    1    2    0    0  0.13012643843E+03 -0.25232889981E+03  0.14802047610E+04  0.15071857544E+04  0.00000000000E+00 0.  1.
<mgrwt>
<rscale>  0 0.20238460E+04</rscale>
<asrwt>0</asrwt>
<pdfrwt beam="1">  1        2 0.10323279E+00 0.20238460E+04</pdfrwt>
<pdfrwt beam="2">  1       -2 0.23477430E+00 0.20238460E+04</pdfrwt>
<totfact> 0.31974994E+00</totfact>
</mgrwt>
</event>
<event>
 6    1  0.1001928E-005  0.2401886E+04  0.7818608E-02  0.8438798E-01
          2   -1    0    0  501    0  0.00000000000E+00  0.00000000000E+00  0.18080192351E+04  0.18080192351E+04  0.00000000000E+00 0. -1.
         -2   -1    0    0    0  501 -0.00000000000E+00 -0.00000000000E+00 -0.79770379131E+03  0.79770379131E+03  0.00000000000E+00 0.  1.
         23    2    1    2    0    0 -0.66553563863E+03 -0.37759462086E+03 -0.49587469763E+03  0.91630770563E+03  0.90624012567E+02 0.  0.
         13    1    3    3    0    0 -0.57217742290E+03 -0.28889540226E+03 -0.42804994662E+03  0.77076216405E+03  0.00000000000E+00 0. -1.
        -13    1    3    3    0    0 -0.93358215730E+02 -0.88699218602E+02 -0.67824751008E+02  0.14554554158E+03  0.00000000000E+00 0.  1.
         22    1    1    2    0    0  0.66553563863E+03  0.37759462086E+03  0.15061901415E+04  0.16894153208E+04  0.00000000000E+00 0. -1.
<mgrwt>
<rscale>  0 0.24018858E+04</rscale>
<asrwt>0</asrwt>
<pdfrwt beam="1">  1        2 0.27815680E+00 0.24018858E+04</pdfrwt>
<pdfrwt beam="2">  1       -2 0.12272366E+00 0.24018858E+04</pdfrwt>
<totfact> 0.38558407E+00</totfact>
</mgrwt>
</event>
<event>
 6    1  0.1001928E-005  0.1984984E+04  0.7818608E-02  0.8613674E-01
          2   -1    0    0  501    0  0.00000000000E+00  0.00000000000E+00  0.14308160008E+04  0.14308160008E+04  0.00000000000E+00 0. -1.
         -2   -1    0    0    0  501 -0.00000000000E+00 -0.00000000000E+00 -0.68844636960E+03  0.68844636960E+03  0.00000000000E+00 0.  1.
         23    2    1    2    0    0 -0.12747142621E+03  0.35286884480E+03  0.13505480959E+04  0.14046670787E+04  0.91345806425E+02 0.  0.
         13    1    3    3    0    0  0.14531956144E+02  0.38520034072E+02  0.15051239381E+03  0.15604150559E+03  0.00000000000E+00 0. -1.
        -13    1    3    3    0    0 -0.14200338235E+03  0.31434881073E+03  0.12000357021E+04  0.12486255731E+04  0.00000000000E+00 0.  1.
         22    1    1    2    0    0  0.12747142621E+03 -0.35286884480E+03 -0.60817846468E+03  0.71459529178E+03  0.00000000000E+00 0.  1.
<mgrwt>
<rscale>  0 0.19849837E+04</rscale>
<asrwt>0</asrwt>
<pdfrwt beam="1">  1        2 0.22012554E+00 0.19849837E+04</pdfrwt>
<pdfrwt beam="2">  1       -2 0.10591483E+00 0.19849837E+04</pdfrwt>
<totfact> 0.93064112E+00</totfact>
</mgrwt>
</event>
<event>
 6    1  0.1001928E-005  0.3806428E+04  0.7818608E-02  0.8044777E-01
          2   -1    0    0  501    0  0.00000000000E+00  0.00000000000E+00  0.28560047907E+04  0.28560047907E+04  0.00000000000E+00 0. -1.
         -2   -1    0    0    0  501 -0.00000000000E+00 -0.00000000000E+00 -0.12682833652E+04  0.12682833652E+04  0.00000000000E+00 0.  1.
         23    2    1    2    0    0  0.10274545978E+04 -0.68566574252E+03 -0.77292868406E+03  0.14599928644E+04  0.91432775882E+02 0.  0.
         13    1    3    3    0    0  0.55438208997E+03 -0.40079220050E+03 -0.47177188301E+03  0.83098892848E+03  0.00000000000E+00 0.  1.
        -13    1    3    3    0    0  0.47307250779E+03 -0.28487354202E+03 -0.30115680105E+03  0.62900393591E+03  0.00000000000E+00 0. -1.
         22    1    1    2    0    0 -0.10274545978E+04  0.68566574252E+03  0.23606501095E+04  0.26642952915E+04  0.00000000000E+00 0. -1.
<mgrwt>
<rscale>  0 0.38064279E+04</rscale>
<asrwt>0</asrwt>
<pdfrwt beam="1">  1        2 0.43938535E+00 0.38064279E+04</pdfrwt>
<pdfrwt beam="2">  1       -2 0.19512052E+00 0.38064279E+04</pdfrwt>
<totfact> 0.24533684E-01</totfact>
</mgrwt>
</event>
<event>
 6    1  0.1001928E-005  0.1137919E+04  0.7818608E-02  0.9169002E-01
          2   -1    0    0  501    0  0.00000000000E+00  0.00000000000E+00  0.47453819733E+03  0.47453819733E+03  0.00000000000E+00 0. -1.
         -2   -1    0    0    0  501 -0.00000000000E+00 -0.00000000000E+00 -0.68216818718E+03  0.68216818718E+03  0.00000000000E+00 0.  1.
         23    2    1    2    0    0 -0.36788290643E+03  0.40454767789E+03  0.41346471596E+02  0.55588533388E+03  0.91117052076E+02 0.  0.
         11    1    3    3    0    0 -0.20792216982E+03  0.27360732285E+03 -0.64742887677E+01  0.34370701511E+03  0.00000000000E+00 0. -1.
        -11    1    3    3    0    0 -0.15996073661E+03  0.13094035504E+03  0.47820760364E+02  0.21217831877E+03  0.00000000000E+00 0.  1.
         22    1    1    2    0    0  0.36788290643E+03 -0.40454767789E+03 -0.24897646144E+03  0.60082105063E+03  0.00000000000E+00 0. -1.
<mgrwt>
<rscale>  0 0.11379189E+04</rscale>
<asrwt>0</asrwt>
<pdfrwt beam="1">  1        2 0.73005877E-01 0.11379189E+04</pdfrwt>
<pdfrwt beam="2">  1       -2 0.10494895E+00 0.11379189E+04</pdfrwt>
<totfact> 0.47704310E+01</totfact>
</mgrwt>
</event>
<event>
 6    1  0.1001928E-005  0.2801777E+04  0.7818608E-02  0.8302717E-01
         -2   -1    0    0    0  501 -0.00000000000E+00  0.00000000000E+00  0.10375778002E+04  0.10375778002E+04  0.00000000000E+00 0.  1.
          2   -1    0    0  501    0  0.00000000000E+00 -0.00000000000E+00 -0.18914127755E+04  0.18914127755E+04  0.00000000000E+00 0. -1.
         23    2    1    2    0    0  0.71556238839E+03  0.49230362275E+03  0.71974814275E+03  0.11316157629E+04  0.90135770802E+02 0.  0.
         13    1    3    3    0    0  0.52701207379E+03  0.38825071027E+03  0.58256754819E+03  0.87627922955E+03  0.00000000000E+00 0. -1.
        -13    1    3    3    0    0  0.18855031460E+03  0.10405291249E+03  0.13718059456E+03  0.25533653334E+03  0.00000000000E+00 0.  1.
         22    1    1    2    0    0 -0.71556238839E+03 -0.49230362275E+03 -0.15735831180E+04  0.17973748129E+04  0.00000000000E+00 0. -1.
<mgrwt>
<rscale>  0 0.28017765E+04</rscale>
<asrwt>0</asrwt>
<pdfrwt beam="1">  1        2 0.29098658E+00 0.28017765E+04</pdfrwt>
<pdfrwt beam="2">  1       -2 0.15962735E+00 0.28017765E+04</pdfrwt>
<totfact> 0.16934252E+00</totfact>
</mgrwt>
</event>
<event>
 6    1  0.1001928E-005  0.2306299E+04  0.7818608E-02  0.8475442E-01
          2   -1    0    0  501    0  0.00000000000E+00  0.00000000000E+00  0.11566059795E+04  0.11566059795E+04  0.00000000000E+00 0. -1.
         -2   -1    0    0    0  501 -0.00000000000E+00 -0.00000000000E+00 -0.11497036622E+04  0.11497036622E+04  0.00000000000E+00 0.  1.
         23    2    1    2    0    0 -0.47453012202E+03  0.10204896908E+04 -0.23979308637E+03  0.11541652636E+04  0.89547113922E+02 0.  0.
         13    1    3    3    0    0 -0.42918551065E+03  0.89824159893E+03 -0.23890992105E+03  0.10237754260E+04  0.00000000000E+00 0.  1.
        -13    1    3    3    0    0 -0.45344611372E+02  0.12224809189E+03 -0.88316531573E+00  0.13038983754E+03  0.00000000000E+00 0. -1.
         22    1    1    2    0    0  0.47453012202E+03 -0.10204896908E+04  0.24669540363E+03  0.11521443781E+04  0.00000000000E+00 0. -1.
<mgrwt>
<rscale>  0 0.23062993E+04</rscale>
<asrwt>0</asrwt>
<pdfrwt beam="1">  1        2 0.17793938E+00 0.23062993E+04</pdfrwt>
<pdfrwt beam="2">  1       -2 0.17687749E+00 0.23062993E+04</pdfrwt>
<totfact> 0.34744726E+00</totfact>
</mgrwt>
</event>
<event>
 6    1  0.1001928E-005  0.3753965E+04  0.7818608E-02  0.8056107E-01
          2   -1    0    0  501    0  0.00000000000E+00  0.00000000000E+00  0.37412232225E+04  0.37412232225E+04  0.00000000000E+00 0. -1.
         -2   -1    0    0    0  501 -0.00000000000E+00 -0.00000000000E+00 -0.94168741848E+03  0.94168741848E+03  0.00000000000E+00 0.  1.
         23    2    1    2    0    0 -0.22900037336E+02  0.30761243768E+03  0.37088459293E+04  0.37227050759E+04  0.88572746593E+02 0.  0.
         13    1    3    3    0    0  0.31832506665E+02  0.16523755033E+03  0.19961120395E+04  0.20031924598E+04  0.00000000000E+00 0. -1.
        -13    1    3    3    0    0 -0.54732544001E+02  0.14237488734E+03  0.17127338897E+04  0.17195126161E+04  0.00000000000E+00 0.  1.
         22    1    1    2    0    0  0.22900037336E+02 -0.30761243768E+03 -0.90931012520E+03  0.96020556514E+03  0.00000000000E+00 0.  1.
<mgrwt>
<rscale>  0 0.37539648E+04</rscale>
<asrwt>0</asrwt>
<pdfrwt beam="1">  1        2 0.57557280E+00 0.37539648E+04</pdfrwt>
<pdfrwt beam="2">  1       -2 0.14487499E+00 0.37539648E+04</pdfrwt>
<totfact> 0.14342375E-01</totfact>
</mgrwt>
</event>
<event>
 6    1  0.1001928E-005  0.1736439E+04  0.7818608E-02  0.8740850E-01
          1   -1    0    0  501    0  0.00000000000E+00  0.00000000000E+00  0.12716614737E+04  0.12716614737E+04  0.00000000000E+00 0. -1.
         -1   -1    0    0    0  501 -0.00000000000E+00 -0.00000000000E+00 -0.59277200151E+03  0.59277200151E+03  0.00000000000E+00 0.  1.
         23    2    1    2    0    0  0.44563292412E+03  0.42589845122E+03  0.99315439135E+03  0.11725226188E+04  0.92062222353E+02 0.  0.
         13    1    3    3    0    0  0.22891394219E+03  0.19083373787E+03  0.55719690202E+03  0.63189199715E+03  0.00000000000E+00 0.  1.
        -13    1    3    3    0    0  0.21671898193E+03  0.23506471335E+03  0.43595748933E+03  0.54063062168E+03  0.00000000000E+00 0. -1.
         22    1    1    2    0    0 -0.44563292412E+03 -0.42589845122E+03 -0.31426491914E+03  0.69191085641E+03  0.00000000000E+00 0.  1.
<mgrwt>
<rscale>  0 0.17364392E+04</rscale>
<asrwt>0</asrwt>
<pdfrwt beam="1">  1        1 0.19564023E+00 0.17364392E+04</pdfrwt>
<pdfrwt beam="2">  1       -1 0.91195693E-01 0.17364392E+04</pdfrwt>
<totfact> 0.10550917E+01</totfact>
</mgrwt>
</event>
<event>
 6    1  0.1001928E-005  0.1637496E+04  0.7818608E-02  0.8797838E-01
          2   -1    0    0  501    0  0.00000000000E+00  0.00000000000E+00  0.31658227019E+04  0.31658227019E+04  0.00000000000E+00 0. -1.
         -2   -1    0    0    0  501 -0.00000000000E+00 -0.00000000000E+00 -0.21174533630E+03  0.21174533630E+03  0.00000000000E+00 0.  1.
         23    2    1    2    0    0 -0.65940805868E+03  0.47913827214E+03  0.15699325952E+04  0.17712526218E+04  0.90857167721E+02 0.  0.
         13    1    3    3    0    0 -0.48903658302E+03  0.36224198990E+03  0.12520299470E+04  0.13921045317E+04  0.00000000000E+00 0. -1.
        -13    1    3    3    0    0 -0.17037147565E+03  0.11689628224E+03  0.31790264821E+03  0.37914809014E+03  0.00000000000E+00 0.  1.
         22    1    1    2    0    0  0.65940805868E+03 -0.47913827214E+03  0.13841447704E+04  0.16063154164E+04  0.00000000000E+00 0.  1.
<mgrwt>
<rscale>  0 0.16374959E+04</rscale>
<asrwt>0</asrwt>
<pdfrwt beam="1">  1        2 0.48704961E+00 0.16374959E+04</pdfrwt>
<pdfrwt beam="2">  1       -2 0.32576208E-01 0.16374959E+04</pdfrwt>
<totfact> 0.11544505E+01</totfact>
</mgrwt>
</event>
<event>
 6    1  0.1001928E-005  0.3057071E+04  0.7818608E-02  0.8227619E-01
         -2   -1    0    0    0  501 -0.00000000000E+00  0.00000000000E+00  0.12277311003E+04  0.12277311003E+04  0.00000000000E+00 0.  1.
          2   -1    0    0  501    0  0.00000000000E+00 -0.00000000000E+00 -0.19030398066E+04  0.19030398066E+04  0.00000000000E+00 0. -1.
         23    2    1    2    0    0 -0.10412883606E+04 -0.18613744801E+03  0.79012956211E+03  0.13234419612E+04  0.90913696728E+02 0.  0.
         11    1    3    3    0    0 -0.26204871291E+03 -0.50149348309E+02  0.24982000777E+03  0.36550584312E+03  0.00000000000E+00 0.  1.
        -11    1    3    3    0    0 -0.77923964772E+03 -0.13598809970E+03  0.54030955434E+03  0.95793611810E+03  0.00000000000E+00 0. -1.
         22    1    1    2    0    0  0.10412883606E+04  0.18613744801E+03 -0.14654382684E+04  0.18073289457E+04  0.00000000000E+00 0. -1.
<mgrwt>
<rscale>  0 0.30570712E+04</rscale>
<asrwt>0</asrwt>
<pdfrwt beam="1">  1        2 0.29277536E+00 0.30570712E+04</pdfrwt>
<pdfrwt beam="2">  1       -2 0.18888171E+00 0.30570712E+04</pdfrwt>
<totfact> 0.10164845E+00</totfact>
</mgrwt>
</event>
<event>
 6    1  0.1001928E-005  0.1268212E+04  0.7818608E-02  0.9055160E-01
         -2   -1    0    0    0  501 -0.00000000000E+00  0.00000000000E+00  0.19553414379E+03  0.19553414379E+03  0.00000000000E+00 0.  1.
          2   -1    0    0  501    0  0.00000000000E+00 -0.00000000000E+00 -0.20563700813E+04  0.20563700813E+04  0.00000000000E+00 0. -1.
         23    2    1    2    0    0 -0.41167727599E+03 -0.47482559822E+03 -0.85070170021E+03  0.10622367482E+04  0.98569762631E+02 0.  0.
         11    1    3    3    0    0 -0.23913842802E+03 -0.34532609665E+03 -0.54524226801E+03  0.68827787383E+03  0.00000000000E+00 0. -1.
        -11    1    3    3    0    0 -0.17253884798E+03 -0.12949950157E+03 -0.30545943219E+03  0.37395887432E+03  0.00000000000E+00 0.  1.
         22    1    1    2    0    0  0.41167727599E+03  0.47482559822E+03 -0.10101342373E+04  0.11896674769E+04  0.00000000000E+00 0. -1.
<mgrwt>
<rscale>  0 0.12682122E+04</rscale>
<asrwt>0</asrwt>
<pdfrwt beam="1">  1        2 0.31636461E+00 0.12682122E+04</pdfrwt>
<pdfrwt beam="2">  1       -2 0.30082177E-01 0.12682122E+04</pdfrwt>
<totfact> 0.62367154E+01</totfact>
</mgrwt>
</event>
<event>
 6    1  0.1001928E-005  0.2371160E+04  0.7818608E-02  0.8450381E-01
         -2   -1    0    0    0  501 -0.00000000000E+00  0.00000000000E+00  0.50281332945E+03  0.50281332945E+03  0.00000000000E+00 0.  1.
          2   -1    0    0  501    0  0.00000000000E+00 -0.00000000000E+00 -0.27954699692E+04  0.27954699692E+04  0.00000000000E+00 0. -1.
         23    2    1    2    0    0 -0.83172946102E+03  0.83310981971E+03 -0.13221082157E+04  0.17725670369E+04  0.90431732391E+02 0.  0.
         11    1    3    3    0    0 -0.33144809343E+03  0.28857229448E+03 -0.54011751659E+03  0.69631798735E+03  0.00000000000E+00 0. -1.
        -11    1    3    3    0    0 -0.50028136759E+03  0.54453752523E+03 -0.78199069909E+03  0.10762490495E+04  0.00000000000E+00 0.  1.
         22    1    1    2    0    0  0.83172946102E+03 -0.83310981971E+03 -0.97054842410E+03  0.15257162618E+04  0.00000000000E+00 0. -1.
<mgrwt>
<rscale>  0 0.23711597E+04</rscale>
<asrwt>0</asrwt>
<pdfrwt beam="1">  1        2 0.43007231E+00 0.23711597E+04</pdfrwt>
<pdfrwt beam="2">  1       -2 0.77355895E-01 0.23711597E+04</pdfrwt>
<totfact> 0.31269971E+00</totfact>
</mgrwt>
</event>
<event>
 6    1  0.1001928E-005  0.1644497E+04  0.7818608E-02  0.8793669E-01
         -2   -1    0    0    0  501 -0.00000000000E+00  0.00000000000E+00  0.27946450688E+03  0.27946450688E+03  0.00000000000E+00 0.  1.
          2   -1    0    0  501    0  0.00000000000E+00 -0.00000000000E+00 -0.24192434610E+04  0.24192434610E+04  0.00000000000E+00 0. -1.
         23    2    1    2    0    0  0.15881344337E+03 -0.57357567140E+03 -0.19981900807E+04  0.20869415339E+04  0.91381654942E+02 0.  0.
         13    1    3    3    0    0  0.10841666104E+01 -0.97113267615E+02 -0.25240984573E+03  0.27044942667E+03  0.00000000000E+00 0.  1.
        -13    1    3    3    0    0  0.15772927675E+03 -0.47646240378E+03 -0.17457802350E+04  0.18164921073E+04  0.00000000000E+00 0. -1.
         22    1    1    2    0    0 -0.15881344337E+03  0.57357567140E+03 -0.14158887342E+03  0.61176643394E+03  0.00000000000E+00 0.  1.
<mgrwt>
<rscale>  0 0.16444971E+04</rscale>
<asrwt>0</asrwt>
<pdfrwt beam="1">  1        2 0.37219131E+00 0.16444971E+04</pdfrwt>
<pdfrwt beam="2">  1       -2 0.42994539E-01 0.16444971E+04</pdfrwt>
<totfact> 0.19025444E+01</totfact>
</mgrwt>
</event>
<event>
 6    1  0.1001928E-005  0.9994600E+03  0.7818608E-02  0.9309137E-01
         -2   -1    0    0    0  501 -0.00000000000E+00  0.00000000000E+00  0.69482630305E+02  0.69482630305E+02  0.00000000000E+00 0.  1.
          2   -1    0    0  501    0  0.00000000000E+00 -0.00000000000E+00 -0.35941365221E+04  0.35941365221E+04  0.00000000000E+00 0. -1.
         23    2    1    2    0    0  0.47017747343E+03  0.37086952788E+02 -0.12189715048E+04  0.13101932308E+04  0.90953141974E+02 0.  0.
         13    1    3    3    0    0  0.25408115917E+03  0.42517904234E+02 -0.55395594820E+03  0.61092732806E+03  0.00000000000E+00 0.  1.
        -13    1    3    3    0    0  0.21609631426E+03 -0.54309514466E+01 -0.66501555655E+03  0.69926590273E+03  0.00000000000E+00 0. -1.
         22    1    1    2    0    0 -0.47017747343E+03 -0.37086952788E+02 -0.23056823871E+04  0.23534259216E+04  0.00000000000E+00 0. -1.
<mgrwt>
<rscale>  0 0.99945997E+03</rscale>
<asrwt>0</asrwt>
<pdfrwt beam="1">  1        2 0.55294439E+00 0.99945997E+03</pdfrwt>
<pdfrwt beam="2">  1       -2 0.10689629E-01 0.99945997E+03</pdfrwt>
<totfact> 0.44809260E+01</totfact>
</mgrwt>
</event>
<event>
 6    1  0.1001928E-005  0.1734764E+04  0.7818608E-02  0.8741782E-01
          1   -1    0    0  501    0  0.00000000000E+00  0.00000000000E+00  0.30381351038E+04  0.30381351038E+04  0.00000000000E+00 0. -1.
         -1   -1    0    0    0  501 -0.00000000000E+00 -0.00000000000E+00 -0.24763607846E+03  0.24763607846E+03  0.00000000000E+00 0.  1.
         23    2    1    2    0    0  0.61834998997E+03 -0.93522091316E+02  0.26725193175E+03  0.68617910138E+03  0.91187019299E+02 0.  0.
         13    1    3    3    0    0  0.49223137711E+02 -0.85088782987E+01 -0.37969445666E+01  0.50097256253E+02  0.00000000000E+00 0.  1.
        -13    1    3    3    0    0  0.56912685226E+03 -0.85013213018E+02  0.27104887632E+03  0.63608184513E+03  0.00000000000E+00 0. -1.
         22    1    1    2    0    0 -0.61834998997E+03  0.93522091316E+02  0.25232470936E+04  0.25995920809E+04  0.00000000000E+00 0. -1.
<mgrwt>
<rscale>  0 0.17347644E+04</rscale>
<asrwt>0</asrwt>
<pdfrwt beam="1">  1        1 0.46740537E+00 0.17347644E+04</pdfrwt>
<pdfrwt beam="2">  1       -1 0.38097860E-01 0.17347644E+04</pdfrwt>
<totfact> 0.35547093E+00</totfact>
</mgrwt>
</event>
<event>
 6    1  0.1001928E-005  0.3077804E+04  0.7818608E-02  0.8221856E-01
          2   -1    0    0  501    0  0.00000000000E+00  0.00000000000E+00  0.14971318490E+04  0.14971318490E+04  0.00000000000E+00 0. -1.
         -2   -1    0    0    0  501 -0.00000000000E+00 -0.00000000000E+00 -0.15818375485E+04  0.15818375485E+04  0.00000000000E+00 0.  1.
         23    2    1    2    0    0 -0.47183057723E+03  0.62370628115E+03 -0.13666637587E+04  0.15772869796E+04  0.91819212920E+02 0.  0.
         13    1    3    3    0    0 -0.17486727342E+03  0.30449256236E+03 -0.63214260648E+03  0.72311725106E+03  0.00000000000E+00 0.  1.
        -13    1    3    3    0    0 -0.29696330381E+03  0.31921371879E+03 -0.73452115221E+03  0.85416972852E+03  0.00000000000E+00 0. -1.
         22    1    1    2    0    0  0.47183057723E+03 -0.62370628115E+03  0.12819580592E+04  0.15016824179E+04  0.00000000000E+00 0. -1.
<mgrwt>
<rscale>  0 0.30778040E+04</rscale>
<asrwt>0</asrwt>
<pdfrwt beam="1">  1        2 0.23032798E+00 0.30778040E+04</pdfrwt>
<pdfrwt beam="2">  1       -2 0.24335962E+00 0.30778040E+04</pdfrwt>
<totfact> 0.76529482E-01</totfact>
</mgrwt>
</event>
<event>
 6    1  0.1001928E-005  0.1627508E+04  0.7818608E-02  0.8803825E-01
         -1   -1    0    0    0  501 -0.00000000000E+00  0.00000000000E+00  0.39377647099E+03  0.39377647099E+03  0.00000000000E+00 0.  1.
          1   -1    0    0  501    0  0.00000000000E+00 -0.00000000000E+00 -0.16816533790E+04  0.16816533790E+04  0.00000000000E+00 0. -1.
         23    2    1    2    0    0  0.39353698234E+02 -0.76529626301E+03 -0.30728428805E+03  0.83092634656E+03  0.93743671732E+02 0.  0.
         13    1    3    3    0    0 -0.25451859577E+02 -0.15809029959E+03 -0.45013778427E+02  0.16633273949E+03  0.00000000000E+00 0. -1.
        -13    1    3    3    0    0  0.64805557812E+02 -0.60720596342E+03 -0.26227050962E+03  0.66459360707E+03  0.00000000000E+00 0.  1.
         22    1    1    2    0    0 -0.39353698234E+02  0.76529626301E+03 -0.98059262000E+03  0.12445035035E+04  0.00000000000E+00 0.  1.
<mgrwt>
<rscale>  0 0.16275080E+04</rscale>
<asrwt>0</asrwt>
<pdfrwt beam="1">  1        1 0.25871590E+00 0.16275080E+04</pdfrwt>
<pdfrwt beam="2">  1       -1 0.60580998E-01 0.16275080E+04</pdfrwt>
<totfact> 0.12976873E+01</totfact>
</mgrwt>
</event>
<event>
 6    1  0.1001928E-005  0.1083555E+04  0.7818608E-02  0.9221370E-01
         -1   -1    0    0    0  501 -0.00000000000E+00  0.00000000000E+00  0.25753329474E+03  0.25753329474E+03  0.00000000000E+00 0.  1.
          1   -1    0    0  501    0  0.00000000000E+00 -0.00000000000E+00 -0.11397481448E+04  0.11397481448E+04  0.00000000000E+00 0. -1.
         23    2    1    2    0    0 -0.41443902592E+03 -0.25357259171E+03 -0.14530055262E+03  0.51461420482E+03  0.87502935602E+02 0.  0.
         11    1    3    3    0    0 -0.27030003265E+03 -0.21027166279E+03 -0.88088114456E+02  0.35360400978E+03  0.00000000000E+00 0. -1.
        -11    1    3    3    0    0 -0.14413899327E+03 -0.43300928917E+02 -0.57212438169E+02  0.16101019504E+03  0.00000000000E+00 0.  1.
         22    1    1    2    0    0  0.41443902592E+03  0.25357259171E+03 -0.73691429740E+03  0.88266723468E+03  0.00000000000E+00 0. -1.
<mgrwt>
<rscale>  0 0.10835554E+04</rscale>
<asrwt>0</asrwt>
<pdfrwt beam="1">  1        1 0.17534587E+00 0.10835554E+04</pdfrwt>
<pdfrwt beam="2">  1       -1 0.39620506E-01 0.10835554E+04</pdfrwt>
<totfact> 0.73139954E+01</totfact>
</mgrwt>
</event>
<event>
 6    1  0.1001928E-005  0.2472990E+04  0.7818608E-02  0.8412672E-01
          4   -1    0    0  501    0  0.00000000000E+00  0.00000000000E+00  0.19477362261E+04  0.19477362261E+04  0.00000000000E+00 0. -1.
         -4   -1    0    0    0  501 -0.00000000000E+00 -0.00000000000E+00 -0.78497278975E+03  0.78497278975E+03  0.00000000000E+00 0.  1.
         23    2    1    2    0    0  0.10805910874E+04 -0.52022013749E+03  0.90897765508E+03  0.15068569398E+04  0.77918995191E+02 0.  0.
         13    1    3    3    0    0  0.52008552769E+03 -0.28936287148E+03  0.47145251823E+03  0.75926761056E+03  0.00000000000E+00 0. -1.
        -13    1    3    3    0    0  0.56050555973E+03 -0.23085726601E+03  0.43752513686E+03  0.74758932920E+03  0.00000000000E+00 0.  1.
         22    1    1    2    0    0 -0.10805910874E+04  0.52022013749E+03  0.25378578125E+03  0.12258520761E+04  0.00000000000E+00 0.  1.
<mgrwt>
<rscale>  0 0.24729900E+04</rscale>
<asrwt>0</asrwt>
<pdfrwt beam="1">  1        4 0.29965173E+00 0.24729900E+04</pdfrwt>
<pdfrwt beam="2">  1       -4 0.12076504E+00 0.24729900E+04</pdfrwt>
<totfact> 0.28856835E-02</totfact>
</mgrwt>
</event>
<event>
 6    1  0.1001928E-005  0.4046332E+04  0.7818608E-02  0.7995265E-01
          1   -1    0    0  501    0  0.00000000000E+00  0.00000000000E+00  0.37576107827E+04  0.37576107827E+04  0.00000000000E+00 0. -1.
         -1   -1    0    0    0  501 -0.00000000000E+00 -0.00000000000E+00 -0.10893096184E+04  0.10893096184E+04  0.00000000000E+00 0.  1.
         23    2    1    2    0    0  0.19951734994E+04 -0.27518779271E+03  0.11186808975E+04  0.23057064028E+04  0.91593950632E+02 0.  0.
         13    1    3    3    0    0  0.81226628460E+03 -0.15249956296E+03  0.43520783641E+03  0.93404416099E+03  0.00000000000E+00 0. -1.
        -13    1    3    3    0    0  0.11829072148E+04 -0.12268822975E+03  0.68347306105E+03  0.13716622418E+04  0.00000000000E+00 0.  1.
         22    1    1    2    0    0 -0.19951734994E+04  0.27518779271E+03  0.15496202668E+04  0.25412139983E+04  0.00000000000E+00 0. -1.
<mgrwt>
<rscale>  0 0.40463324E+04</rscale>
<asrwt>0</asrwt>
<pdfrwt beam="1">  1        1 0.57809396E+00 0.40463324E+04</pdfrwt>
<pdfrwt beam="2">  1       -1 0.16758610E+00 0.40463324E+04</pdfrwt>
<totfact> 0.30835863E-02</totfact>
</mgrwt>
</event>
<event>
 6    1  0.1001928E-005  0.8820955E+03  0.7818608E-02  0.9448244E-01
          2   -1    0    0  501    0  0.00000000000E+00  0.00000000000E+00  0.13640935597E+04  0.13640935597E+04  0.00000000000E+00 0. -1.
         -2   -1    0    0    0  501 -0.00000000000E+00 -0.00000000000E+00 -0.14260248077E+03  0.14260248077E+03  0.00000000000E+00 0.  1.
         23    2    1    2    0    0  0.31659869179E+03 -0.11942469393E+03  0.10879002951E+04  0.11429055971E+04  0.90604429578E+02 0.  0.
         11    1    3    3    0    0  0.12822573707E+03 -0.82537996580E+02  0.38036423120E+03  0.40979422751E+03  0.00000000000E+00 0.  1.
        -11    1    3    3    0    0  0.18837295471E+03 -0.36886697352E+02  0.70753606385E+03  0.73311136955E+03  0.00000000000E+00 0. -1.
         22    1    1    2    0    0 -0.31659869179E+03  0.11942469393E+03  0.13359078386E+03  0.36379044338E+03  0.00000000000E+00 0.  1.
<mgrwt>
<rscale>  0 0.88209552E+03</rscale>
<asrwt>0</asrwt>
<pdfrwt beam="1">  1        2 0.20986054E+00 0.88209552E+03</pdfrwt>
<pdfrwt beam="2">  1       -2 0.21938844E-01 0.88209552E+03</pdfrwt>
<totfact> 0.27602225E+02</totfact>
</mgrwt>
</event>
<event>
 6    1  0.1001928E-005  0.1779801E+04  0.7818608E-02  0.8717115E-01
          1   -1    0    0  501    0  0.00000000000E+00  0.00000000000E+00  0.17715809826E+04  0.17715809826E+04  0.00000000000E+00 0. -1.
         -1   -1    0    0    0  501 -0.00000000000E+00 -0.00000000000E+00 -0.44701472054E+03  0.44701472054E+03  0.00000000000E+00 0.  1.
         23    2    1    2    0    0 -0.63830781551E+03 -0.58365843259E+03  0.91077051884E+03  0.12597834429E+04  0.97248916291E+02 0.  0.
         13    1    3    3    0    0 -0.61639850939E+03 -0.58302421323E+03  0.88700259042E+03  0.12274518121E+04  0.00000000000E+00 0. -1.
        -13    1    3    3    0    0 -0.21909306123E+02 -0.63421936008E+00  0.23767928418E+02  0.32331630802E+02  0.00000000000E+00 0.  1.
         22    1    1    2    0    0  0.63830781551E+03  0.58365843259E+03  0.41379574319E+03  0.95881226023E+03  0.00000000000E+00 0.  1.
<mgrwt>
<rscale>  0 0.17798009E+04</rscale>
<asrwt>0</asrwt>
<pdfrwt beam="1">  1        1 0.27255092E+00 0.17798009E+04</pdfrwt>
<pdfrwt beam="2">  1       -1 0.68771496E-01 0.17798009E+04</pdfrwt>
<totfact> 0.86141770E+00</totfact>
</mgrwt>
</event>
<event>
 6    1  0.1001928E-005  0.2586716E+04  0.7818608E-02  0.8372727E-01
          1   -1    0    0  501    0  0.00000000000E+00  0.00000000000E+00  0.24991228009E+04  0.24991228009E+04  0.00000000000E+00 0. -1.
         -1   -1    0    0    0  501 -0.00000000000E+00 -0.00000000000E+00 -0.66934506758E+03  0.66934506758E+03  0.00000000000E+00 0.  1.
         23    2    1    2    0    0  0.12089869228E+04  0.18650644017E+03  0.14243260216E+04  0.18797378260E+04  0.90970581921E+02 0.  0.
         11    1    3    3    0    0  0.10814876531E+04  0.16772812350E+03  0.12282138851E+04  0.16450707021E+04  0.00000000000E+00 0. -1.
        -11    1    3    3    0    0  0.12749926970E+03  0.18778316675E+02  0.19611213655E+03  0.23466712393E+03  0.00000000000E+00 0.  1.
         22    1    1    2    0    0 -0.12089869228E+04 -0.18650644017E+03  0.40545171168E+03  0.12887300425E+04  0.00000000000E+00 0.  1.
<mgrwt>
<rscale>  0 0.25867165E+04</rscale>
<asrwt>0</asrwt>
<pdfrwt beam="1">  1        1 0.38448043E+00 0.25867165E+04</pdfrwt>
<pdfrwt beam="2">  1       -1 0.10297617E+00 0.25867165E+04</pdfrwt>
<totfact> 0.10651648E+00</totfact>
</mgrwt>
</event>
<event>
 6    1  0.1001928E-005  0.2131391E+04  0.7818608E-02  0.8547540E-01
         -2   -1    0    0    0  501 -0.00000000000E+00  0.00000000000E+00  0.47594144398E+03  0.47594144398E+03  0.00000000000E+00 0. -1.
          2   -1    0    0  501    0  0.00000000000E+00 -0.00000000000E+00 -0.23862315234E+04  0.23862315234E+04  0.00000000000E+00 0.  1.
         23    2    1    2    0    0  0.59026927227E+03  0.60611363212E+03 -0.18225157549E+04  0.20115873568E+04  0.95543017672E+02 0.  0.
         13    1    3    3    0    0  0.37733664878E+03  0.43493764667E+03 -0.13048842008E+04  0.14262806457E+04  0.00000000000E+00 0.  1.
        -13    1    3    3    0    0  0.21293262349E+03  0.17117598545E+03 -0.51763155417E+03  0.58530671107E+03  0.00000000000E+00 0. -1.
         22    1    1    2    0    0 -0.59026927227E+03 -0.60611363212E+03 -0.87774324459E+02  0.85058561055E+03  0.00000000000E+00 0. -1.
<mgrwt>
<rscale>  0 0.21313906E+04</rscale>
<asrwt>0</asrwt>
<pdfrwt beam="1">  1        2 0.36711254E+00 0.21313906E+04</pdfrwt>
<pdfrwt beam="2">  1       -2 0.73221760E-01 0.21313906E+04</pdfrwt>
<totfact> 0.62667350E+00</totfact>
</mgrwt>
</event>
<event>
 6    1  0.1001928E-005  0.4359665E+03  0.7818608E-02  0.1031992E+00
          1   -1    0    0  501    0  0.00000000000E+00  0.00000000000E+00  0.70771098400E+02  0.70771098400E+02  0.00000000000E+00 0. -1.
         -1   -1    0    0    0  501 -0.00000000000E+00 -0.00000000000E+00 -0.67141400254E+03  0.67141400254E+03  0.00000000000E+00 0.  1.
         23    2    1    2    0    0 -0.62257793264E+02 -0.34617569115E+02 -0.64704228493E+03  0.65717150525E+03  0.90201219011E+02 0.  0.
         11    1    3    3    0    0 -0.58754459358E+02 -0.53456641119E+02 -0.32525356601E+03  0.33481275539E+03  0.00000000000E+00 0. -1.
        -11    1    3    3    0    0 -0.35033339061E+01  0.18839072003E+02 -0.32178871893E+03  0.32235874986E+03  0.00000000000E+00 0.  1.
         22    1    1    2    0    0  0.62257793264E+02  0.34617569115E+02  0.46399380793E+02  0.85013595687E+02  0.00000000000E+00 0. -1.
<mgrwt>
<rscale>  0 0.43596654E+03</rscale>
<asrwt>0</asrwt>
<pdfrwt beam="1">  1        1 0.10887862E-01 0.43596654E+03</pdfrwt>
<pdfrwt beam="2">  1       -1 0.10329446E+00 0.43596654E+03</pdfrwt>
<totfact> 0.53578021E+02</totfact>
</mgrwt>
</event>
<event>
 6    1  0.1001928E-005  0.2505050E+04  0.7818608E-02  0.8401189E-01
         -2   -1    0    0    0  501 -0.00000000000E+00  0.00000000000E+00  0.77548906821E+03  0.77548906821E+03  0.00000000000E+00 0.  1.
          2   -1    0    0  501    0  0.00000000000E+00 -0.00000000000E+00 -0.20230059644E+04  0.20230059644E+04  0.00000000000E+00 0. -1.
         23    2    1    2    0    0 -0.60794716422E+03 -0.53837612668E+03 -0.16874572478E+04  0.18749171414E+04  0.91398663288E+02 0.  0.
         11    1    3    3    0    0 -0.12805357435E+03 -0.67198554893E+02 -0.30577718594E+03  0.33824998319E+03  0.00000000000E+00 0. -1.
        -11    1    3    3    0    0 -0.47989358987E+03 -0.47117757179E+03 -0.13816800618E+04  0.15366671582E+04  0.00000000000E+00 0.  1.
         22    1    1    2    0    0  0.60794716422E+03  0.53837612668E+03  0.43994035158E+03  0.92357789126E+03  0.00000000000E+00 0.  1.
<mgrwt>
<rscale>  0 0.25050501E+04</rscale>
<asrwt>0</asrwt>
<pdfrwt beam="1">  1        2 0.31123169E+00 0.25050501E+04</pdfrwt>
<pdfrwt beam="2">  1       -2 0.11930601E+00 0.25050501E+04</pdfrwt>
<totfact> 0.31154802E+00</totfact>
</mgrwt>
</event>
<event>
 6    1  0.1001928E-005  0.8609117E+03  0.7818608E-02  0.9475808E-01
          2   -1    0    0  501    0  0.00000000000E+00  0.00000000000E+00  0.70053104730E+03  0.70053104730E+03  0.00000000000E+00 0. -1.
         -2   -1    0    0    0  501 -0.00000000000E+00 -0.00000000000E+00 -0.26450254363E+03  0.26450254363E+03  0.00000000000E+00 0.  1.
         23    2    1    2    0    0 -0.29250679553E+03  0.27274849836E+03  0.38386042759E+03  0.56170558924E+03  0.90622140369E+02 0.  0.
         11    1    3    3    0    0 -0.13835810154E+03  0.16070321714E+03  0.14857598777E+03  0.25892723380E+03  0.00000000000E+00 0.  1.
        -11    1    3    3    0    0 -0.15414869398E+03  0.11204528122E+03  0.23528443982E+03  0.30277835544E+03  0.00000000000E+00 0. -1.
         22    1    1    2    0    0  0.29250679553E+03 -0.27274849836E+03  0.52168076081E+02  0.40332800169E+03  0.00000000000E+00 0. -1.
<mgrwt>
<rscale>  0 0.86091171E+03</rscale>
<asrwt>0</asrwt>
<pdfrwt beam="1">  1        2 0.10777401E+00 0.86091171E+03</pdfrwt>
<pdfrwt beam="2">  1       -2 0.40692699E-01 0.86091171E+03</pdfrwt>
<totfact> 0.23499211E+02</totfact>
</mgrwt>
</event>
<event>
 6    1  0.1001928E-005  0.2567940E+04  0.7818608E-02  0.8379173E-01
         -2   -1    0    0    0  501 -0.00000000000E+00  0.00000000000E+00  0.15229451968E+04  0.15229451968E+04  0.00000000000E+00 0.  1.
          2   -1    0    0  501    0  0.00000000000E+00 -0.00000000000E+00 -0.10824942523E+04  0.10824942523E+04  0.00000000000E+00 0. -1.
         23    2    1    2    0    0 -0.94609149190E+02 -0.11726440985E+04  0.73833174153E+03  0.13918587792E+04  0.89955699172E+02 0.  0.
         11    1    3    3    0    0 -0.63099900540E+02 -0.63226559894E+03  0.34758844699E+03  0.72426453285E+03  0.00000000000E+00 0.  1.
        -11    1    3    3    0    0 -0.31509248650E+02 -0.54037849958E+03  0.39074329454E+03  0.66759424637E+03  0.00000000000E+00 0. -1.
         22    1    1    2    0    0  0.94609149190E+02  0.11726440985E+04 -0.29788079703E+03  0.12135806698E+04  0.00000000000E+00 0. -1.
<mgrwt>
<rscale>  0 0.25679404E+04</rscale>
<asrwt>0</asrwt>
<pdfrwt beam="1">  1        2 0.16653758E+00 0.25679404E+04</pdfrwt>
<pdfrwt beam="2">  1       -2 0.23429926E+00 0.25679404E+04</pdfrwt>
<totfact> 0.15920823E+00</totfact>
</mgrwt>
</event>
<event>
 6    1  0.1001928E-005  0.1054616E+04  0.7818608E-02  0.9250591E-01
         -2   -1    0    0    0  501 -0.00000000000E+00  0.00000000000E+00  0.19902370588E+03  0.19902370588E+03  0.00000000000E+00 0. -1.
          2   -1    0    0  501    0  0.00000000000E+00 -0.00000000000E+00 -0.13970878862E+04  0.13970878862E+04  0.00000000000E+00 0.  1.
         23    2    1    2    0    0 -0.70986837826E+02 -0.45958312585E+03 -0.96674871886E+03  0.10767248157E+04  0.92073137752E+02 0.  0.
         13    1    3    3    0    0 -0.88211290422E+02 -0.42918342199E+03 -0.87561581572E+03  0.97912343359E+03  0.00000000000E+00 0.  1.
        -13    1    3    3    0    0  0.17224452597E+02 -0.30399703861E+02 -0.91132903134E+02  0.97601382140E+02  0.00000000000E+00 0. -1.
         22    1    1    2    0    0  0.70986837826E+02  0.45958312585E+03 -0.23131546143E+03  0.51938677631E+03  0.00000000000E+00 0.  1.
<mgrwt>
<rscale>  0 0.10546158E+04</rscale>
<asrwt>0</asrwt>
<pdfrwt beam="1">  1        2 0.21493659E+00 0.10546158E+04</pdfrwt>
<pdfrwt beam="2">  1       -2 0.30619033E-01 0.10546158E+04</pdfrwt>
<totfact> 0.14256916E+02</totfact>
</mgrwt>
</event>
<event>
 6    1  0.1001928E-005  0.3194858E+04  0.7818608E-02  0.8190177E-01
          2   -1    0    0  501    0  0.00000000000E+00  0.00000000000E+00  0.15861326191E+04  0.15861326191E+04  0.00000000000E+00 0. -1.
         -2   -1    0    0    0  501 -0.00000000000E+00 -0.00000000000E+00 -0.16088054294E+04  0.16088054294E+04  0.00000000000E+00 0.  1.
         23    2    1    2    0    0 -0.11609281020E+04  0.10228262316E+04 -0.40318825292E+03  0.16016020638E+04  0.92956147692E+02 0.  0.
         11    1    3    3    0    0 -0.35939332601E+03  0.37510455469E+03 -0.13464039708E+03  0.53665168056E+03  0.00000000000E+00 0.  1.
        -11    1    3    3    0    0 -0.80153477599E+03  0.64772167694E+03 -0.26854785584E+03  0.10649503832E+04  0.00000000000E+00 0. -1.
         22    1    1    2    0    0  0.11609281020E+04 -0.10228262316E+04  0.38051544256E+03  0.15933359847E+04  0.00000000000E+00 0. -1.
<mgrwt>
<rscale>  0 0.31948576E+04</rscale>
<asrwt>0</asrwt>
<pdfrwt beam="1">  1        2 0.24402040E+00 0.31948576E+04</pdfrwt>
<pdfrwt beam="2">  1       -2 0.24750853E+00 0.31948576E+04</pdfrwt>
<totfact> 0.63674339E-01</totfact>
</mgrwt>
</event>
<event>
 6    1  0.1001928E-005  0.1245180E+04  0.7818608E-02  0.9074205E-01
         -3   -1    0    0    0  501 -0.00000000000E+00  0.00000000000E+00  0.13251748303E+04  0.13251748303E+04  0.00000000000E+00 0.  1.
          3   -1    0    0  501    0  0.00000000000E+00 -0.00000000000E+00 -0.29250343967E+03  0.29250343967E+03  0.00000000000E+00 0. -1.
         23    2    1    2    0    0 -0.38519995014E+03 -0.21902974270E+03 -0.43242499462E+02  0.45408739313E+03  0.89288392692E+02 0.  0.
         11    1    3    3    0    0 -0.12937740522E+03 -0.46023693953E+02 -0.47278086654E+02  0.14523054384E+03  0.00000000000E+00 0.  1.
        -11    1    3    3    0    0 -0.25582254492E+03 -0.17300604874E+03  0.40355871920E+01  0.30885684929E+03  0.00000000000E+00 0. -1.
         22    1    1    2    0    0  0.38519995014E+03  0.21902974270E+03  0.10759138901E+04  0.11635908769E+04  0.00000000000E+00 0.  1.
<mgrwt>
<rscale>  0 0.12451798E+04</rscale>
<asrwt>0</asrwt>
<pdfrwt beam="1">  1        3 0.45000530E-01 0.12451798E+04</pdfrwt>
<pdfrwt beam="2">  1       -3 0.20387305E+00 0.12451798E+04</pdfrwt>
<totfact> 0.17557697E+00</totfact>
</mgrwt>
</event>
<event>
 6    1  0.1001928E-005  0.1436967E+04  0.7818608E-02  0.8927486E-01
          2   -1    0    0  501    0  0.00000000000E+00  0.00000000000E+00  0.89993698802E+03  0.89993698802E+03  0.00000000000E+00 0. -1.
         -2   -1    0    0    0  501 -0.00000000000E+00 -0.00000000000E+00 -0.57361658205E+03  0.57361658205E+03  0.00000000000E+00 0.  1.
         23    2    1    2    0    0 -0.35906191287E+03  0.30266458789E+03 -0.38981986471E+03  0.61717269842E+03  0.91713154539E+02 0.  0.
         11    1    3    3    0    0 -0.15926459425E+03  0.19319895120E+03 -0.19358480177E+03  0.31649031771E+03  0.00000000000E+00 0.  1.
        -11    1    3    3    0    0 -0.19979731862E+03  0.10946563669E+03 -0.19623506294E+03  0.30068238071E+03  0.00000000000E+00 0. -1.
         22    1    1    2    0    0  0.35906191287E+03 -0.30266458789E+03  0.71614027068E+03  0.85638087165E+03  0.00000000000E+00 0. -1.
<mgrwt>
<rscale>  0 0.14369673E+04</rscale>
<asrwt>0</asrwt>
<pdfrwt beam="1">  1        2 0.13845184E+00 0.14369673E+04</pdfrwt>
<pdfrwt beam="2">  1       -2 0.88248705E-01 0.14369673E+04</pdfrwt>
<totfact> 0.31485237E+01</totfact>
</mgrwt>
</event>
<event>
 6    1  0.1001928E-005  0.3442323E+04  0.7818608E-02  0.8127596E-01
          1   -1    0    0  501    0  0.00000000000E+00  0.00000000000E+00  0.13333633417E+04  0.13333633417E+04  0.00000000000E+00 0.  1.
         -1   -1    0    0    0  501 -0.00000000000E+00 -0.00000000000E+00 -0.22217480348E+04  0.22217480348E+04  0.00000000000E+00 0. -1.
         23    2    1    2    0    0 -0.15863201104E+03  0.92185351446E+03 -0.19351677183E+04  0.21512834957E+04  0.90380106984E+02 0.  0.
         11    1    3    3    0    0 -0.74403925186E+02  0.61561549056E+03 -0.12110599502E+04  0.13605824412E+04  0.00000000000E+00 0.  1.
        -11    1    3    3    0    0 -0.84228085851E+02  0.30623802390E+03 -0.72410776811E+03  0.79070105449E+03  0.00000000000E+00 0. -1.
         22    1    1    2    0    0  0.15863201104E+03 -0.92185351446E+03  0.10467830253E+04  0.14038278809E+04  0.00000000000E+00 0.  1.
<mgrwt>
<rscale>  0 0.34423233E+04</rscale>
<asrwt>0</asrwt>
<pdfrwt beam="1">  1        1 0.20513282E+00 0.34423233E+04</pdfrwt>
<pdfrwt beam="2">  1       -1 0.34180739E+00 0.34423233E+04</pdfrwt>
<totfact> 0.12352988E-01</totfact>
</mgrwt>
</event>
<event>
 6    1  0.1001928E-005  0.2141057E+04  0.7818608E-02  0.8543370E-01
         -1   -1    0    0    0  501 -0.00000000000E+00  0.00000000000E+00  0.12130746956E+04  0.12130746956E+04  0.00000000000E+00 0.  1.
          1   -1    0    0  501    0  0.00000000000E+00 -0.00000000000E+00 -0.94473228034E+03  0.94473228034E+03  0.00000000000E+00 0. -1.
         23    2    1    2    0    0 -0.25792498695E+03 -0.71893978031E+03 -0.61882939585E+03  0.98713472076E+03  0.89919014392E+02 0.  0.
         11    1    3    3    0    0 -0.14530398026E+03 -0.27544073811E+03 -0.24328048247E+03  0.39517874442E+03  0.00000000000E+00 0.  1.
        -11    1    3    3    0    0 -0.11262100669E+03 -0.44349904219E+03 -0.37554891338E+03  0.59195597633E+03  0.00000000000E+00 0. -1.
         22    1    1    2    0    0  0.25792498695E+03  0.71893978031E+03  0.88717181111E+03  0.11706722552E+04  0.00000000000E+00 0.  1.
<mgrwt>
<rscale>  0 0.21410566E+04</rscale>
<asrwt>0</asrwt>
<pdfrwt beam="1">  1        1 0.14534343E+00 0.21410566E+04</pdfrwt>
<pdfrwt beam="2">  1       -1 0.18662688E+00 0.21410566E+04</pdfrwt>
<totfact> 0.28626763E+00</totfact>
</mgrwt>
</event>
<event>
 6    1  0.1001928E-005  0.9408419E+03  0.7818608E-02  0.9375919E-01
          2   -1    0    0  501    0  0.00000000000E+00  0.00000000000E+00  0.23510668756E+04  0.23510668756E+04  0.00000000000E+00 0. -1.
         -2   -1    0    0    0  501 -0.00000000000E+00 -0.00000000000E+00 -0.94125729012E+02  0.94125729012E+02  0.00000000000E+00 0.  1.
         23    2    1    2    0    0 -0.26538411926E+03  0.13792687986E+03  0.20677633917E+04  0.20912988665E+04  0.91831093916E+02 0.  0.
         11    1    3    3    0    0 -0.15056414406E+03  0.29495499288E+02  0.91636607121E+03  0.92912126357E+03  0.00000000000E+00 0. -1.
        -11    1    3    3    0    0 -0.11481997520E+03  0.10843138057E+03  0.11513973205E+04  0.11621776029E+04  0.00000000000E+00 0.  1.
         22    1    1    2    0    0  0.26538411926E+03 -0.13792687986E+03  0.18917775482E+03  0.35389373810E+03  0.00000000000E+00 0.  1.
<mgrwt>
<rscale>  0 0.94084193E+03</rscale>
<asrwt>0</asrwt>
<pdfrwt beam="1">  1        2 0.36170255E+00 0.94084193E+03</pdfrwt>
<pdfrwt beam="2">  1       -2 0.14480883E-01 0.94084193E+03</pdfrwt>
<totfact> 0.16010935E+02</totfact>
</mgrwt>
</event>
<event>
 6    1  0.1001928E-005  0.4193222E+04  0.7818608E-02  0.7966663E-01
          2   -1    0    0  501    0  0.00000000000E+00  0.00000000000E+00  0.23388643812E+04  0.23388643812E+04  0.00000000000E+00 0. -1.
         -2   -1    0    0    0  501 -0.00000000000E+00 -0.00000000000E+00 -0.18794496159E+04  0.18794496159E+04  0.00000000000E+00 0.  1.
         23    2    1    2    0    0 -0.14823544152E+04  0.76538739748E+03 -0.10459862555E+04  0.19712214947E+04  0.91839283767E+02 0.  0.
         11    1    3    3    0    0 -0.14482305662E+04  0.74605311106E+03 -0.10033513166E+04  0.19132905900E+04  0.00000000000E+00 0. -1.
        -11    1    3    3    0    0 -0.34123849045E+02  0.19334286420E+02 -0.42634938929E+02  0.57930904727E+02  0.00000000000E+00 0.  1.
         22    1    1    2    0    0  0.14823544152E+04 -0.76538739748E+03  0.15054010209E+04  0.22470925024E+04  0.00000000000E+00 0. -1.
<mgrwt>
<rscale>  0 0.41932220E+04</rscale>
<asrwt>0</asrwt>
<pdfrwt beam="1">  1        2 0.35982529E+00 0.41932220E+04</pdfrwt>
<pdfrwt beam="2">  1       -2 0.28914609E+00 0.41932220E+04</pdfrwt>
<totfact> 0.12393183E-01</totfact>
</mgrwt>
</event>
<event>
 6    1  0.1001928E-005  0.5117369E+04  0.7818608E-02  0.7810653E-01
         -1   -1    0    0    0  501 -0.00000000000E+00  0.00000000000E+00  0.23042376547E+04  0.23042376547E+04  0.00000000000E+00 0.  1.
          1   -1    0    0  501    0  0.00000000000E+00 -0.00000000000E+00 -0.28412293092E+04  0.28412293092E+04  0.00000000000E+00 0. -1.
         23    2    1    2    0    0 -0.24928797885E+04  0.23638948312E+03 -0.79317657019E+03  0.26283336066E+04  0.93160338978E+02 0.  0.
         11    1    3    3    0    0 -0.17552499096E+04  0.12642282443E+03 -0.57285142501E+03  0.18506873671E+04  0.00000000000E+00 0.  1.
        -11    1    3    3    0    0 -0.73762987890E+03  0.10996665869E+03 -0.22032514518E+03  0.77764623954E+03  0.00000000000E+00 0. -1.
         22    1    1    2    0    0  0.24928797885E+04 -0.23638948312E+03  0.25618491569E+03  0.25171333573E+04  0.00000000000E+00 0. -1.
<mgrwt>
<rscale>  0 0.51173695E+04</rscale>
<asrwt>0</asrwt>
<pdfrwt beam="1">  1        1 0.43711220E+00 0.51173695E+04</pdfrwt>
<pdfrwt beam="2">  1       -1 0.35449810E+00 0.51173695E+04</pdfrwt>
<totfact> 0.80801456E-03</totfact>
</mgrwt>
</event>
<event>
 6    1  0.1001928E-005  0.1765262E+04  0.7818608E-02  0.8724994E-01
         -1   -1    0    0    0  501 -0.00000000000E+00  0.00000000000E+00  0.18132218434E+03  0.18132218434E+03  0.00000000000E+00 0.  1.
          1   -1    0    0  501    0  0.00000000000E+00 -0.00000000000E+00 -0.42964289710E+04  0.42964289710E+04  0.00000000000E+00 0. -1.
         23    2    1    2    0    0  0.75475068362E+02 -0.19183912327E+03 -0.42339018271E+04  0.42398204999E+04  0.87489740940E+02 0.  0.
         11    1    3    3    0    0  0.10256593162E+02 -0.13994465708E+03 -0.25517137390E+04  0.25555689602E+04  0.00000000000E+00 0.  1.
        -11    1    3    3    0    0  0.65218475199E+02 -0.51894466198E+02 -0.16821880881E+04  0.16842515397E+04  0.00000000000E+00 0. -1.
         22    1    1    2    0    0 -0.75475068362E+02  0.19183912327E+03  0.11879504043E+03  0.23793065543E+03  0.00000000000E+00 0.  1.
<mgrwt>
<rscale>  0 0.17652625E+04</rscale>
<asrwt>0</asrwt>
<pdfrwt beam="1">  1        1 0.66098907E+00 0.17652625E+04</pdfrwt>
<pdfrwt beam="2">  1       -1 0.27895721E-01 0.17652625E+04</pdfrwt>
<totfact> 0.57176988E-01</totfact>
</mgrwt>
</event>
<event>
 6    1  0.1001928E-005  0.2920560E+04  0.7818608E-02  0.8266786E-01
         -1   -1    0    0    0  501 -0.00000000000E+00  0.00000000000E+00  0.88606701311E+03  0.88606701311E+03  0.00000000000E+00 0.  1.
          1   -1    0    0  501    0  0.00000000000E+00 -0.00000000000E+00 -0.24066104686E+04  0.24066104686E+04  0.00000000000E+00 0. -1.
         23    2    1    2    0    0 -0.10190922357E+04 -0.95587489301E+03 -0.28787422522E+03  0.14294224730E+04  0.90173393480E+02 0.  0.
         13    1    3    3    0    0 -0.53308902663E+03 -0.56003426681E+03 -0.16890691523E+03  0.79142392959E+03  0.00000000000E+00 0.  1.
        -13    1    3    3    0    0 -0.48600320911E+03 -0.39584062620E+03 -0.11896730999E+03  0.63799854346E+03  0.00000000000E+00 0. -1.
         22    1    1    2    0    0  0.10190922357E+04  0.95587489301E+03 -0.12326692302E+04  0.18632550086E+04  0.00000000000E+00 0. -1.
<mgrwt>
<rscale>  0 0.29205603E+04</rscale>
<asrwt>0</asrwt>
<pdfrwt beam="1">  1        1 0.37024777E+00 0.29205603E+04</pdfrwt>
<pdfrwt beam="2">  1       -1 0.13631800E+00 0.29205603E+04</pdfrwt>
<totfact> 0.60499106E-01</totfact>
</mgrwt>
</event>
<event>
 6    1  0.1001928E-005  0.1989340E+04  0.7818608E-02  0.8611621E-01
          2   -1    0    0  501    0  0.00000000000E+00  0.00000000000E+00  0.90237378708E+03  0.90237378708E+03  0.00000000000E+00 0.  1.
         -2   -1    0    0    0  501 -0.00000000000E+00 -0.00000000000E+00 -0.10964067770E+04  0.10964067770E+04  0.00000000000E+00 0. -1.
         23    2    1    2    0    0 -0.30189223716E+02  0.73254933520E+03  0.57501254841E+03  0.93625011381E+03  0.91569247192E+02 0.  0.
         11    1    3    3    0    0 -0.39248767352E+02  0.37561944508E+03  0.24591058436E+03  0.45066889039E+03  0.00000000000E+00 0. -1.
        -11    1    3    3    0    0  0.90595436360E+01  0.35692989012E+03  0.32910196405E+03  0.48558122342E+03  0.00000000000E+00 0.  1.
         22    1    1    2    0    0  0.30189223716E+02 -0.73254933520E+03 -0.76904553833E+03  0.10625304503E+04  0.00000000000E+00 0.  1.
<mgrwt>
<rscale>  0 0.19893403E+04</rscale>
<asrwt>0</asrwt>
<pdfrwt beam="1">  1        2 0.13882674E+00 0.19893403E+04</pdfrwt>
<pdfrwt beam="2">  1       -2 0.16867797E+00 0.19893403E+04</pdfrwt>
<totfact> 0.59148766E+00</totfact>
</mgrwt>
</event>
<event>
 6    1  0.1001928E-005  0.4186840E+03  0.7818608E-02  0.1037495E+00
          1   -1    0    0  501    0  0.00000000000E+00  0.00000000000E+00  0.37505930826E+03  0.37505930826E+03  0.00000000000E+00 0. -1.
         -1   -1    0    0    0  501 -0.00000000000E+00 -0.00000000000E+00 -0.11684571891E+03  0.11684571891E+03  0.00000000000E+00 0.  1.
         23    2    1    2    0    0 -0.53731859155E+02  0.34237196663E+02  0.35679171693E+03  0.37452979315E+03  0.94408359587E+02 0.  0.
         13    1    3    3    0    0 -0.59495703001E+02  0.60744109715E+02  0.23959904937E+03  0.25423864773E+03  0.00000000000E+00 0.  1.
        -13    1    3    3    0    0  0.57638438461E+01 -0.26506913052E+02  0.11719266757E+03  0.12029114542E+03  0.00000000000E+00 0. -1.
         22    1    1    2    0    0  0.53731859155E+02 -0.34237196663E+02 -0.98578127580E+02  0.11737523402E+03  0.00000000000E+00 0.  1.
<mgrwt>
<rscale>  0 0.41868401E+03</rscale>
<asrwt>0</asrwt>
<pdfrwt beam="1">  1        1 0.57701432E-01 0.41868401E+03</pdfrwt>
<pdfrwt beam="2">  1       -1 0.17976265E-01 0.41868401E+03</pdfrwt>
<totfact> 0.15878559E+03</totfact>
</mgrwt>
</event>
<event>
 6    1  0.1001928E-005  0.2750280E+04  0.7818608E-02  0.8318873E-01
         -2   -1    0    0    0  501 -0.00000000000E+00  0.00000000000E+00  0.13155584671E+04  0.13155584671E+04  0.00000000000E+00 0.  1.
          2   -1    0    0  501    0  0.00000000000E+00 -0.00000000000E+00 -0.14374201373E+04  0.14374201373E+04  0.00000000000E+00 0. -1.
         23    2    1    2    0    0 -0.50900338998E+03 -0.12380481098E+04 -0.36939628965E+03  0.13916847489E+04  0.92115407319E+02 0.  0.
         11    1    3    3    0    0 -0.16882279707E+03 -0.52502003031E+03 -0.13867252225E+03  0.56866267459E+03  0.00000000000E+00 0.  1.
        -11    1    3    3    0    0 -0.34018059292E+03 -0.71302807949E+03 -0.23072376740E+03  0.82302207430E+03  0.00000000000E+00 0. -1.
         22    1    1    2    0    0  0.50900338998E+03  0.12380481098E+04  0.24753461952E+03  0.13612938555E+04  0.00000000000E+00 0. -1.
<mgrwt>
<rscale>  0 0.27502802E+04</rscale>
<asrwt>0</asrwt>
<pdfrwt beam="1">  1        2 0.22114156E+00 0.27502802E+04</pdfrwt>
<pdfrwt beam="2">  1       -2 0.20239361E+00 0.27502802E+04</pdfrwt>
<totfact> 0.15440786E+00</totfact>
</mgrwt>
</event>
<event>
 6    1  0.1001928E-005  0.1050418E+04  0.7818608E-02  0.9254913E-01
         -2   -1    0    0    0  501 -0.00000000000E+00  0.00000000000E+00  0.22729185287E+03  0.22729185287E+03  0.00000000000E+00 0.  1.
          2   -1    0    0  501    0  0.00000000000E+00 -0.00000000000E+00 -0.12136130608E+04  0.12136130608E+04  0.00000000000E+00 0. -1.
         23    2    1    2    0    0  0.16138197516E+03 -0.18744067388E+03  0.13186915307E+03  0.29568535761E+03  0.94139306571E+02 0.  0.
         13    1    3    3    0    0  0.67928689062E+02 -0.12104057936E+03  0.11409671890E+03  0.17967523455E+03  0.00000000000E+00 0.  1.
        -13    1    3    3    0    0  0.93453286101E+02 -0.66400094523E+02  0.17772434179E+02  0.11601012306E+03  0.00000000000E+00 0. -1.
         22    1    1    2    0    0 -0.16138197516E+03  0.18744067388E+03 -0.11181903610E+04  0.11452195561E+04  0.00000000000E+00 0. -1.
<mgrwt>
<rscale>  0 0.10504177E+04</rscale>
<asrwt>0</asrwt>
<pdfrwt beam="1">  1        2 0.18670970E+00 0.10504177E+04</pdfrwt>
<pdfrwt beam="2">  1       -2 0.34967978E-01 0.10504177E+04</pdfrwt>
<totfact> 0.14188328E+02</totfact>
</mgrwt>
</event>
<event>
 6    1  0.1001928E-005  0.1468851E+04  0.7818608E-02  0.8905435E-01
          2   -1    0    0  501    0  0.00000000000E+00  0.00000000000E+00  0.60959668265E+03  0.60959668265E+03  0.00000000000E+00 0. -1.
         -2   -1    0    0    0  501 -0.00000000000E+00 -0.00000000000E+00 -0.88481537321E+03  0.88481537321E+03  0.00000000000E+00 0.  1.
         23    2    1    2    0    0 -0.20038273701E+03  0.18667564403E+03 -0.82774233992E+03  0.87774081406E+03  0.10134356421E+03 0.  0.
         13    1    3    3    0    0 -0.15127928231E+03  0.72616034709E+02 -0.46972059276E+03  0.49879449177E+03  0.00000000000E+00 0.  1.
        -13    1    3    3    0    0 -0.49103454708E+02  0.11405960932E+03 -0.35802174716E+03  0.37894632230E+03  0.00000000000E+00 0. -1.
         22    1    1    2    0    0  0.20038273701E+03 -0.18667564403E+03  0.55252364936E+03  0.61667124180E+03  0.00000000000E+00 0. -1.
<mgrwt>
<rscale>  0 0.14688506E+04</rscale>
<asrwt>0</asrwt>
<pdfrwt beam="1">  1        2 0.93784105E-01 0.14688506E+04</pdfrwt>
<pdfrwt beam="2">  1       -2 0.13612544E+00 0.14688506E+04</pdfrwt>
<totfact> 0.18186732E+01</totfact>
</mgrwt>
</event>
<event>
 6    1  0.1001928E-005  0.2450932E+04  0.7818608E-02  0.8420678E-01
         -2   -1    0    0    0  501 -0.00000000000E+00  0.00000000000E+00  0.13104944681E+04  0.13104944681E+04  0.00000000000E+00 0.  1.
          2   -1    0    0  501    0  0.00000000000E+00 -0.00000000000E+00 -0.11459543422E+04  0.11459543422E+04  0.00000000000E+00 0. -1.
         23    2    1    2    0    0 -0.10055865771E+04  0.69729225109E+03  0.96675649116E+02  0.12308769296E+04  0.91054858255E+02 0.  0.
         13    1    3    3    0    0 -0.79960844698E+03  0.55766413857E+03  0.11358150846E+03  0.98145999358E+03  0.00000000000E+00 0. -1.
        -13    1    3    3    0    0 -0.20597813016E+03  0.13962811251E+03 -0.16905859346E+02  0.24941693605E+03  0.00000000000E+00 0.  1.
         22    1    1    2    0    0  0.10055865771E+04 -0.69729225109E+03  0.67864476853E+02  0.12255718807E+04  0.00000000000E+00 0. -1.
<mgrwt>
<rscale>  0 0.24509319E+04</rscale>
<asrwt>0</asrwt>
<pdfrwt beam="1">  1        2 0.17630067E+00 0.24509319E+04</pdfrwt>
<pdfrwt beam="2">  1       -2 0.20161453E+00 0.24509319E+04</pdfrwt>
<totfact> 0.23729632E+00</totfact>
</mgrwt>
</event>
<event>
 6    1  0.1001928E-005  0.5384448E+04  0.7818608E-02  0.7771792E-01
          1   -1    0    0  501    0  0.00000000000E+00  0.00000000000E+00  0.35232555138E+04  0.35232555138E+04  0.00000000000E+00 0. -1.
         -1   -1    0    0    0  501 -0.00000000000E+00 -0.00000000000E+00 -0.20572082332E+04  0.20572082332E+04  0.00000000000E+00 0.  1.
         23    2    1    2    0    0 -0.66337893227E+03  0.51200701762E+03  0.33840274884E+04  0.34874107446E+04  0.90381775561E+02 0.  0.
         11    1    3    3    0    0 -0.49439826325E+03  0.42778715034E+03  0.25890747381E+04  0.26703444512E+04  0.00000000000E+00 0. -1.
        -11    1    3    3    0    0 -0.16898066903E+03  0.84219867279E+02  0.79495275032E+03  0.81706629339E+03  0.00000000000E+00 0.  1.
         22    1    1    2    0    0  0.66337893227E+03 -0.51200701762E+03 -0.19179802077E+04  0.20930530024E+04  0.00000000000E+00 0.  1.
<mgrwt>
<rscale>  0 0.53844481E+04</rscale>
<asrwt>0</asrwt>
<pdfrwt beam="1">  1        1 0.54203931E+00 0.53844481E+04</pdfrwt>
<pdfrwt beam="2">  1       -1 0.31649357E+00 0.53844481E+04</pdfrwt>
<totfact> 0.43235943E-03</totfact>
</mgrwt>
</event>
<event>
 6    1  0.1001928E-005  0.1877181E+04  0.7818608E-02  0.8666299E-01
          2   -1    0    0  501    0  0.00000000000E+00  0.00000000000E+00  0.95215488131E+03  0.95215488131E+03  0.00000000000E+00 0. -1.
         -2   -1    0    0    0  501 -0.00000000000E+00 -0.00000000000E+00 -0.92521965072E+03  0.92521965072E+03  0.00000000000E+00 0.  1.
         23    2    1    2    0    0  0.56291115439E+03 -0.37627614069E+03  0.66034748561E+03  0.95019397432E+03  0.91417095148E+02 0.  0.
         13    1    3    3    0    0  0.23584007404E+03 -0.12151059196E+03  0.30422043041E+03  0.40365261644E+03  0.00000000000E+00 0.  1.
        -13    1    3    3    0    0  0.32707108035E+03 -0.25476554873E+03  0.35612705520E+03  0.54654135788E+03  0.00000000000E+00 0. -1.
         22    1    1    2    0    0 -0.56291115439E+03  0.37627614069E+03 -0.63341225503E+03  0.92718055772E+03  0.00000000000E+00 0.  1.
<mgrwt>
<rscale>  0 0.18771813E+04</rscale>
<asrwt>0</asrwt>
<pdfrwt beam="1">  1        2 0.14648537E+00 0.18771813E+04</pdfrwt>
<pdfrwt beam="2">  1       -2 0.14234148E+00 0.18771813E+04</pdfrwt>
<totfact> 0.87323700E+00</totfact>
</mgrwt>
</event>
<event>
 6    1  0.1001928E-005  0.3575663E+04  0.7818608E-02  0.8096089E-01
          1   -1    0    0  501    0  0.00000000000E+00  0.00000000000E+00  0.38260027159E+04  0.38260027159E+04  0.00000000000E+00 0. -1.
         -1   -1    0    0    0  501 -0.00000000000E+00 -0.00000000000E+00 -0.83542585638E+03  0.83542585638E+03  0.00000000000E+00 0.  1.
         23    2    1    2    0    0 -0.67442031790E+03 -0.78009650012E+03 -0.40577162074E+03  0.11119812471E+04  0.91969402939E+02 0.  0.
         11    1    3    3    0    0 -0.74841363396E+02 -0.13150100297E+03 -0.44852044308E+02  0.15781460432E+03  0.00000000000E+00 0. -1.
        -11    1    3    3    0    0 -0.59957895451E+03 -0.64859549715E+03 -0.36091957643E+03  0.95416664282E+03  0.00000000000E+00 0.  1.
         22    1    1    2    0    0  0.67442031790E+03  0.78009650012E+03  0.33963484803E+04  0.35494473252E+04  0.00000000000E+00 0. -1.
<mgrwt>
<rscale>  0 0.35756631E+04</rscale>
<asrwt>0</asrwt>
<pdfrwt beam="1">  1        1 0.58861580E+00 0.35756631E+04</pdfrwt>
<pdfrwt beam="2">  1       -1 0.12852706E+00 0.35756631E+04</pdfrwt>
<totfact> 0.57216061E-02</totfact>
</mgrwt>
</event>
<event>
 6    1  0.1001928E-005  0.3052527E+04  0.7818608E-02  0.8228888E-01
          2   -1    0    0  501    0  0.00000000000E+00  0.00000000000E+00  0.26942314963E+04  0.26942314963E+04  0.00000000000E+00 0. -1.
         -2   -1    0    0    0  501 -0.00000000000E+00 -0.00000000000E+00 -0.86461788180E+03  0.86461788180E+03  0.00000000000E+00 0.  1.
         23    2    1    2    0    0 -0.90418538173E+03 -0.38591664529E+03 -0.44322023120E+03  0.10825100331E+04  0.94344775535E+02 0.  0.
         11    1    3    3    0    0 -0.50742518217E+03 -0.17223481960E+03 -0.26630973912E+03  0.59838618445E+03  0.00000000000E+00 0.  1.
        -11    1    3    3    0    0 -0.39676019956E+03 -0.21368182568E+03 -0.17691049207E+03  0.48412384861E+03  0.00000000000E+00 0. -1.
         22    1    1    2    0    0  0.90418538173E+03  0.38591664529E+03  0.22728338457E+04  0.24763393450E+04  0.00000000000E+00 0. -1.
<mgrwt>
<rscale>  0 0.30525273E+04</rscale>
<asrwt>0</asrwt>
<pdfrwt beam="1">  1        2 0.41449715E+00 0.30525273E+04</pdfrwt>
<pdfrwt beam="2">  1       -2 0.13301814E+00 0.30525273E+04</pdfrwt>
<totfact> 0.93431929E-01</totfact>
</mgrwt>
</event>
<event>
 6    1  0.1001928E-005  0.3772173E+04  0.7818608E-02  0.8052153E-01
          2   -1    0    0  501    0  0.00000000000E+00  0.00000000000E+00  0.19946859154E+04  0.19946859154E+04  0.00000000000E+00 0. -1.
         -2   -1    0    0    0  501 -0.00000000000E+00 -0.00000000000E+00 -0.17833993418E+04  0.17833993418E+04  0.00000000000E+00 0.  1.
         23    2    1    2    0    0 -0.79882434950E+03  0.99842195764E+03  0.14928910978E+04  0.19677049372E+04  0.90399907624E+02 0.  0.
         13    1    3    3    0    0 -0.38238419172E+03  0.44601166148E+03  0.74783980100E+03  0.95100391178E+03  0.00000000000E+00 0. -1.
        -13    1    3    3    0    0 -0.41644015778E+03  0.55241029616E+03  0.74505129676E+03  0.10167010254E+04  0.00000000000E+00 0.  1.
         22    1    1    2    0    0  0.79882434950E+03 -0.99842195764E+03 -0.12816045241E+04  0.18103803200E+04  0.00000000000E+00 0.  1.
<mgrwt>
<rscale>  0 0.37721726E+04</rscale>
<asrwt>0</asrwt>
<pdfrwt beam="1">  1        2 0.30687476E+00 0.37721726E+04</pdfrwt>
<pdfrwt beam="2">  1       -2 0.27436913E+00 0.37721726E+04</pdfrwt>
<totfact> 0.24641540E-01</totfact>
</mgrwt>
</event>
<event>
 6    1  0.1001928E-005  0.3159541E+04  0.7818608E-02  0.8199585E-01
          2   -1    0    0  501    0  0.00000000000E+00  0.00000000000E+00  0.26074405358E+04  0.26074405358E+04  0.00000000000E+00 0. -1.
         -2   -1    0    0    0  501 -0.00000000000E+00 -0.00000000000E+00 -0.95713608690E+03  0.95713608690E+03  0.00000000000E+00 0.  1.
         23    2    1    2    0    0 -0.14921473832E+04  0.10583575927E+03  0.25747204432E+03  0.15206375022E+04  0.91332023963E+02 0.  0.
         13    1    3    3    0    0 -0.95115424414E+03  0.11001254197E+03  0.15328001236E+03  0.96968650487E+03  0.00000000000E+00 0. -1.
        -13    1    3    3    0    0 -0.54099313902E+03 -0.41767826951E+01  0.10419203197E+03  0.55095099737E+03  0.00000000000E+00 0.  1.
         22    1    1    2    0    0  0.14921473832E+04 -0.10583575927E+03  0.13928324046E+04  0.20439391205E+04  0.00000000000E+00 0. -1.
<mgrwt>
<rscale>  0 0.31595414E+04</rscale>
<asrwt>0</asrwt>
<pdfrwt beam="1">  1        2 0.40114470E+00 0.31595414E+04</pdfrwt>
<pdfrwt beam="2">  1       -2 0.14725171E+00 0.31595414E+04</pdfrwt>
<totfact> 0.80065561E-01</totfact>
</mgrwt>
</event>
<event>
 6    1  0.1001928E-005  0.1118715E+04  0.7818608E-02  0.9187141E-01
          2   -1    0    0  501    0  0.00000000000E+00  0.00000000000E+00  0.35501008543E+03  0.35501008543E+03  0.00000000000E+00 0. -1.
         -2   -1    0    0    0  501 -0.00000000000E+00 -0.00000000000E+00 -0.88132926421E+03  0.88132926421E+03  0.00000000000E+00 0.  1.
         23    2    1    2    0    0 -0.12493121201E+03 -0.12488607201E+03 -0.84716203799E+03  0.87008195515E+03  0.90303661868E+02 0.  0.
         13    1    3    3    0    0 -0.13650291085E+03 -0.11539488620E+03 -0.71197834565E+03  0.73407233234E+03  0.00000000000E+00 0. -1.
        -13    1    3    3    0    0  0.11571698837E+02 -0.94911858108E+01 -0.13518369234E+03  0.13600962281E+03  0.00000000000E+00 0.  1.
         22    1    1    2    0    0  0.12493121201E+03  0.12488607201E+03  0.32084285921E+03  0.36625739449E+03  0.00000000000E+00 0. -1.
<mgrwt>
<rscale>  0 0.11187149E+04</rscale>
<asrwt>0</asrwt>
<pdfrwt beam="1">  1        2 0.54616937E-01 0.11187149E+04</pdfrwt>
<pdfrwt beam="2">  1       -2 0.13558911E+00 0.11187149E+04</pdfrwt>
<totfact> 0.35161042E+01</totfact>
</mgrwt>
</event>
<event>
 6    1  0.1001928E-005  0.2992527E+04  0.7818608E-02  0.8245868E-01
          1   -1    0    0  501    0  0.00000000000E+00  0.00000000000E+00  0.90752283821E+03  0.90752283821E+03  0.00000000000E+00 0. -1.
         -1   -1    0    0    0  501 -0.00000000000E+00 -0.00000000000E+00 -0.24669397912E+04  0.24669397912E+04  0.00000000000E+00 0.  1.
         23    2    1    2    0    0  0.27828172618E+03  0.76415929676E+03 -0.21947380924E+04  0.23424679103E+04  0.94342282907E+02 0.  0.
         13    1    3    3    0    0  0.22380821384E+03  0.50197721255E+03 -0.14122081805E+04  0.15153887896E+04  0.00000000000E+00 0. -1.
        -13    1    3    3    0    0  0.54473512342E+02  0.26218208422E+03 -0.78252991194E+03  0.82707912071E+03  0.00000000000E+00 0.  1.
         22    1    1    2    0    0 -0.27828172618E+03 -0.76415929676E+03  0.63532113949E+03  0.10319947191E+04  0.00000000000E+00 0. -1.
<mgrwt>
<rscale>  0 0.29925268E+04</rscale>
<asrwt>0</asrwt>
<pdfrwt beam="1">  1        1 0.13961890E+00 0.29925268E+04</pdfrwt>
<pdfrwt beam="2">  1       -1 0.37952920E+00 0.29925268E+04</pdfrwt>
<totfact> 0.15050491E-01</totfact>
</mgrwt>
</event>
<event>
 6    1  0.1001928E-005  0.3413202E+04  0.7818608E-02  0.8134674E-01
          1   -1    0    0  501    0  0.00000000000E+00  0.00000000000E+00  0.24702846413E+04  0.24702846413E+04  0.00000000000E+00 0. -1.
         -1   -1    0    0    0  501 -0.00000000000E+00 -0.00000000000E+00 -0.11790084735E+04  0.11790084735E+04  0.00000000000E+00 0.  1.
         23    2    1    2    0    0 -0.21765412269E+03 -0.96905399316E+03 -0.83616181356E+03  0.13014363638E+04  0.90172455649E+02 0.  0.
         11    1    3    3    0    0 -0.80019836339E+02 -0.27508098129E+03 -0.29017989810E+03  0.40777088388E+03  0.00000000000E+00 0. -1.
        -11    1    3    3    0    0 -0.13763428635E+03 -0.69397301186E+03 -0.54598191546E+03  0.89366547991E+03  0.00000000000E+00 0.  1.
         22    1    1    2    0    0  0.21765412269E+03  0.96905399316E+03  0.21274379813E+04  0.23478567510E+04  0.00000000000E+00 0. -1.
<mgrwt>
<rscale>  0 0.34132017E+04</rscale>
<asrwt>0</asrwt>
<pdfrwt beam="1">  1        1 0.38004379E+00 0.34132017E+04</pdfrwt>
<pdfrwt beam="2">  1       -1 0.18138592E+00 0.34132017E+04</pdfrwt>
<totfact> 0.23740591E-01</totfact>
</mgrwt>
</event>
<event>
 6    1  0.1001928E-005  0.3419299E+04  0.7818608E-02  0.8133186E-01
          1   -1    0    0  501    0  0.00000000000E+00  0.00000000000E+00  0.22618086956E+04  0.22618086956E+04  0.00000000000E+00 0. -1.
         -1   -1    0    0    0  501 -0.00000000000E+00 -0.00000000000E+00 -0.12922852234E+04  0.12922852234E+04  0.00000000000E+00 0.  1.
         23    2    1    2    0    0 -0.13168786373E+04 -0.10472002321E+04  0.17798727252E+03  0.16947049800E+04  0.97712990493E+02 0.  0.
         11    1    3    3    0    0 -0.10712943272E+04 -0.88246319422E+03  0.11797423597E+03  0.13929575532E+04  0.00000000000E+00 0.  1.
        -11    1    3    3    0    0 -0.24558431007E+03 -0.16473703783E+03  0.60013036553E+02  0.30174742673E+03  0.00000000000E+00 0. -1.
         22    1    1    2    0    0  0.13168786373E+04  0.10472002321E+04  0.79153619971E+03  0.18593889391E+04  0.00000000000E+00 0. -1.
<mgrwt>
<rscale>  0 0.34192993E+04</rscale>
<asrwt>0</asrwt>
<pdfrwt beam="1">  1        1 0.34797057E+00 0.34192993E+04</pdfrwt>
<pdfrwt beam="2">  1       -1 0.19881311E+00 0.34192993E+04</pdfrwt>
<totfact> 0.24901132E-01</totfact>
</mgrwt>
</event>
<event>
 6    1  0.1001928E-005  0.2621952E+04  0.7818608E-02  0.8360783E-01
          1   -1    0    0  501    0  0.00000000000E+00  0.00000000000E+00  0.10034096547E+04  0.10034096547E+04  0.00000000000E+00 0. -1.
         -1   -1    0    0    0  501 -0.00000000000E+00 -0.00000000000E+00 -0.17128180774E+04  0.17128180774E+04  0.00000000000E+00 0.  1.
         23    2    1    2    0    0  0.51465692306E+03  0.37668401132E+03  0.82955986882E+03  0.10503387817E+04  0.90991139399E+02 0.  0.
         11    1    3    3    0    0  0.70824689266E+02  0.92230947108E+02  0.17056510600E+03  0.20643434694E+03  0.00000000000E+00 0. -1.
        -11    1    3    3    0    0  0.44383223380E+03  0.28445306421E+03  0.65899476282E+03  0.84390443471E+03  0.00000000000E+00 0.  1.
         22    1    1    2    0    0 -0.51465692306E+03 -0.37668401132E+03 -0.15389682915E+04  0.16658889504E+04  0.00000000000E+00 0.  1.
<mgrwt>
<rscale>  0 0.26219521E+04</rscale>
<asrwt>0</asrwt>
<pdfrwt beam="1">  1        1 0.15437072E+00 0.26219521E+04</pdfrwt>
<pdfrwt beam="2">  1       -1 0.26351047E+00 0.26219521E+04</pdfrwt>
<totfact> 0.75258540E-01</totfact>
</mgrwt>
</event>
<event>
 6    1  0.1001928E-005  0.3210198E+04  0.7818608E-02  0.8186129E-01
          2   -1    0    0  501    0  0.00000000000E+00  0.00000000000E+00  0.22417038936E+04  0.22417038936E+04  0.00000000000E+00 0. -1.
         -2   -1    0    0    0  501 -0.00000000000E+00 -0.00000000000E+00 -0.11492787159E+04  0.11492787159E+04  0.00000000000E+00 0.  1.
         23    2    1    2    0    0 -0.11422879741E+04 -0.48024451106E+03 -0.52882567887E+03  0.13504162796E+04  0.92254666020E+02 0.  0.
         11    1    3    3    0    0 -0.58052461623E+03 -0.19421986396E+03 -0.26485691486E+03  0.66699278179E+03  0.00000000000E+00 0.  1.
        -11    1    3    3    0    0 -0.56176335791E+03 -0.28602464710E+03 -0.26396876401E+03  0.68342349785E+03  0.00000000000E+00 0. -1.
         22    1    1    2    0    0  0.11422879741E+04  0.48024451106E+03  0.16212508566E+04  0.20405663298E+04  0.00000000000E+00 0. -1.
<mgrwt>
<rscale>  0 0.32101979E+04</rscale>
<asrwt>0</asrwt>
<pdfrwt beam="1">  1        2 0.34487752E+00 0.32101979E+04</pdfrwt>
<pdfrwt beam="2">  1       -2 0.17681211E+00 0.32101979E+04</pdfrwt>
<totfact> 0.78532043E-01</totfact>
</mgrwt>
</event>
<event>
 6    1  0.1001928E-005  0.2630968E+04  0.7818608E-02  0.8357758E-01
         -2   -1    0    0    0  501 -0.00000000000E+00  0.00000000000E+00  0.62126979030E+03  0.62126979030E+03  0.00000000000E+00 0.  1.
          2   -1    0    0  501    0  0.00000000000E+00 -0.00000000000E+00 -0.27854214014E+04  0.27854214014E+04  0.00000000000E+00 0. -1.
         23    2    1    2    0    0 -0.27737528299E+03  0.12594602526E+04 -0.14088954000E+04  0.19121714963E+04  0.90754657692E+02 0.  0.
         13    1    3    3    0    0 -0.43490934244E+02  0.87040894741E+02 -0.10800326895E+03  0.14536947693E+03  0.00000000000E+00 0. -1.
        -13    1    3    3    0    0 -0.23388434875E+03  0.11724193578E+04 -0.13008921310E+04  0.17668020194E+04  0.00000000000E+00 0.  1.
         22    1    1    2    0    0  0.27737528299E+03 -0.12594602526E+04 -0.75525621111E+03  0.14945196954E+04  0.00000000000E+00 0.  1.
<mgrwt>
<rscale>  0 0.26309680E+04</rscale>
<asrwt>0</asrwt>
<pdfrwt beam="1">  1        2 0.42852636E+00 0.26309680E+04</pdfrwt>
<pdfrwt beam="2">  1       -2 0.95579969E-01 0.26309680E+04</pdfrwt>
<totfact> 0.19126164E+00</totfact>
</mgrwt>
</event>
<event>
 6    1  0.1001928E-005  0.1496858E+04  0.7818608E-02  0.8886545E-01
         -2   -1    0    0    0  501 -0.00000000000E+00  0.00000000000E+00  0.26073127601E+03  0.26073127601E+03  0.00000000000E+00 0.  1.
          2   -1    0    0  501    0  0.00000000000E+00 -0.00000000000E+00 -0.21483642078E+04  0.21483642078E+04  0.00000000000E+00 0. -1.
         23    2    1    2    0    0  0.44250420460E+03  0.47663908836E+03 -0.36057528930E+03  0.74930639025E+03  0.91927882407E+02 0.  0.
         13    1    3    3    0    0  0.23914159021E+03  0.31939538568E+03 -0.20138181141E+03  0.44694154710E+03  0.00000000000E+00 0. -1.
        -13    1    3    3    0    0  0.20336261439E+03  0.15724370269E+03 -0.15919347789E+03  0.30236484314E+03  0.00000000000E+00 0.  1.
         22    1    1    2    0    0 -0.44250420460E+03 -0.47663908836E+03 -0.15270576424E+04  0.16597890935E+04  0.00000000000E+00 0. -1.
<mgrwt>
<rscale>  0 0.14968577E+04</rscale>
<asrwt>0</asrwt>
<pdfrwt beam="1">  1        2 0.33051756E+00 0.14968577E+04</pdfrwt>
<pdfrwt beam="2">  1       -2 0.40112505E-01 0.14968577E+04</pdfrwt>
<totfact> 0.31408317E+01</totfact>
</mgrwt>
</event>
<event>
 6    1  0.1001928E-005  0.1753387E+04  0.7818608E-02  0.8731488E-01
         -1   -1    0    0    0  501 -0.00000000000E+00  0.00000000000E+00  0.42989776894E+03  0.42989776894E+03  0.00000000000E+00 0.  1.
          1   -1    0    0  501    0  0.00000000000E+00 -0.00000000000E+00 -0.17878472927E+04  0.17878472927E+04  0.00000000000E+00 0. -1.
         23    2    1    2    0    0 -0.61953865507E+02  0.24754658561E+03 -0.17385897319E+04  0.17594825151E+04  0.89257333351E+02 0.  0.
         11    1    3    3    0    0 -0.28682213189E+02  0.23068574152E+03 -0.14556675829E+04  0.14741121710E+04  0.00000000000E+00 0. -1.
        -11    1    3    3    0    0 -0.33271652319E+02  0.16860844091E+02 -0.28292214900E+03  0.28537034412E+03  0.00000000000E+00 0.  1.
         22    1    1    2    0    0  0.61953865507E+02 -0.24754658561E+03  0.38064020815E+03  0.45826254653E+03  0.00000000000E+00 0.  1.
<mgrwt>
<rscale>  0 0.17533871E+04</rscale>
<asrwt>0</asrwt>
<pdfrwt beam="1">  1        1 0.27505343E+00 0.17533871E+04</pdfrwt>
<pdfrwt beam="2">  1       -1 0.66138118E-01 0.17533871E+04</pdfrwt>
<totfact> 0.91135906E+00</totfact>
</mgrwt>
</event>
<event>
 6    1  0.1001928E-005  0.1594467E+04  0.7818608E-02  0.8823954E-01
         -2   -1    0    0    0  501 -0.00000000000E+00  0.00000000000E+00  0.78854504872E+03  0.78854504872E+03  0.00000000000E+00 0.  1.
          2   -1    0    0  501    0  0.00000000000E+00 -0.00000000000E+00 -0.80601798450E+03  0.80601798450E+03  0.00000000000E+00 0. -1.
         23    2    1    2    0    0 -0.60338627817E+02  0.18479969234E+03 -0.77923195707E+03  0.80838971721E+03  0.92194444870E+02 0.  0.
         11    1    3    3    0    0 -0.59789234044E+02  0.91343002210E+02 -0.28087873023E+03  0.30134889689E+03  0.00000000000E+00 0. -1.
        -11    1    3    3    0    0 -0.54939377269E+00  0.93456690130E+02 -0.49835322684E+03  0.50704082032E+03  0.00000000000E+00 0.  1.
         22    1    1    2    0    0  0.60338627817E+02 -0.18479969234E+03  0.76175902129E+03  0.78617331602E+03  0.00000000000E+00 0.  1.
<mgrwt>
<rscale>  0 0.15944673E+04</rscale>
<asrwt>0</asrwt>
<pdfrwt beam="1">  1        2 0.12400277E+00 0.15944673E+04</pdfrwt>
<pdfrwt beam="2">  1       -2 0.12131462E+00 0.15944673E+04</pdfrwt>
<totfact> 0.16906046E+01</totfact>
</mgrwt>
</event>
<event>
 6    1  0.1001928E-005  0.1013176E+04  0.7818608E-02  0.9294211E-01
          4   -1    0    0  501    0  0.00000000000E+00  0.00000000000E+00  0.61908203978E+03  0.61908203978E+03  0.00000000000E+00 0. -1.
         -4   -1    0    0    0  501 -0.00000000000E+00 -0.00000000000E+00 -0.41453532700E+03  0.41453532700E+03  0.00000000000E+00 0.  1.
         23    2    1    2    0    0 -0.12731870884E+03  0.43621191054E+02  0.59713378876E+03  0.61860233794E+03  0.89371297967E+02 0.  0.
         13    1    3    3    0    0 -0.60111591630E+02  0.50622756935E+02  0.44845863073E+03  0.45529244497E+03  0.00000000000E+00 0.  1.
        -13    1    3    3    0    0 -0.67207117210E+02 -0.70015658811E+01  0.14867515802E+03  0.16330989297E+03  0.00000000000E+00 0. -1.
         22    1    1    2    0    0  0.12731870884E+03 -0.43621191054E+02 -0.39258707598E+03  0.41501502883E+03  0.00000000000E+00 0.  1.
<mgrwt>
<rscale>  0 0.10131759E+04</rscale>
<asrwt>0</asrwt>
<pdfrwt beam="1">  1        4 0.95243391E-01 0.10131759E+04</pdfrwt>
<pdfrwt beam="2">  1       -4 0.63774666E-01 0.10131759E+04</pdfrwt>
<totfact> 0.42225294E+00</totfact>
</mgrwt>
</event>
<event>
 6    1  0.1001928E-005  0.3322467E+04  0.7818608E-02  0.8157202E-01
         -2   -1    0    0    0  501 -0.00000000000E+00  0.00000000000E+00  0.11977353350E+04  0.11977353350E+04  0.00000000000E+00 0.  1.
          2   -1    0    0  501    0  0.00000000000E+00 -0.00000000000E+00 -0.23040952445E+04  0.23040952445E+04  0.00000000000E+00 0. -1.
         23    2    1    2    0    0  0.58921020014E+02 -0.16156460934E+04 -0.95048945233E+03  0.18776139729E+04  0.90664471810E+02 0.  0.
         13    1    3    3    0    0  0.31436590295E+02 -0.11521797131E+04 -0.63099879822E+03  0.13140265727E+04  0.00000000000E+00 0. -1.
        -13    1    3    3    0    0  0.27484429719E+02 -0.46346638033E+03 -0.31949065411E+03  0.56358740018E+03  0.00000000000E+00 0.  1.
         22    1    1    2    0    0 -0.58921020014E+02  0.16156460934E+04 -0.15587045723E+03  0.16242166066E+04  0.00000000000E+00 0. -1.
<mgrwt>
<rscale>  0 0.33224667E+04</rscale>
<asrwt>0</asrwt>
<pdfrwt beam="1">  1        2 0.35447619E+00 0.33224667E+04</pdfrwt>
<pdfrwt beam="2">  1       -2 0.18426698E+00 0.33224667E+04</pdfrwt>
<totfact> 0.63716542E-01</totfact>
</mgrwt>
</event>
<event>
 6    1  0.1001928E-005  0.2720582E+04  0.7818608E-02  0.8328358E-01
         -4   -1    0    0    0  501 -0.00000000000E+00  0.00000000000E+00  0.12176282946E+04  0.12176282946E+04  0.00000000000E+00 0.  1.
          4   -1    0    0  501    0  0.00000000000E+00 -0.00000000000E+00 -0.15196682953E+04  0.15196682953E+04  0.00000000000E+00 0. -1.
         23    2    1    2    0    0 -0.40594139457E+03 -0.10603399781E+04  0.59955359513E+03  0.12874758090E+04  0.94974525024E+02 0.  0.
         13    1    3    3    0    0 -0.73918311042E+02 -0.31045263899E+03  0.15959798890E+03  0.35681406338E+03  0.00000000000E+00 0.  1.
        -13    1    3    3    0    0 -0.33202308352E+03 -0.74988733906E+03  0.43995560623E+03  0.93066174561E+03  0.00000000000E+00 0. -1.
         22    1    1    2    0    0  0.40594139457E+03  0.10603399781E+04 -0.90159359578E+03  0.14498207809E+04  0.00000000000E+00 0.  1.
<mgrwt>
<rscale>  0 0.27205816E+04</rscale>
<asrwt>0</asrwt>
<pdfrwt beam="1">  1        4 0.23379512E+00 0.27205816E+04</pdfrwt>
<pdfrwt beam="2">  1       -4 0.18732743E+00 0.27205816E+04</pdfrwt>
<totfact> 0.22254327E-02</totfact>
</mgrwt>
</event>
<event>
 6    1  0.1001928E-005  0.2806557E+04  0.7818608E-02  0.8301235E-01
          2   -1    0    0  501    0  0.00000000000E+00  0.00000000000E+00  0.21362269916E+04  0.21362269916E+04  0.00000000000E+00 0. -1.
         -2   -1    0    0    0  501 -0.00000000000E+00 -0.00000000000E+00 -0.92180797186E+03  0.92180797186E+03  0.00000000000E+00 0.  1.
         23    2    1    2    0    0 -0.12876861578E+04 -0.11170906906E+03  0.11991102248E+04  0.17654217513E+04  0.90741785696E+02 0.  0.
         11    1    3    3    0    0 -0.10066669405E+04 -0.12370740965E+03  0.95110326802E+03  0.13904241363E+04  0.00000000000E+00 0.  1.
        -11    1    3    3    0    0 -0.28101921732E+03  0.11998340585E+02  0.24800695676E+03  0.37499761503E+03  0.00000000000E+00 0. -1.
         22    1    1    2    0    0  0.12876861578E+04  0.11170906906E+03  0.15308794959E+02  0.12926132122E+04  0.00000000000E+00 0.  1.
<mgrwt>
<rscale>  0 0.28065574E+04</rscale>
<asrwt>0</asrwt>
<pdfrwt beam="1">  1        2 0.32865031E+00 0.28065574E+04</pdfrwt>
<pdfrwt beam="2">  1       -2 0.14181661E+00 0.28065574E+04</pdfrwt>
<totfact> 0.16937540E+00</totfact>
</mgrwt>
</event>
<event>
 6    1  0.1001928E-005  0.3672432E+04  0.7818608E-02  0.8074099E-01
          2   -1    0    0  501    0  0.00000000000E+00  0.00000000000E+00  0.13410263630E+04  0.13410263630E+04  0.00000000000E+00 0. -1.
         -2   -1    0    0    0  501 -0.00000000000E+00 -0.00000000000E+00 -0.25142595274E+04  0.25142595274E+04  0.00000000000E+00 0.  1.
         23    2    1    2    0    0  0.73241662346E+03 -0.13579946707E+04 -0.16296617654E+04  0.22462766599E+04  0.96838664071E+02 0.  0.
         11    1    3    3    0    0  0.30009002715E+03 -0.48619248770E+03 -0.65091311669E+03  0.86609759552E+03  0.00000000000E+00 0.  1.
        -11    1    3    3    0    0  0.43232659631E+03 -0.87180218305E+03 -0.97874864875E+03  0.13801790644E+04  0.00000000000E+00 0. -1.
         22    1    1    2    0    0 -0.73241662346E+03  0.13579946707E+04  0.45642860102E+03  0.16090092305E+04  0.00000000000E+00 0.  1.
<mgrwt>
<rscale>  0 0.36724315E+04</rscale>
<asrwt>0</asrwt>
<pdfrwt beam="1">  1        2 0.20631175E+00 0.36724315E+04</pdfrwt>
<pdfrwt beam="2">  1       -2 0.38680915E+00 0.36724315E+04</pdfrwt>
<totfact> 0.11461351E-01</totfact>
</mgrwt>
</event>
<event>
 6    1  0.1001928E-005  0.1005305E+04  0.7818608E-02  0.9302745E-01
         -2   -1    0    0    0  501 -0.00000000000E+00  0.00000000000E+00  0.18903984277E+03  0.18903984277E+03  0.00000000000E+00 0.  1.
          2   -1    0    0  501    0  0.00000000000E+00 -0.00000000000E+00 -0.13365419416E+04  0.13365419416E+04  0.00000000000E+00 0. -1.
         23    2    1    2    0    0 -0.30834360694E+03 -0.18339868220E+03 -0.11037242790E+04  0.11641577203E+04  0.91351283439E+02 0.  0.
         11    1    3    3    0    0 -0.23609226196E+02 -0.31218480884E+02 -0.21669348732E+03  0.22020003760E+03  0.00000000000E+00 0. -1.
        -11    1    3    3    0    0 -0.28473438075E+03 -0.15218020131E+03 -0.88703079171E+03  0.94395768268E+03  0.00000000000E+00 0.  1.
         22    1    1    2    0    0  0.30834360694E+03  0.18339868220E+03 -0.43777819752E+02  0.36142406405E+03  0.00000000000E+00 0.  1.
<mgrwt>
<rscale>  0 0.10053053E+04</rscale>
<asrwt>0</asrwt>
<pdfrwt beam="1">  1        2 0.20562184E+00 0.10053053E+04</pdfrwt>
<pdfrwt beam="2">  1       -2 0.29083052E-01 0.10053053E+04</pdfrwt>
<totfact> 0.17048759E+02</totfact>
</mgrwt>
</event>
<event>
 6    1  0.1001928E-005  0.1296515E+04  0.7818608E-02  0.9032333E-01
         -2   -1    0    0    0  501 -0.00000000000E+00  0.00000000000E+00  0.14600543367E+03  0.14600543367E+03  0.00000000000E+00 0.  1.
          2   -1    0    0  501    0  0.00000000000E+00 -0.00000000000E+00 -0.28782345747E+04  0.28782345747E+04  0.00000000000E+00 0. -1.
         23    2    1    2    0    0  0.40621486227E+03  0.22451067578E+03 -0.32742280866E+03  0.57505462255E+03  0.89814060251E+02 0.  0.
         13    1    3    3    0    0  0.20617975383E+03  0.14109087382E+03 -0.22122555969E+03  0.33370267278E+03  0.00000000000E+00 0.  1.
        -13    1    3    3    0    0  0.20003510843E+03  0.83419801967E+02 -0.10619724897E+03  0.24135194977E+03  0.00000000000E+00 0. -1.
         22    1    1    2    0    0 -0.40621486227E+03 -0.22451067578E+03 -0.24048063324E+04  0.24491853858E+04  0.00000000000E+00 0. -1.
<mgrwt>
<rscale>  0 0.12965152E+04</rscale>
<asrwt>0</asrwt>
<pdfrwt beam="1">  1        2 0.44280530E+00 0.12965152E+04</pdfrwt>
<pdfrwt beam="2">  1       -2 0.22462375E-01 0.12965152E+04</pdfrwt>
<totfact> 0.35681988E+01</totfact>
</mgrwt>
</event>
<event>
 6    1  0.1103991E-005  0.2164436E+04  0.7818608E-02  0.8533378E-01
          2   -1    0    0  501    0  0.00000000000E+00  0.00000000000E+00  0.88444229522E+03  0.88444229522E+03  0.00000000000E+00 0. -1.
         -2   -1    0    0    0  501 -0.00000000000E+00 -0.00000000000E+00 -0.13242191051E+04  0.13242191051E+04  0.00000000000E+00 0.  1.
         23    2    1    2    0    0  0.44429547641E+03 -0.36375070380E+03  0.71400280380E+03  0.91989437646E+03  0.81808405001E+02 0.  0.
         11    1    3    3    0    0  0.11849794028E+03 -0.14320514350E+03  0.25055299397E+03  0.31197159769E+03  0.00000000000E+00 0. -1.
        -11    1    3    3    0    0  0.32579753613E+03 -0.22054556030E+03  0.46344980983E+03  0.60792277877E+03  0.00000000000E+00 0.  1.
         22    1    1    2    0    0 -0.44429547641E+03  0.36375070380E+03 -0.11537796137E+04  0.12887670239E+04  0.00000000000E+00 0.  1.
<mgrwt>
<rscale>  0 0.21644356E+04</rscale>
<asrwt>0</asrwt>
<pdfrwt beam="1">  1        2 0.13606804E+00 0.21644356E+04</pdfrwt>
<pdfrwt beam="2">  1       -2 0.20372602E+00 0.21644356E+04</pdfrwt>
<totfact> 0.34619150E+00</totfact>
</mgrwt>
</event>
<event>
 6    1  0.1001928E-005  0.3725793E+04  0.7818608E-02  0.8062270E-01
          1   -1    0    0  501    0  0.00000000000E+00  0.00000000000E+00  0.38489430232E+04  0.38489430232E+04  0.00000000000E+00 0. -1.
         -1   -1    0    0    0  501 -0.00000000000E+00 -0.00000000000E+00 -0.90164565115E+03  0.90164565115E+03  0.00000000000E+00 0.  1.
         23    2    1    2    0    0 -0.16815137248E+04  0.79377424250E+03  0.13489518204E+04  0.22985946986E+04  0.79376445978E+02 0.  0.
         11    1    3    3    0    0 -0.13759540863E+04  0.68003882964E+03  0.10974174568E+04  0.18868035223E+04  0.00000000000E+00 0.  1.
        -11    1    3    3    0    0 -0.30555963846E+03  0.11373541286E+03  0.25153436366E+03  0.41179117632E+03  0.00000000000E+00 0. -1.
         22    1    1    2    0    0  0.16815137248E+04 -0.79377424250E+03  0.15983455516E+04  0.24519939757E+04  0.00000000000E+00 0. -1.
<mgrwt>
<rscale>  0 0.37257927E+04</rscale>
<asrwt>0</asrwt>
<pdfrwt beam="1">  1        1 0.59214507E+00 0.37257927E+04</pdfrwt>
<pdfrwt beam="2">  1       -1 0.13871472E+00 0.37257927E+04</pdfrwt>
<totfact> 0.44441658E-02</totfact>
</mgrwt>
</event>
<event>
 6    1  0.1001928E-005  0.1730263E+04  0.7818608E-02  0.8744290E-01
         -1   -1    0    0    0  501 -0.00000000000E+00  0.00000000000E+00  0.62478770166E+03  0.62478770166E+03  0.00000000000E+00 0.  1.
          1   -1    0    0  501    0  0.00000000000E+00 -0.00000000000E+00 -0.11979306026E+04  0.11979306026E+04  0.00000000000E+00 0. -1.
         23    2    1    2    0    0  0.27154721364E+03 -0.17916176107E+03 -0.11290899519E+04  0.11785801596E+04  0.91489055484E+02 0.  0.
         13    1    3    3    0    0  0.61165944015E+02 -0.90832179409E+02 -0.38838295263E+03  0.40352580514E+03  0.00000000000E+00 0. -1.
        -13    1    3    3    0    0  0.21038126962E+03 -0.88329581660E+02 -0.74070699929E+03  0.77505435448E+03  0.00000000000E+00 0.  1.
         22    1    1    2    0    0 -0.27154721364E+03  0.17916176107E+03  0.55594705099E+03  0.64413814463E+03  0.00000000000E+00 0.  1.
<mgrwt>
<rscale>  0 0.17302628E+04</rscale>
<asrwt>0</asrwt>
<pdfrwt beam="1">  1        1 0.18429702E+00 0.17302628E+04</pdfrwt>
<pdfrwt beam="2">  1       -1 0.96121185E-01 0.17302628E+04</pdfrwt>
<totfact> 0.10615246E+01</totfact>
</mgrwt>
</event>
<event>
 6    1  0.1001928E-005  0.5260570E+04  0.7818608E-02  0.7789522E-01
         -1   -1    0    0    0  501 -0.00000000000E+00  0.00000000000E+00  0.23235613247E+04  0.23235613247E+04  0.00000000000E+00 0.  1.
          1   -1    0    0  501    0  0.00000000000E+00 -0.00000000000E+00 -0.29774984522E+04  0.29774984522E+04  0.00000000000E+00 0. -1.
         23    2    1    2    0    0  0.44467196949E+03  0.25701298826E+04 -0.66250182784E+03  0.26927319356E+04  0.92713706254E+02 0.  0.
         13    1    3    3    0    0  0.20201241466E+03  0.10105100135E+04 -0.22401889906E+03  0.10545728852E+04  0.00000000000E+00 0. -1.
        -13    1    3    3    0    0  0.24265955483E+03  0.15596198691E+04 -0.43848292877E+03  0.16381590504E+04  0.00000000000E+00 0.  1.
         22    1    1    2    0    0 -0.44467196949E+03 -0.25701298826E+04  0.85647003503E+01  0.26083278414E+04  0.00000000000E+00 0. -1.
<mgrwt>
<rscale>  0 0.52605704E+04</rscale>
<asrwt>0</asrwt>
<pdfrwt beam="1">  1        1 0.45807668E+00 0.52605704E+04</pdfrwt>
<pdfrwt beam="2">  1       -1 0.35747097E+00 0.52605704E+04</pdfrwt>
<totfact> 0.60852209E-03</totfact>
</mgrwt>
</event>
<event>
 6    1  0.1001928E-005  0.2103623E+04  0.7818608E-02  0.8559649E-01
         -1   -1    0    0    0  501 -0.00000000000E+00  0.00000000000E+00  0.60292680084E+03  0.60292680084E+03  0.00000000000E+00 0.  1.
          1   -1    0    0  501    0  0.00000000000E+00 -0.00000000000E+00 -0.18348943190E+04  0.18348943190E+04  0.00000000000E+00 0. -1.
         23    2    1    2    0    0 -0.55488519171E+02  0.40560146371E+03  0.50297920298E+03  0.65522984635E+03  0.93522990663E+02 0.  0.
         11    1    3    3    0    0 -0.74106316878E+02  0.25160765866E+03  0.34992384358E+03  0.43731551128E+03  0.00000000000E+00 0. -1.
        -11    1    3    3    0    0  0.18617797707E+02  0.15399380506E+03  0.15305535940E+03  0.21791433507E+03  0.00000000000E+00 0.  1.
         22    1    1    2    0    0  0.55488519171E+02 -0.40560146371E+03 -0.17349467211E+04  0.17825912735E+04  0.00000000000E+00 0. -1.
<mgrwt>
<rscale>  0 0.21036226E+04</rscale>
<asrwt>0</asrwt>
<pdfrwt beam="1">  1        1 0.28229143E+00 0.21036226E+04</pdfrwt>
<pdfrwt beam="2">  1       -1 0.92757970E-01 0.21036226E+04</pdfrwt>
<totfact> 0.40056952E+00</totfact>
</mgrwt>
</event>
<event>
 6    1  0.1001928E-005  0.1609462E+04  0.7818608E-02  0.8814756E-01
          2   -1    0    0  501    0  0.00000000000E+00  0.00000000000E+00  0.73695303273E+03  0.73695303273E+03  0.00000000000E+00 0. -1.
         -2   -1    0    0    0  501 -0.00000000000E+00 -0.00000000000E+00 -0.87874230219E+03  0.87874230219E+03  0.00000000000E+00 0.  1.
         23    2    1    2    0    0 -0.10356271126E+03  0.44211171614E+03 -0.73496819365E+03  0.86866840045E+03  0.90656161134E+02 0.  0.
         13    1    3    3    0    0 -0.30791145606E+02  0.12866406045E+03 -0.29759102255E+03  0.32567307503E+03  0.00000000000E+00 0.  1.
        -13    1    3    3    0    0 -0.72771565655E+02  0.31344765569E+03 -0.43737717110E+03  0.54299532542E+03  0.00000000000E+00 0. -1.
         22    1    1    2    0    0  0.10356271126E+03 -0.44211171614E+03  0.59317892419E+03  0.74702693447E+03  0.00000000000E+00 0. -1.
<mgrwt>
<rscale>  0 0.16094618E+04</rscale>
<asrwt>0</asrwt>
<pdfrwt beam="1">  1        2 0.11337739E+00 0.16094618E+04</pdfrwt>
<pdfrwt beam="2">  1       -2 0.13519112E+00 0.16094618E+04</pdfrwt>
<totfact> 0.14445263E+01</totfact>
</mgrwt>
</event>
<event>
 6    1  0.1001928E-005  0.2197714E+04  0.7818608E-02  0.8519380E-01
          2   -1    0    0  501    0  0.00000000000E+00  0.00000000000E+00  0.73255856105E+03  0.73255856105E+03  0.00000000000E+00 0. -1.
         -2   -1    0    0    0  501 -0.00000000000E+00 -0.00000000000E+00 -0.16483143290E+04  0.16483143290E+04  0.00000000000E+00 0.  1.
         23    2    1    2    0    0  0.59392547193E+03  0.83042818522E+03 -0.89338288383E+03  0.13596682176E+04  0.90588342672E+02 0.  0.
         11    1    3    3    0    0  0.33656955102E+03  0.39276454749E+03 -0.44918758177E+03  0.68506389195E+03  0.00000000000E+00 0. -1.
        -11    1    3    3    0    0  0.25735592092E+03  0.43766363773E+03 -0.44419530207E+03  0.67460432566E+03  0.00000000000E+00 0.  1.
         22    1    1    2    0    0 -0.59392547193E+03 -0.83042818522E+03 -0.22372884087E+02  0.10212046724E+04  0.00000000000E+00 0.  1.
<mgrwt>
<rscale>  0 0.21977141E+04</rscale>
<asrwt>0</asrwt>
<pdfrwt beam="1">  1        2 0.11270132E+00 0.21977141E+04</pdfrwt>
<pdfrwt beam="2">  1       -2 0.25358682E+00 0.21977141E+04</pdfrwt>
<totfact> 0.21583858E+00</totfact>
</mgrwt>
</event>
<event>
 6    1  0.1001928E-005  0.2908849E+04  0.7818608E-02  0.8270250E-01
         -2   -1    0    0    0  501 -0.00000000000E+00  0.00000000000E+00  0.67417523933E+03  0.67417523933E+03  0.00000000000E+00 0.  1.
          2   -1    0    0  501    0  0.00000000000E+00 -0.00000000000E+00 -0.31376861249E+04  0.31376861249E+04  0.00000000000E+00 0. -1.
         23    2    1    2    0    0 -0.11205968144E+03 -0.14267047311E+04 -0.90384297614E+03  0.16951167529E+04  0.91896238127E+02 0.  0.
         13    1    3    3    0    0  0.42293516732E+01 -0.50550761422E+03 -0.31519420038E+03  0.59573754238E+03  0.00000000000E+00 0.  1.
        -13    1    3    3    0    0 -0.11628903312E+03 -0.92119711686E+03 -0.58864877576E+03  0.10993792105E+04  0.00000000000E+00 0. -1.
         22    1    1    2    0    0  0.11205968144E+03  0.14267047311E+04 -0.15596679094E+04  0.21167446113E+04  0.00000000000E+00 0. -1.
<mgrwt>
<rscale>  0 0.29088488E+04</rscale>
<asrwt>0</asrwt>
<pdfrwt beam="1">  1        2 0.48272095E+00 0.29088488E+04</pdfrwt>
<pdfrwt beam="2">  1       -2 0.10371927E+00 0.29088488E+04</pdfrwt>
<totfact> 0.92875323E-01</totfact>
</mgrwt>
</event>
<event>
 6    1  0.1001928E-005  0.1886781E+04  0.7818608E-02  0.8661464E-01
         -1   -1    0    0    0  501 -0.00000000000E+00  0.00000000000E+00  0.37527857409E+03  0.37527857409E+03  0.00000000000E+00 0.  1.
          1   -1    0    0  501    0  0.00000000000E+00 -0.00000000000E+00 -0.23715339317E+04  0.23715339317E+04  0.00000000000E+00 0. -1.
         23    2    1    2    0    0 -0.14619090035E+03 -0.72604709617E+03 -0.15502764917E+03  0.76221288886E+03  0.91753750468E+02 0.  0.
         11    1    3    3    0    0 -0.72952806331E+02 -0.42137279983E+03 -0.13404653838E+03  0.44815803333E+03  0.00000000000E+00 0. -1.
        -11    1    3    3    0    0 -0.73238094021E+02 -0.30467429634E+03 -0.20981110784E+02  0.31405485552E+03  0.00000000000E+00 0.  1.
         22    1    1    2    0    0  0.14619090035E+03  0.72604709617E+03 -0.18412277084E+04  0.19845996169E+04  0.00000000000E+00 0. -1.
<mgrwt>
<rscale>  0 0.18867813E+04</rscale>
<asrwt>0</asrwt>
<pdfrwt beam="1">  1        1 0.36485137E+00 0.18867813E+04</pdfrwt>
<pdfrwt beam="2">  1       -1 0.57735166E-01 0.18867813E+04</pdfrwt>
<totfact> 0.47332749E+00</totfact>
</mgrwt>
</event>
<event>
 6    1  0.1001928E-005  0.2219888E+04  0.7818608E-02  0.8510196E-01
         -1   -1    0    0    0  501 -0.00000000000E+00  0.00000000000E+00  0.82882394647E+03  0.82882394647E+03  0.00000000000E+00 0. -1.
          1   -1    0    0  501    0  0.00000000000E+00 -0.00000000000E+00 -0.14864136539E+04  0.14864136539E+04  0.00000000000E+00 0.  1.
         23    2    1    2    0    0  0.74241721901E+03 -0.80500255691E+03 -0.15398135775E+03  0.11099020398E+04  0.94656408405E+02 0.  0.
         11    1    3    3    0    0  0.32005625146E+03 -0.31066946315E+03 -0.22915007764E+02  0.44662805220E+03  0.00000000000E+00 0.  1.
        -11    1    3    3    0    0  0.42236096756E+03 -0.49433309376E+03 -0.13106634999E+03  0.66327398758E+03  0.00000000000E+00 0. -1.
         22    1    1    2    0    0 -0.74241721901E+03  0.80500255691E+03 -0.50360834966E+03  0.12053355606E+04  0.00000000000E+00 0. -1.
<mgrwt>
<rscale>  0 0.22198876E+04</rscale>
<asrwt>0</asrwt>
<pdfrwt beam="1">  1        1 0.22867902E+00 0.22198876E+04</pdfrwt>
<pdfrwt beam="2">  1       -1 0.12751138E+00 0.22198876E+04</pdfrwt>
<totfact> 0.32398630E+00</totfact>
</mgrwt>
</event>
<event>
 6    1  0.1001928E-005  0.2813105E+04  0.7818608E-02  0.8299211E-01
         -1   -1    0    0    0  501 -0.00000000000E+00  0.00000000000E+00  0.18149977706E+04  0.18149977706E+04  0.00000000000E+00 0.  1.
          1   -1    0    0  501    0  0.00000000000E+00 -0.00000000000E+00 -0.10900233210E+04  0.10900233210E+04  0.00000000000E+00 0. -1.
         23    2    1    2    0    0  0.53439868749E+03 -0.12330507901E+04  0.78627022338E+03  0.15597503456E+04  0.92758117170E+02 0.  0.
         13    1    3    3    0    0  0.36363637446E+03 -0.93764612276E+03  0.59788209849E+03  0.11699891743E+04  0.00000000000E+00 0. -1.
        -13    1    3    3    0    0  0.17076231303E+03 -0.29540466735E+03  0.18838812490E+03  0.38976117129E+03  0.00000000000E+00 0.  1.
         22    1    1    2    0    0 -0.53439868749E+03  0.12330507901E+04 -0.61295773760E+02  0.13452707460E+04  0.00000000000E+00 0. -1.
<mgrwt>
<rscale>  0 0.28131050E+04</rscale>
<asrwt>0</asrwt>
<pdfrwt beam="1">  1        1 0.16769590E+00 0.28131050E+04</pdfrwt>
<pdfrwt beam="2">  1       -1 0.27923043E+00 0.28131050E+04</pdfrwt>
<totfact> 0.50221184E-01</totfact>
</mgrwt>
</event>
<event>
 6    1  0.1001928E-005  0.1063348E+04  0.7818608E-02  0.9241671E-01
          2   -1    0    0  501    0  0.00000000000E+00  0.00000000000E+00  0.11729064815E+04  0.11729064815E+04  0.00000000000E+00 0. -1.
         -2   -1    0    0    0  501 -0.00000000000E+00 -0.00000000000E+00 -0.24100575928E+03  0.24100575928E+03  0.00000000000E+00 0.  1.
         23    2    1    2    0    0  0.73076727407E+02  0.34710295582E+03  0.98870665042E+03  0.10546803052E+04  0.94810524575E+02 0.  0.
         13    1    3    3    0    0  0.21201106128E+02  0.13573303251E+03  0.52110462985E+03  0.53890906308E+03  0.00000000000E+00 0. -1.
        -13    1    3    3    0    0  0.51875621279E+02  0.21136992331E+03  0.46760202057E+03  0.51577124212E+03  0.00000000000E+00 0.  1.
         22    1    1    2    0    0 -0.73076727407E+02 -0.34710295582E+03 -0.56805928240E+02  0.35923193554E+03  0.00000000000E+00 0.  1.
<mgrwt>
<rscale>  0 0.10633480E+04</rscale>
<asrwt>0</asrwt>
<pdfrwt beam="1">  1        2 0.18044715E+00 0.10633480E+04</pdfrwt>
<pdfrwt beam="2">  1       -2 0.37077810E-01 0.10633480E+04</pdfrwt>
<totfact> 0.13400117E+02</totfact>
</mgrwt>
</event>
<event>
 6    1  0.1001928E-005  0.3576944E+04  0.7818608E-02  0.8095794E-01
          1   -1    0    0  501    0  0.00000000000E+00  0.00000000000E+00  0.19717095989E+04  0.19717095989E+04  0.00000000000E+00 0. -1.
         -1   -1    0    0    0  501 -0.00000000000E+00 -0.00000000000E+00 -0.16222629215E+04  0.16222629215E+04  0.00000000000E+00 0.  1.
         23    2    1    2    0    0 -0.25172139898E+03  0.69538115121E+03  0.18097265112E+04  0.19571048405E+04  0.90723223494E+02 0.  0.
         11    1    3    3    0    0 -0.15214748581E+03  0.47185914178E+03  0.13101636846E+04  0.14008314629E+04  0.00000000000E+00 0. -1.
        -11    1    3    3    0    0 -0.99573913169E+02  0.22352200943E+03  0.49956282664E+03  0.55627337761E+03  0.00000000000E+00 0.  1.
         22    1    1    2    0    0  0.25172139898E+03 -0.69538115121E+03 -0.14602798339E+04  0.16368676799E+04  0.00000000000E+00 0.  1.
<mgrwt>
<rscale>  0 0.35769436E+04</rscale>
<asrwt>0</asrwt>
<pdfrwt beam="1">  1        1 0.30333994E+00 0.35769436E+04</pdfrwt>
<pdfrwt beam="2">  1       -1 0.24957891E+00 0.35769436E+04</pdfrwt>
<totfact> 0.17716074E-01</totfact>
</mgrwt>
</event>
<event>
 6    1  0.1001928E-005  0.1044190E+04  0.7818608E-02  0.9261363E-01
         -1   -1    0    0    0  501 -0.00000000000E+00  0.00000000000E+00  0.10134712624E+03  0.10134712624E+03  0.00000000000E+00 0.  1.
          1   -1    0    0  501    0  0.00000000000E+00 -0.00000000000E+00 -0.26896000576E+04  0.26896000576E+04  0.00000000000E+00 0. -1.
         23    2    1    2    0    0  0.15714719771E+03  0.48151207225E+03 -0.10118063417E+04  0.11351292689E+04  0.90649139491E+02 0.  0.
         13    1    3    3    0    0  0.84201556356E+02  0.29887291017E+03 -0.70962819926E+03  0.77458834210E+03  0.00000000000E+00 0. -1.
        -13    1    3    3    0    0  0.72945641353E+02  0.18263916207E+03 -0.30217814246E+03  0.36054092679E+03  0.00000000000E+00 0.  1.
         22    1    1    2    0    0 -0.15714719771E+03 -0.48151207225E+03 -0.15764465896E+04  0.16558179149E+04  0.00000000000E+00 0. -1.
<mgrwt>
<rscale>  0 0.10441901E+04</rscale>
<asrwt>0</asrwt>
<pdfrwt beam="1">  1        1 0.41378456E+00 0.10441901E+04</pdfrwt>
<pdfrwt beam="2">  1       -1 0.15591868E-01 0.10441901E+04</pdfrwt>
<totfact> 0.31267058E+01</totfact>
</mgrwt>
</event>
<event>
 6    1  0.1001928E-005  0.1998617E+04  0.7818608E-02  0.8607268E-01
         -4   -1    0    0    0  501 -0.00000000000E+00  0.00000000000E+00  0.53863373251E+03  0.53863373251E+03  0.00000000000E+00 0.  1.
          4   -1    0    0  501    0  0.00000000000E+00 -0.00000000000E+00 -0.18539818695E+04  0.18539818695E+04  0.00000000000E+00 0. -1.
         23    2    1    2    0    0  0.60262558094E+03  0.21966834566E+03  0.25511836178E+03  0.69621447120E+03  0.90650088299E+02 0.  0.
         13    1    3    3    0    0  0.18383989017E+03  0.24908176128E+02  0.61976302073E+02  0.19559801756E+03  0.00000000000E+00 0.  1.
        -13    1    3    3    0    0  0.41878569077E+03  0.19476016953E+03  0.19314205971E+03  0.50061645364E+03  0.00000000000E+00 0. -1.
         22    1    1    2    0    0 -0.60262558094E+03 -0.21966834566E+03 -0.15704664987E+04  0.16964011308E+04  0.00000000000E+00 0. -1.
<mgrwt>
<rscale>  0 0.19986167E+04</rscale>
<asrwt>0</asrwt>
<pdfrwt beam="1">  1        4 0.28522798E+00 0.19986167E+04</pdfrwt>
<pdfrwt beam="2">  1       -4 0.82866728E-01 0.19986167E+04</pdfrwt>
<totfact> 0.90974593E-02</totfact>
</mgrwt>
</event>
<event>
 6    1  0.1001928E-005  0.4606290E+04  0.7818608E-02  0.7892288E-01
         -2   -1    0    0    0  501 -0.00000000000E+00  0.00000000000E+00  0.12788267506E+04  0.12788267506E+04  0.00000000000E+00 0.  1.
          2   -1    0    0  501    0  0.00000000000E+00 -0.00000000000E+00 -0.41479253666E+04  0.41479253666E+04  0.00000000000E+00 0. -1.
         23    2    1    2    0    0 -0.99387903334E+03 -0.51460745105E+03  0.93519088090E+03  0.14612464826E+04  0.89682426937E+02 0.  0.
         13    1    3    3    0    0 -0.96355265382E+03 -0.51183395075E+03  0.89734436729E+03  0.14126693255E+04  0.00000000000E+00 0.  1.
        -13    1    3    3    0    0 -0.30326379525E+02 -0.27735003037E+01  0.37846513607E+02  0.48577157093E+02  0.00000000000E+00 0. -1.
         22    1    1    2    0    0  0.99387903334E+03  0.51460745105E+03 -0.38042894969E+04  0.39655056346E+04  0.00000000000E+00 0. -1.
<mgrwt>
<rscale>  0 0.46062904E+04</rscale>
<asrwt>0</asrwt>
<pdfrwt beam="1">  1        2 0.63814236E+00 0.46062904E+04</pdfrwt>
<pdfrwt beam="2">  1       -2 0.19674258E+00 0.46062904E+04</pdfrwt>
<totfact> 0.26918489E-02</totfact>
</mgrwt>
</event>
<event>
 6    1  0.1001928E-005  0.2728753E+04  0.7818608E-02  0.8325735E-01
          1   -1    0    0  501    0  0.00000000000E+00  0.00000000000E+00  0.95221921958E+03  0.95221921958E+03  0.00000000000E+00 0. -1.
         -1   -1    0    0    0  501 -0.00000000000E+00 -0.00000000000E+00 -0.19549315725E+04  0.19549315725E+04  0.00000000000E+00 0.  1.
         23    2    1    2    0    0  0.53378060632E+02 -0.12631016893E+04 -0.10442954299E+04  0.16422380493E+04  0.90098671708E+02 0.  0.
         11    1    3    3    0    0  0.58275794089E+02 -0.44695138542E+03 -0.34879997593E+03  0.56993248049E+03  0.00000000000E+00 0. -1.
        -11    1    3    3    0    0 -0.48977334572E+01 -0.81615030383E+03 -0.69549545402E+03  0.10723055688E+04  0.00000000000E+00 0.  1.
         22    1    1    2    0    0 -0.53378060632E+02  0.12631016893E+04  0.41583077001E+02  0.12649127429E+04  0.00000000000E+00 0. -1.
<mgrwt>
<rscale>  0 0.27287531E+04</rscale>
<asrwt>0</asrwt>
<pdfrwt beam="1">  1        1 0.14649526E+00 0.27287531E+04</pdfrwt>
<pdfrwt beam="2">  1       -1 0.30075870E+00 0.27287531E+04</pdfrwt>
<totfact> 0.46946129E-01</totfact>
</mgrwt>
</event>
<event>
 6    1  0.1001928E-005  0.1575392E+04  0.7818608E-02  0.8835810E-01
          2   -1    0    0  501    0  0.00000000000E+00  0.00000000000E+00  0.20020535957E+04  0.20020535957E+04  0.00000000000E+00 0. -1.
         -2   -1    0    0    0  501 -0.00000000000E+00 -0.00000000000E+00 -0.30991416005E+03  0.30991416005E+03  0.00000000000E+00 0.  1.
         23    2    1    2    0    0 -0.40234469828E+03  0.35406783253E+03  0.71726715990E+01  0.54381666429E+03  0.91868552142E+02 0.  0.
         11    1    3    3    0    0 -0.30061936192E+03  0.28439914502E+03  0.41299946393E+02  0.41588527267E+03  0.00000000000E+00 0.  1.
        -11    1    3    3    0    0 -0.10172533636E+03  0.69668687506E+02 -0.34127274794E+02  0.12793139162E+03  0.00000000000E+00 0. -1.
         22    1    1    2    0    0  0.40234469828E+03 -0.35406783253E+03  0.16849667640E+04  0.17681510914E+04  0.00000000000E+00 0. -1.
<mgrwt>
<rscale>  0 0.15753917E+04</rscale>
<asrwt>0</asrwt>
<pdfrwt beam="1">  1        2 0.30800824E+00 0.15753917E+04</pdfrwt>
<pdfrwt beam="2">  1       -2 0.47679103E-01 0.15753917E+04</pdfrwt>
<totfact> 0.26692642E+01</totfact>
</mgrwt>
</event>
<event>
 6    1  0.1001928E-005  0.1681098E+04  0.7818608E-02  0.8772219E-01
          2   -1    0    0  501    0  0.00000000000E+00  0.00000000000E+00  0.35224372130E+03  0.35224372130E+03  0.00000000000E+00 0. -1.
         -2   -1    0    0    0  501 -0.00000000000E+00 -0.00000000000E+00 -0.20057766262E+04  0.20057766262E+04  0.00000000000E+00 0.  1.
         23    2    1    2    0    0 -0.57426058048E+03 -0.31765796086E+03 -0.15605171107E+04  0.16951977979E+04  0.88318325298E+02 0.  0.
         13    1    3    3    0    0 -0.15659225628E+03 -0.78715688719E+02 -0.52158021823E+03  0.55023923745E+03  0.00000000000E+00 0. -1.
        -13    1    3    3    0    0 -0.41766832420E+03 -0.23894227215E+03 -0.10389368925E+04  0.11449585604E+04  0.00000000000E+00 0.  1.
         22    1    1    2    0    0  0.57426058048E+03  0.31765796086E+03 -0.93015794201E+02  0.66282254968E+03  0.00000000000E+00 0. -1.
<mgrwt>
<rscale>  0 0.16810975E+04</rscale>
<asrwt>0</asrwt>
<pdfrwt beam="1">  1        2 0.54191343E-01 0.16810975E+04</pdfrwt>
<pdfrwt beam="2">  1       -2 0.30858101E+00 0.16810975E+04</pdfrwt>
<totfact> 0.24685928E+00</totfact>
</mgrwt>
</event>
<event>
 6    1  0.1065928E-005  0.4320228E+04  0.7818608E-02  0.7942888E-01
          2   -1    0    0  501    0  0.00000000000E+00  0.00000000000E+00  0.18829030458E+04  0.18829030458E+04  0.00000000000E+00 0. -1.
         -2   -1    0    0    0  501 -0.00000000000E+00 -0.00000000000E+00 -0.24781370821E+04  0.24781370821E+04  0.00000000000E+00 0.  1.
         23    2    1    2    0    0 -0.11303901579E+04  0.13139885377E+04  0.10014783583E+04  0.20043818461E+04  0.10119237266E+03 0.  0.
         13    1    3    3    0    0 -0.35948025292E+03  0.38847171583E+03  0.25722502361E+03  0.58847348199E+03  0.00000000000E+00 0. -1.
        -13    1    3    3    0    0 -0.77090990497E+03  0.92551682192E+03  0.74425333470E+03  0.14159083641E+04  0.00000000000E+00 0.  1.
         22    1    1    2    0    0  0.11303901579E+04 -0.13139885377E+04 -0.15967123946E+04  0.23566582818E+04  0.00000000000E+00 0.  1.
<mgrwt>
<rscale>  0 0.43202277E+04</rscale>
<asrwt>0</asrwt>
<pdfrwt beam="1">  1        2 0.28967739E+00 0.43202277E+04</pdfrwt>
<pdfrwt beam="2">  1       -2 0.38125186E+00 0.43202277E+04</pdfrwt>
<totfact> 0.58628491E-02</totfact>
</mgrwt>
</event>
<event>
 6    1  0.1001928E-005  0.1649572E+04  0.7818608E-02  0.8790660E-01
          2   -1    0    0  501    0  0.00000000000E+00  0.00000000000E+00  0.86458283686E+03  0.86458283686E+03  0.00000000000E+00 0. -1.
         -2   -1    0    0    0  501 -0.00000000000E+00 -0.00000000000E+00 -0.78682115166E+03  0.78682115166E+03  0.00000000000E+00 0.  1.
         23    2    1    2    0    0 -0.16613496045E+03  0.56153060014E+03 -0.53881626110E+03  0.80105946785E+03  0.91955792827E+02 0.  0.
         13    1    3    3    0    0 -0.92968883454E+02  0.43946773567E+03 -0.38623817062E+03  0.59241457479E+03  0.00000000000E+00 0.  1.
        -13    1    3    3    0    0 -0.73166076991E+02  0.12206286447E+03 -0.15257809047E+03  0.20864489306E+03  0.00000000000E+00 0. -1.
         22    1    1    2    0    0  0.16613496045E+03 -0.56153060014E+03  0.61657794629E+03  0.85034452067E+03  0.00000000000E+00 0. -1.
<mgrwt>
<rscale>  0 0.16495721E+04</rscale>
<asrwt>0</asrwt>
<pdfrwt beam="1">  1        2 0.13301274E+00 0.16495721E+04</pdfrwt>
<pdfrwt beam="2">  1       -2 0.12104941E+00 0.16495721E+04</pdfrwt>
<totfact> 0.15390192E+01</totfact>
</mgrwt>
</event>
<event>
 6    1  0.1001928E-005  0.2033248E+04  0.7818608E-02  0.8591232E-01
          1   -1    0    0  501    0  0.00000000000E+00  0.00000000000E+00  0.18899115944E+04  0.18899115944E+04  0.00000000000E+00 0. -1.
         -1   -1    0    0    0  501 -0.00000000000E+00 -0.00000000000E+00 -0.54686381891E+03  0.54686381891E+03  0.00000000000E+00 0.  1.
         23    2    1    2    0    0 -0.34419696992E+03  0.44631845589E+03 -0.33819577743E+03  0.66357164544E+03  0.90990255475E+02 0.  0.
         11    1    3    3    0    0 -0.19369552186E+03  0.27933092215E+03 -0.15504983289E+03  0.37360964915E+03  0.00000000000E+00 0.  1.
        -11    1    3    3    0    0 -0.15050144805E+03  0.16698753374E+03 -0.18314594453E+03  0.28996199629E+03  0.00000000000E+00 0. -1.
         22    1    1    2    0    0  0.34419696992E+03 -0.44631845589E+03  0.16812435529E+04  0.17732037678E+04  0.00000000000E+00 0. -1.
<mgrwt>
<rscale>  0 0.20332479E+04</rscale>
<asrwt>0</asrwt>
<pdfrwt beam="1">  1        1 0.29075563E+00 0.20332479E+04</pdfrwt>
<pdfrwt beam="2">  1       -1 0.84132896E-01 0.20332479E+04</pdfrwt>
<totfact> 0.45826754E+00</totfact>
</mgrwt>
</event>
<event>
 6    1  0.1001928E-005  0.1937433E+04  0.7818608E-02  0.8636445E-01
          2   -1    0    0  501    0  0.00000000000E+00  0.00000000000E+00  0.18584075079E+04  0.18584075079E+04  0.00000000000E+00 0. -1.
         -2   -1    0    0    0  501 -0.00000000000E+00 -0.00000000000E+00 -0.50495478905E+03  0.50495478905E+03  0.00000000000E+00 0.  1.
         23    2    1    2    0    0 -0.72645397814E+03  0.19213489849E+03 -0.63462641647E+02  0.75952304678E+03  0.90534800654E+02 0.  0.
         13    1    3    3    0    0 -0.22969905148E+03  0.79110678454E+02 -0.59221949126E+02  0.25005477991E+03  0.00000000000E+00 0.  1.
        -13    1    3    3    0    0 -0.49675492665E+03  0.11302422003E+03 -0.42406925215E+01  0.50946826686E+03  0.00000000000E+00 0. -1.
         22    1    1    2    0    0  0.72645397814E+03 -0.19213489849E+03  0.14169153605E+04  0.16038392502E+04  0.00000000000E+00 0. -1.
<mgrwt>
<rscale>  0 0.19374331E+04</rscale>
<asrwt>0</asrwt>
<pdfrwt beam="1">  1        2 0.28590884E+00 0.19374331E+04</pdfrwt>
<pdfrwt beam="2">  1       -2 0.77685353E-01 0.19374331E+04</pdfrwt>
<totfact> 0.11039162E+01</totfact>
</mgrwt>
</event>
<event>
 6    1  0.1001928E-005  0.4564737E+04  0.7818608E-02  0.7899400E-01
          1   -1    0    0  501    0  0.00000000000E+00  0.00000000000E+00  0.28407460850E+04  0.28407460850E+04  0.00000000000E+00 0. -1.
         -1   -1    0    0    0  501 -0.00000000000E+00 -0.00000000000E+00 -0.18337459203E+04  0.18337459203E+04  0.00000000000E+00 0.  1.
         23    2    1    2    0    0 -0.11961972148E+04 -0.19331953421E+04  0.30726119369E+03  0.22958859775E+04  0.92471472733E+02 0.  0.
         13    1    3    3    0    0 -0.55043383208E+03 -0.87999762886E+03  0.94108558543E+02  0.10422234171E+04  0.00000000000E+00 0.  1.
        -13    1    3    3    0    0 -0.64576338272E+03 -0.10531977133E+04  0.21315263514E+03  0.12536625605E+04  0.00000000000E+00 0. -1.
         22    1    1    2    0    0  0.11961972148E+04  0.19331953421E+04  0.69973897108E+03  0.23786060277E+04  0.00000000000E+00 0. -1.
<mgrwt>
<rscale>  0 0.45647373E+04</rscale>
<asrwt>0</asrwt>
<pdfrwt beam="1">  1        1 0.43703786E+00 0.45647373E+04</pdfrwt>
<pdfrwt beam="2">  1       -1 0.28211476E+00 0.45647373E+04</pdfrwt>
<totfact> 0.25120808E-02</totfact>
</mgrwt>
</event>
<event>
 6    1  0.1001928E-005  0.3390530E+04  0.7818608E-02  0.8140235E-01
          1   -1    0    0  501    0  0.00000000000E+00  0.00000000000E+00  0.16191649803E+04  0.16191649803E+04  0.00000000000E+00 0. -1.
         -1   -1    0    0    0  501 -0.00000000000E+00 -0.00000000000E+00 -0.17749412090E+04  0.17749412090E+04  0.00000000000E+00 0.  1.
         23    2    1    2    0    0  0.14024528240E+04  0.89383062357E+03 -0.40000699665E+03  0.17131969784E+04  0.96079040702E+02 0.  0.
         13    1    3    3    0    0  0.12258885452E+04  0.75871473110E+03 -0.31889132009E+03  0.14765305424E+04  0.00000000000E+00 0. -1.
        -13    1    3    3    0    0  0.17656427880E+03  0.13511589247E+03 -0.81115676558E+02  0.23666643601E+03  0.00000000000E+00 0.  1.
         22    1    1    2    0    0 -0.14024528240E+04 -0.89383062357E+03  0.24423076799E+03  0.16809092109E+04  0.00000000000E+00 0.  1.
<mgrwt>
<rscale>  0 0.33905295E+04</rscale>
<asrwt>0</asrwt>
<pdfrwt beam="1">  1        1 0.24910230E+00 0.33905295E+04</pdfrwt>
<pdfrwt beam="2">  1       -1 0.27306788E+00 0.33905295E+04</pdfrwt>
<totfact> 0.21998103E-01</totfact>
</mgrwt>
</event>
<event>
 6    1  0.1001928E-005  0.1168328E+04  0.7818608E-02  0.9141040E-01
         -2   -1    0    0    0  501 -0.00000000000E+00  0.00000000000E+00  0.41677124613E+03  0.41677124613E+03  0.00000000000E+00 0.  1.
          2   -1    0    0  501    0  0.00000000000E+00 -0.00000000000E+00 -0.81878832907E+03  0.81878832907E+03  0.00000000000E+00 0. -1.
         23    2    1    2    0    0  0.19848914318E+03  0.49780911278E+03  0.34276543619E+02  0.54449953345E+03  0.89961145800E+02 0.  0.
         13    1    3    3    0    0  0.10839480382E+03  0.16233462610E+03 -0.23571273992E+01  0.19521147604E+03  0.00000000000E+00 0. -1.
        -13    1    3    3    0    0  0.90094339363E+02  0.33547448668E+03  0.36633671018E+02  0.34928805741E+03  0.00000000000E+00 0.  1.
         22    1    1    2    0    0 -0.19848914318E+03 -0.49780911278E+03 -0.43629362656E+03  0.69106004175E+03  0.00000000000E+00 0. -1.
<mgrwt>
<rscale>  0 0.11683277E+04</rscale>
<asrwt>0</asrwt>
<pdfrwt beam="1">  1        2 0.12596743E+00 0.11683277E+04</pdfrwt>
<pdfrwt beam="2">  1       -2 0.64118653E-01 0.11683277E+04</pdfrwt>
<totfact> 0.74251912E+01</totfact>
</mgrwt>
</event>
<event>
 6    1  0.1001928E-005  0.1996301E+04  0.7818608E-02  0.8608352E-01
          1   -1    0    0  501    0  0.00000000000E+00  0.00000000000E+00  0.10821907244E+04  0.10821907244E+04  0.00000000000E+00 0. -1.
         -1   -1    0    0    0  501 -0.00000000000E+00 -0.00000000000E+00 -0.92063660147E+03  0.92063660147E+03  0.00000000000E+00 0.  1.
         23    2    1    2    0    0  0.93404126263E+03  0.23986199785E+03 -0.16955365326E+03  0.98321994177E+03  0.89477115756E+02 0.  0.
         13    1    3    3    0    0  0.90125748345E+03  0.23503164808E+03 -0.14649679253E+03  0.94285006087E+03  0.00000000000E+00 0.  1.
        -13    1    3    3    0    0  0.32783779185E+02  0.48303497720E+01 -0.23056860734E+02  0.40369880894E+02  0.00000000000E+00 0. -1.
         22    1    1    2    0    0 -0.93404126263E+03 -0.23986199785E+03  0.33110777622E+03  0.10196073841E+04  0.00000000000E+00 0.  1.
<mgrwt>
<rscale>  0 0.19963010E+04</rscale>
<asrwt>0</asrwt>
<pdfrwt beam="1">  1        1 0.16649088E+00 0.19963010E+04</pdfrwt>
<pdfrwt beam="2">  1       -1 0.14163640E+00 0.19963010E+04</pdfrwt>
<totfact> 0.49344486E+00</totfact>
</mgrwt>
</event>
<event>
 6    1  0.1001928E-005  0.3831822E+04  0.7818608E-02  0.8039360E-01
         -1   -1    0    0    0  501 -0.00000000000E+00  0.00000000000E+00  0.15280548465E+04  0.15280548465E+04  0.00000000000E+00 0.  1.
          1   -1    0    0  501    0  0.00000000000E+00 -0.00000000000E+00 -0.24022135765E+04  0.24022135765E+04  0.00000000000E+00 0. -1.
         23    2    1    2    0    0  0.46397257268E+03  0.18464155297E+04 -0.64796792751E+03  0.20130613045E+04  0.89624350261E+02 0.  0.
         13    1    3    3    0    0  0.40139547875E+03  0.14572932316E+04 -0.52688421017E+03  0.16007588401E+04  0.00000000000E+00 0. -1.
        -13    1    3    3    0    0  0.62577093928E+02  0.38912229808E+03 -0.12108371733E+03  0.41230246440E+03  0.00000000000E+00 0.  1.
         22    1    1    2    0    0 -0.46397257268E+03 -0.18464155297E+04 -0.22619080249E+03  0.19172071186E+04  0.00000000000E+00 0. -1.
<mgrwt>
<rscale>  0 0.38318216E+04</rscale>
<asrwt>0</asrwt>
<pdfrwt beam="1">  1        1 0.36957132E+00 0.38318216E+04</pdfrwt>
<pdfrwt beam="2">  1       -1 0.23508536E+00 0.38318216E+04</pdfrwt>
<totfact> 0.10974270E-01</totfact>
</mgrwt>
</event>
<event>
 6    1  0.1001928E-005  0.3947830E+04  0.7818608E-02  0.8015154E-01
          1   -1    0    0  501    0  0.00000000000E+00  0.00000000000E+00  0.17501299216E+04  0.17501299216E+04  0.00000000000E+00 0. -1.
         -1   -1    0    0    0  501 -0.00000000000E+00 -0.00000000000E+00 -0.22263145302E+04  0.22263145302E+04  0.00000000000E+00 0.  1.
         23    2    1    2    0    0  0.71647019012E+03  0.23661968606E+03  0.15978744554E+04  0.17694013145E+04  0.90883591628E+02 0.  0.
         13    1    3    3    0    0  0.36585583264E+03  0.98443303446E+02  0.89454910370E+03  0.97147294003E+03  0.00000000000E+00 0.  1.
        -13    1    3    3    0    0  0.35061435748E+03  0.13817638261E+03  0.70332535172E+03  0.79792837445E+03  0.00000000000E+00 0. -1.
         22    1    1    2    0    0 -0.71647019012E+03 -0.23661968606E+03 -0.20740590640E+04  0.22070431373E+04  0.00000000000E+00 0.  1.
<mgrwt>
<rscale>  0 0.39478296E+04</rscale>
<asrwt>0</asrwt>
<pdfrwt beam="1">  1        1 0.26925076E+00 0.39478296E+04</pdfrwt>
<pdfrwt beam="2">  1       -1 0.34250993E+00 0.39478296E+04</pdfrwt>
<totfact> 0.60284490E-02</totfact>
</mgrwt>
</event>
<event>
 6    1  0.1001928E-005  0.3449838E+04  0.7818608E-02  0.8125782E-01
         -2   -1    0    0    0  501 -0.00000000000E+00  0.00000000000E+00  0.12854886945E+04  0.12854886945E+04  0.00000000000E+00 0.  1.
          2   -1    0    0  501    0  0.00000000000E+00 -0.00000000000E+00 -0.23145634381E+04  0.23145634381E+04  0.00000000000E+00 0. -1.
         23    2    1    2    0    0 -0.10829924556E+04  0.67586628975E+03  0.69367799036E+03  0.14558635022E+04  0.93174471983E+02 0.  0.
         11    1    3    3    0    0 -0.36960793521E+03  0.27009503173E+03  0.21493933657E+03  0.50572746647E+03  0.00000000000E+00 0. -1.
        -11    1    3    3    0    0 -0.71338452041E+03  0.40577125802E+03  0.47873865380E+03  0.95013603575E+03  0.00000000000E+00 0.  1.
         22    1    1    2    0    0  0.10829924556E+04 -0.67586628975E+03 -0.17227527339E+04  0.21441886304E+04  0.00000000000E+00 0.  1.
<mgrwt>
<rscale>  0 0.34498378E+04</rscale>
<asrwt>0</asrwt>
<pdfrwt beam="1">  1        2 0.35608668E+00 0.34498378E+04</pdfrwt>
<pdfrwt beam="2">  1       -2 0.19776749E+00 0.34498378E+04</pdfrwt>
<totfact> 0.50491678E-01</totfact>
</mgrwt>
</event>
<event>
 6    1  0.1001928E-005  0.2109951E+04  0.7818608E-02  0.8556873E-01
         -2   -1    0    0    0  501 -0.00000000000E+00  0.00000000000E+00  0.85610225743E+03  0.85610225743E+03  0.00000000000E+00 0.  1.
          2   -1    0    0  501    0  0.00000000000E+00 -0.00000000000E+00 -0.13000471383E+04  0.13000471383E+04  0.00000000000E+00 0. -1.
         23    2    1    2    0    0  0.26426065798E+03 -0.96913638464E+03  0.10072946433E+03  0.10134643255E+04  0.88907180577E+02 0.  0.
         11    1    3    3    0    0  0.11573294204E+03 -0.27323734082E+03  0.37244618069E+02  0.29906507631E+03  0.00000000000E+00 0. -1.
        -11    1    3    3    0    0  0.14852771594E+03 -0.69589904382E+03  0.63484846257E+02  0.71439924923E+03  0.00000000000E+00 0.  1.
         22    1    1    2    0    0 -0.26426065798E+03  0.96913638464E+03 -0.54467434522E+03  0.11426850702E+04  0.00000000000E+00 0. -1.
<mgrwt>
<rscale>  0 0.21099510E+04</rscale>
<asrwt>0</asrwt>
<pdfrwt beam="1">  1        2 0.20000725E+00 0.21099510E+04</pdfrwt>
<pdfrwt beam="2">  1       -2 0.13170804E+00 0.21099510E+04</pdfrwt>
<totfact> 0.63962100E+00</totfact>
</mgrwt>
</event>
<event>
 6    1  0.1001928E-005  0.1027009E+04  0.7818608E-02  0.9279408E-01
         -1   -1    0    0    0  501 -0.00000000000E+00  0.00000000000E+00  0.32710696388E+03  0.32710696388E+03  0.00000000000E+00 0.  1.
          1   -1    0    0  501    0  0.00000000000E+00 -0.00000000000E+00 -0.80611856676E+03  0.80611856676E+03  0.00000000000E+00 0. -1.
         23    2    1    2    0    0  0.11025516662E+03  0.39943287961E+03  0.85563419841E+02  0.43290575842E+03  0.91561289766E+02 0.  0.
         13    1    3    3    0    0  0.74814509580E+02  0.24147695860E+03  0.68337293191E+01  0.25289332184E+03  0.00000000000E+00 0. -1.
        -13    1    3    3    0    0  0.35440657044E+02  0.15795592101E+03  0.78729690521E+02  0.18001243658E+03  0.00000000000E+00 0.  1.
         22    1    1    2    0    0 -0.11025516662E+03 -0.39943287961E+03 -0.56457502272E+03  0.70031977222E+03  0.00000000000E+00 0. -1.
<mgrwt>
<rscale>  0 0.10270092E+04</rscale>
<asrwt>0</asrwt>
<pdfrwt beam="1">  1        1 0.12401824E+00 0.10270092E+04</pdfrwt>
<pdfrwt beam="2">  1       -1 0.50324149E-01 0.10270092E+04</pdfrwt>
<totfact> 0.86647997E+01</totfact>
</mgrwt>
</event>
<event>
 6    1  0.1001928E-005  0.1614116E+04  0.7818608E-02  0.8811922E-01
         -2   -1    0    0    0  501 -0.00000000000E+00  0.00000000000E+00  0.62632427082E+03  0.62632427082E+03  0.00000000000E+00 0.  1.
          2   -1    0    0  501    0  0.00000000000E+00 -0.00000000000E+00 -0.10399450986E+04  0.10399450986E+04  0.00000000000E+00 0. -1.
         23    2    1    2    0    0 -0.41648193536E+03 -0.24296831452E+03 -0.87202811390E+03  0.10009663976E+04  0.94920457706E+02 0.  0.
         13    1    3    3    0    0 -0.24398953399E+03 -0.11826325200E+03 -0.40081949982E+03  0.48391462150E+03  0.00000000000E+00 0. -1.
        -13    1    3    3    0    0 -0.17249240137E+03 -0.12470506251E+03 -0.47120861408E+03  0.51705177607E+03  0.00000000000E+00 0.  1.
         22    1    1    2    0    0  0.41648193536E+03  0.24296831452E+03  0.45840728614E+03  0.66530297183E+03  0.00000000000E+00 0.  1.
<mgrwt>
<rscale>  0 0.16141163E+04</rscale>
<asrwt>0</asrwt>
<pdfrwt beam="1">  1        2 0.15999155E+00 0.16141163E+04</pdfrwt>
<pdfrwt beam="2">  1       -2 0.96357581E-01 0.16141163E+04</pdfrwt>
<totfact> 0.20516556E+01</totfact>
</mgrwt>
</event>
<event>
 6    1  0.1001928E-005  0.1153824E+04  0.7818608E-02  0.9154263E-01
          1   -1    0    0  501    0  0.00000000000E+00  0.00000000000E+00  0.30668422817E+03  0.30668422817E+03  0.00000000000E+00 0. -1.
         -1   -1    0    0    0  501 -0.00000000000E+00 -0.00000000000E+00 -0.10852438958E+04  0.10852438958E+04  0.00000000000E+00 0.  1.
         23    2    1    2    0    0  0.38526569832E+03  0.25402432239E+03  0.18804624037E+02  0.47065301397E+03  0.90568377489E+02 0.  0.
         11    1    3    3    0    0  0.23375117371E+03  0.10827737144E+03  0.34118357464E+02  0.25986085256E+03  0.00000000000E+00 0. -1.
        -11    1    3    3    0    0  0.15151452462E+03  0.14574695095E+03 -0.15313733426E+02  0.21079216141E+03  0.00000000000E+00 0.  1.
         22    1    1    2    0    0 -0.38526569832E+03 -0.25402432239E+03 -0.79736429166E+03  0.92127510999E+03  0.00000000000E+00 0.  1.
<mgrwt>
<rscale>  0 0.11538235E+04</rscale>
<asrwt>0</asrwt>
<pdfrwt beam="1">  1        1 0.47182189E-01 0.11538235E+04</pdfrwt>
<pdfrwt beam="2">  1       -1 0.16696060E+00 0.11538235E+04</pdfrwt>
<totfact> 0.21918175E+01</totfact>
</mgrwt>
</event>
<event>
 6    1  0.1001928E-005  0.4126608E+04  0.7818608E-02  0.7979482E-01
         -1   -1    0    0    0  501 -0.00000000000E+00  0.00000000000E+00  0.19903311195E+04  0.19903311195E+04  0.00000000000E+00 0.  1.
          1   -1    0    0  501    0  0.00000000000E+00 -0.00000000000E+00 -0.21389521865E+04  0.21389521865E+04  0.00000000000E+00 0. -1.
         23    2    1    2    0    0 -0.12701662516E+04  0.99884522287E+03 -0.13564054176E+04  0.21119194015E+04  0.96715125346E+02 0.  0.
         13    1    3    3    0    0 -0.88471522975E+03  0.65020806213E+03 -0.88435293027E+03  0.14098126355E+04  0.00000000000E+00 0.  1.
        -13    1    3    3    0    0 -0.38545102184E+03  0.34863716073E+03 -0.47205248733E+03  0.70210676601E+03  0.00000000000E+00 0. -1.
         22    1    1    2    0    0  0.12701662516E+04 -0.99884522287E+03  0.12077843506E+04  0.20173639046E+04  0.00000000000E+00 0.  1.
<mgrwt>
<rscale>  0 0.41266079E+04</rscale>
<asrwt>0</asrwt>
<pdfrwt beam="1">  1        1 0.32906957E+00 0.41266079E+04</pdfrwt>
<pdfrwt beam="2">  1       -1 0.30620479E+00 0.41266079E+04</pdfrwt>
<totfact> 0.55899093E-02</totfact>
</mgrwt>
</event>
<event>
 6    1  0.1001928E-005  0.4632330E+03  0.7818608E-02  0.1023848E+00
          1   -1    0    0  501    0  0.00000000000E+00  0.00000000000E+00  0.14227950939E+04  0.14227950939E+04  0.00000000000E+00 0. -1.
         -1   -1    0    0    0  501 -0.00000000000E+00 -0.00000000000E+00 -0.37704803442E+02  0.37704803442E+02  0.00000000000E+00 0.  1.
         23    2    1    2    0    0  0.23181423607E+02  0.15766705490E+02  0.14156864048E+04  0.14190018297E+04  0.92802094183E+02 0.  0.
         11    1    3    3    0    0  0.61644374678E+01  0.41827190824E+02  0.30913181009E+03  0.31200959952E+03  0.00000000000E+00 0.  1.
        -11    1    3    3    0    0  0.17016986139E+02 -0.26060485333E+02  0.11065545947E+04  0.11069922302E+04  0.00000000000E+00 0. -1.
         22    1    1    2    0    0 -0.23181423607E+02 -0.15766705490E+02 -0.30596114334E+02  0.41498067603E+02  0.00000000000E+00 0.  1.
<mgrwt>
<rscale>  0 0.46323303E+03</rscale>
<asrwt>0</asrwt>
<pdfrwt beam="1">  1        1 0.21889151E+00 0.46323303E+03</pdfrwt>
<pdfrwt beam="2">  1       -1 0.58007401E-02 0.46323303E+03</pdfrwt>
<totfact> 0.11234168E+03</totfact>
</mgrwt>
</event>
<event>
 6    1  0.1001928E-005  0.4208262E+04  0.7818608E-02  0.7963803E-01
         -1   -1    0    0    0  501 -0.00000000000E+00  0.00000000000E+00  0.16004484849E+04  0.16004484849E+04  0.00000000000E+00 0.  1.
          1   -1    0    0  501    0  0.00000000000E+00 -0.00000000000E+00 -0.27663286527E+04  0.27663286527E+04  0.00000000000E+00 0. -1.
         23    2    1    2    0    0 -0.11090852291E+04  0.27752302486E+03  0.12493252858E+04  0.16946419505E+04  0.62518764897E+02 0.  0.
         11    1    3    3    0    0 -0.19695015902E+03  0.63845808956E+02  0.19804822701E+03  0.28651134826E+03  0.00000000000E+00 0.  1.
        -11    1    3    3    0    0 -0.91213507005E+03  0.21367721591E+03  0.10512770588E+04  0.14081306022E+04  0.00000000000E+00 0. -1.
         22    1    1    2    0    0  0.11090852291E+04 -0.27752302486E+03 -0.24152054536E+04  0.26721351870E+04  0.00000000000E+00 0. -1.
<mgrwt>
<rscale>  0 0.42082616E+04</rscale>
<asrwt>0</asrwt>
<pdfrwt beam="1">  1        1 0.42558902E+00 0.42082616E+04</pdfrwt>
<pdfrwt beam="2">  1       -1 0.24622284E+00 0.42082616E+04</pdfrwt>
<totfact> 0.50008116E-02</totfact>
</mgrwt>
</event>
<event>
 6    1  0.1001928E-005  0.2874553E+04  0.7818608E-02  0.8280489E-01
         -2   -1    0    0    0  501 -0.00000000000E+00  0.00000000000E+00  0.13984040913E+04  0.13984040913E+04  0.00000000000E+00 0. -1.
          2   -1    0    0  501    0  0.00000000000E+00 -0.00000000000E+00 -0.14772290457E+04  0.14772290457E+04  0.00000000000E+00 0.  1.
         23    2    1    2    0    0  0.64056107025E+03  0.24604486050E+03 -0.13011660360E+04  0.14738577350E+04  0.91471371042E+02 0.  0.
         11    1    3    3    0    0  0.19064864692E+03  0.35525977722E+02 -0.32163298355E+03  0.37557526246E+03  0.00000000000E+00 0. -1.
        -11    1    3    3    0    0  0.44991242332E+03  0.21051888278E+03 -0.97953305241E+03  0.10982824725E+04  0.00000000000E+00 0.  1.
         22    1    1    2    0    0 -0.64056107025E+03 -0.24604486050E+03  0.12223410815E+04  0.14017754020E+04  0.00000000000E+00 0. -1.
<mgrwt>
<rscale>  0 0.28745526E+04</rscale>
<asrwt>0</asrwt>
<pdfrwt beam="1">  1        2 0.22726601E+00 0.28745526E+04</pdfrwt>
<pdfrwt beam="2">  1       -2 0.21513909E+00 0.28745526E+04</pdfrwt>
<totfact> 0.12003659E+00</totfact>
</mgrwt>
</event>
<event>
 6    1  0.1001928E-005  0.3478839E+04  0.7818608E-02  0.8118823E-01
         -2   -1    0    0    0  501 -0.00000000000E+00  0.00000000000E+00  0.84362629412E+03  0.84362629412E+03  0.00000000000E+00 0.  1.
          2   -1    0    0  501    0  0.00000000000E+00 -0.00000000000E+00 -0.35863983852E+04  0.35863983852E+04  0.00000000000E+00 0. -1.
         23    2    1    2    0    0 -0.11251933547E+04 -0.12584076066E+04 -0.84195732262E+03  0.18878314188E+04  0.73249866118E+02 0.  0.
         13    1    3    3    0    0 -0.26274532306E+03 -0.28280687827E+03 -0.22631305836E+03  0.44747339090E+03  0.00000000000E+00 0. -1.
        -13    1    3    3    0    0 -0.86244803166E+03 -0.97560072831E+03 -0.61564426426E+03  0.14403580279E+04  0.00000000000E+00 0.  1.
         22    1    1    2    0    0  0.11251933547E+04  0.12584076066E+04 -0.19008147684E+04  0.25421932605E+04  0.00000000000E+00 0. -1.
<mgrwt>
<rscale>  0 0.34788389E+04</rscale>
<asrwt>0</asrwt>
<pdfrwt beam="1">  1        2 0.55175359E+00 0.34788389E+04</pdfrwt>
<pdfrwt beam="2">  1       -2 0.12978866E+00 0.34788389E+04</pdfrwt>
<totfact> 0.25301628E-01</totfact>
</mgrwt>
</event>
<event>
 6    1  0.1001928E-005  0.2810896E+04  0.7818608E-02  0.8299894E-01
         -1   -1    0    0    0  501 -0.00000000000E+00  0.00000000000E+00  0.17413350653E+04  0.17413350653E+04  0.00000000000E+00 0.  1.
          1   -1    0    0  501    0  0.00000000000E+00 -0.00000000000E+00 -0.11343503461E+04  0.11343503461E+04  0.00000000000E+00 0. -1.
         23    2    1    2    0    0  0.69883066874E+03 -0.71921737291E+03 -0.70145017847E+03  0.12271588527E+04  0.90821604858E+02 0.  0.
         11    1    3    3    0    0  0.21191163299E+03 -0.17461294040E+03 -0.15950866540E+03  0.31755193826E+03  0.00000000000E+00 0. -1.
        -11    1    3    3    0    0  0.48691903574E+03 -0.54460443251E+03 -0.54194151307E+03  0.90960691447E+03  0.00000000000E+00 0.  1.
         22    1    1    2    0    0 -0.69883066874E+03  0.71921737291E+03  0.13084348977E+04  0.16485265587E+04  0.00000000000E+00 0.  1.
<mgrwt>
<rscale>  0 0.28108960E+04</rscale>
<asrwt>0</asrwt>
<pdfrwt beam="1">  1        1 0.17451544E+00 0.28108960E+04</pdfrwt>
<pdfrwt beam="2">  1       -1 0.26789770E+00 0.28108960E+04</pdfrwt>
<totfact> 0.55097942E-01</totfact>
</mgrwt>
</event>
<event>
 6    1  0.1001928E-005  0.2751514E+04  0.7818608E-02  0.8318481E-01
          2   -1    0    0  501    0  0.00000000000E+00  0.00000000000E+00  0.18819565541E+04  0.18819565541E+04  0.00000000000E+00 0. -1.
         -2   -1    0    0    0  501 -0.00000000000E+00 -0.00000000000E+00 -0.10057126815E+04  0.10057126815E+04  0.00000000000E+00 0.  1.
         23    2    1    2    0    0  0.49153266261E+03  0.37465722931E+03  0.17267678635E+04  0.18363065688E+04  0.91225885799E+02 0.  0.
         11    1    3    3    0    0  0.15009471964E+03  0.11943559430E+03  0.66650263752E+03  0.69355537044E+03  0.00000000000E+00 0.  1.
        -11    1    3    3    0    0  0.34143794297E+03  0.25522163501E+03  0.10602652260E+04  0.11427511984E+04  0.00000000000E+00 0. -1.
         22    1    1    2    0    0 -0.49153266261E+03 -0.37465722931E+03 -0.85052399100E+03  0.10513626668E+04  0.00000000000E+00 0.  1.
<mgrwt>
<rscale>  0 0.27515142E+04</rscale>
<asrwt>0</asrwt>
<pdfrwt beam="1">  1        2 0.28953178E+00 0.27515142E+04</pdfrwt>
<pdfrwt beam="2">  1       -2 0.15472503E+00 0.27515142E+04</pdfrwt>
<totfact> 0.18727344E+00</totfact>
</mgrwt>
</event>
<event>
 6    1  0.1001928E-005  0.1271187E+04  0.7818608E-02  0.9052731E-01
          3   -1    0    0  501    0  0.00000000000E+00  0.00000000000E+00  0.11860450811E+04  0.11860450811E+04  0.00000000000E+00 0. -1.
         -3   -1    0    0    0  501 -0.00000000000E+00 -0.00000000000E+00 -0.34061028318E+03  0.34061028318E+03  0.00000000000E+00 0.  1.
         23    2    1    2    0    0 -0.18946485124E+03  0.21944729692E+01  0.11492163944E+04  0.11686260304E+04  0.95324351991E+02 0.  0.
         13    1    3    3    0    0 -0.97123497951E+01 -0.25381272519E+02  0.22945678772E+03  0.23106050326E+03  0.00000000000E+00 0.  1.
        -13    1    3    3    0    0 -0.17975250145E+03  0.27575745488E+02  0.91975960671E+03  0.93756552712E+03  0.00000000000E+00 0. -1.
         22    1    1    2    0    0  0.18946485124E+03 -0.21944729692E+01 -0.30378159650E+03  0.35802933391E+03  0.00000000000E+00 0.  1.
<mgrwt>
<rscale>  0 0.12711871E+04</rscale>
<asrwt>0</asrwt>
<pdfrwt beam="1">  1        3 0.18246847E+00 0.12711871E+04</pdfrwt>
<pdfrwt beam="2">  1       -3 0.52401582E-01 0.12711871E+04</pdfrwt>
<totfact> 0.17743136E+00</totfact>
</mgrwt>
</event>
<event>
 6    1  0.1001928E-005  0.2300216E+04  0.7818608E-02  0.8477836E-01
         -2   -1    0    0    0  501 -0.00000000000E+00  0.00000000000E+00  0.35801702591E+03  0.35801702591E+03  0.00000000000E+00 0.  1.
          2   -1    0    0  501    0  0.00000000000E+00 -0.00000000000E+00 -0.36946536676E+04  0.36946536676E+04  0.00000000000E+00 0. -1.
         23    2    1    2    0    0  0.10463597208E+04 -0.47336903949E+02 -0.84191280132E+03  0.13469810425E+04  0.91822198445E+02 0.  0.
         13    1    3    3    0    0  0.89473247756E+03 -0.65605412797E+02 -0.69240082153E+03  0.11332560056E+04  0.00000000000E+00 0. -1.
        -13    1    3    3    0    0  0.15162724323E+03  0.18268508848E+02 -0.14951197978E+03  0.21372503692E+03  0.00000000000E+00 0.  1.
         22    1    1    2    0    0 -0.10463597208E+04  0.47336903949E+02 -0.24947238403E+04  0.27056896509E+04  0.00000000000E+00 0. -1.
<mgrwt>
<rscale>  0 0.23002164E+04</rscale>
<asrwt>0</asrwt>
<pdfrwt beam="1">  1        2 0.56840822E+00 0.23002164E+04</pdfrwt>
<pdfrwt beam="2">  1       -2 0.55079546E-01 0.23002164E+04</pdfrwt>
<totfact> 0.16614723E+00</totfact>
</mgrwt>
</event>
<event>
 6    1  0.1001928E-005  0.4223764E+04  0.7818608E-02  0.7960867E-01
          2   -1    0    0  501    0  0.00000000000E+00  0.00000000000E+00  0.19312216632E+04  0.19312216632E+04  0.00000000000E+00 0. -1.
         -2   -1    0    0    0  501 -0.00000000000E+00 -0.00000000000E+00 -0.23094424455E+04  0.23094424455E+04  0.00000000000E+00 0.  1.
         23    2    1    2    0    0 -0.76051815693E+03  0.50206760146E+03 -0.21009428190E+04  0.22917590420E+04  0.87971782862E+02 0.  0.
         11    1    3    3    0    0 -0.31226244456E+03  0.16144451065E+03 -0.86057108482E+03  0.92959924502E+03  0.00000000000E+00 0. -1.
        -11    1    3    3    0    0 -0.44825571237E+03  0.34062309080E+03 -0.12403717341E+04  0.13621597970E+04  0.00000000000E+00 0.  1.
         22    1    1    2    0    0  0.76051815693E+03 -0.50206760146E+03  0.17227220367E+04  0.19489050668E+04  0.00000000000E+00 0. -1.
<mgrwt>
<rscale>  0 0.42237639E+04</rscale>
<asrwt>0</asrwt>
<pdfrwt beam="1">  1        2 0.29711103E+00 0.42237639E+04</pdfrwt>
<pdfrwt beam="2">  1       -2 0.35529884E+00 0.42237639E+04</pdfrwt>
<totfact> 0.81410072E-02</totfact>
</mgrwt>
</event>
<event>
 6    1  0.1001928E-005  0.2418590E+04  0.7818608E-02  0.8432576E-01
         -1   -1    0    0    0  501 -0.00000000000E+00  0.00000000000E+00  0.15567188979E+04  0.15567188979E+04  0.00000000000E+00 0.  1.
          1   -1    0    0  501    0  0.00000000000E+00 -0.00000000000E+00 -0.93940801465E+03  0.93940801465E+03  0.00000000000E+00 0. -1.
         23    2    1    2    0    0  0.11060678823E+04 -0.46572454715E+03  0.18600673566E+03  0.12208587910E+04  0.12494866035E+03 0.  0.
         11    1    3    3    0    0  0.12712825521E+03 -0.61214269932E+02  0.62979286035E+02  0.15451592341E+03  0.00000000000E+00 0. -1.
        -11    1    3    3    0    0  0.97893962711E+03 -0.40451027722E+03  0.12302744962E+03  0.10663428676E+04  0.00000000000E+00 0.  1.
         22    1    1    2    0    0 -0.11060678823E+04  0.46572454715E+03  0.43130414760E+03  0.12752681216E+04  0.00000000000E+00 0. -1.
<mgrwt>
<rscale>  0 0.24185898E+04</rscale>
<asrwt>0</asrwt>
<pdfrwt beam="1">  1        1 0.14452431E+00 0.24185898E+04</pdfrwt>
<pdfrwt beam="2">  1       -1 0.23949522E+00 0.24185898E+04</pdfrwt>
<totfact> 0.12353674E+00</totfact>
</mgrwt>
</event>
<event>
 6    1  0.1001928E-005  0.1360712E+04  0.7818608E-02  0.8982759E-01
         -2   -1    0    0    0  501 -0.00000000000E+00  0.00000000000E+00  0.51466763409E+03  0.51466763409E+03  0.00000000000E+00 0. -1.
          2   -1    0    0  501    0  0.00000000000E+00 -0.00000000000E+00 -0.89938513598E+03  0.89938513598E+03  0.00000000000E+00 0.  1.
         23    2    1    2    0    0 -0.65935207845E+03 -0.82438974920E+02 -0.57082001843E+02  0.67318411179E+03  0.91526747397E+02 0.  0.
         13    1    3    3    0    0 -0.44191685959E+03 -0.11629118982E+02 -0.35478729835E+02  0.44349124847E+03  0.00000000000E+00 0.  1.
        -13    1    3    3    0    0 -0.21743521886E+03 -0.70809855938E+02 -0.21603272008E+02  0.22969286332E+03  0.00000000000E+00 0. -1.
         22    1    1    2    0    0  0.65935207845E+03  0.82438974920E+02 -0.32763550004E+03  0.74086865829E+03  0.00000000000E+00 0. -1.
<mgrwt>
<rscale>  0 0.13607122E+04</rscale>
<asrwt>0</asrwt>
<pdfrwt beam="1">  1        2 0.13836694E+00 0.13607122E+04</pdfrwt>
<pdfrwt beam="2">  1       -2 0.79179637E-01 0.13607122E+04</pdfrwt>
<totfact> 0.40540041E+01</totfact>
</mgrwt>
</event>
<event>
 6    1  0.1001928E-005  0.4968251E+04  0.7818608E-02  0.7833423E-01
          2   -1    0    0  501    0  0.00000000000E+00  0.00000000000E+00  0.16159956434E+04  0.16159956434E+04  0.00000000000E+00 0. -1.
         -2   -1    0    0    0  501 -0.00000000000E+00 -0.00000000000E+00 -0.38186241526E+04  0.38186241526E+04  0.00000000000E+00 0.  1.
         23    2    1    2    0    0  0.72311979052E+03  0.96879899178E+02 -0.36982139260E+04  0.37705694106E+04  0.90108220896E+02 0.  0.
         11    1    3    3    0    0  0.53946997132E+03  0.51354275420E+02 -0.25589722339E+04  0.26157224634E+04  0.00000000000E+00 0.  1.
        -11    1    3    3    0    0  0.18364981920E+03  0.45525623758E+02 -0.11392416921E+04  0.11548469472E+04  0.00000000000E+00 0. -1.
         22    1    1    2    0    0 -0.72311979052E+03 -0.96879899178E+02  0.14955854168E+04  0.16640503854E+04  0.00000000000E+00 0. -1.
<mgrwt>
<rscale>  0 0.49682512E+04</rscale>
<asrwt>0</asrwt>
<pdfrwt beam="1">  1        2 0.24861472E+00 0.49682512E+04</pdfrwt>
<pdfrwt beam="2">  1       -2 0.58748063E+00 0.49682512E+04</pdfrwt>
<totfact> 0.45977646E-03</totfact>
</mgrwt>
</event>
<event>
 6    1  0.1001928E-005  0.2324767E+04  0.7818608E-02  0.8468219E-01
         -1   -1    0    0    0  501 -0.00000000000E+00  0.00000000000E+00  0.12321921980E+04  0.12321921980E+04  0.00000000000E+00 0.  1.
          1   -1    0    0  501    0  0.00000000000E+00 -0.00000000000E+00 -0.10965296139E+04  0.10965296139E+04  0.00000000000E+00 0. -1.
         23    2    1    2    0    0 -0.56022973418E+03 -0.78867257884E+03  0.71016262776E+03  0.12035942228E+04  0.91903773129E+02 0.  0.
         13    1    3    3    0    0 -0.38224798705E+03 -0.46616734657E+03  0.42107015148E+03  0.73534045930E+03  0.00000000000E+00 0.  1.
        -13    1    3    3    0    0 -0.17798174713E+03 -0.32250523227E+03  0.28909247628E+03  0.46825376346E+03  0.00000000000E+00 0. -1.
         22    1    1    2    0    0  0.56022973418E+03  0.78867257884E+03 -0.57450004363E+03  0.11251275891E+04  0.00000000000E+00 0.  1.
<mgrwt>
<rscale>  0 0.23247669E+04</rscale>
<asrwt>0</asrwt>
<pdfrwt beam="1">  1        1 0.16869686E+00 0.23247669E+04</pdfrwt>
<pdfrwt beam="2">  1       -1 0.18956803E+00 0.23247669E+04</pdfrwt>
<totfact> 0.20471966E+00</totfact>
</mgrwt>
</event>
<event>
 6    1  0.1001928E-005  0.1460272E+04  0.7818608E-02  0.8911310E-01
          1   -1    0    0  501    0  0.00000000000E+00  0.00000000000E+00  0.21089568929E+04  0.21089568929E+04  0.00000000000E+00 0. -1.
         -1   -1    0    0    0  501 -0.00000000000E+00 -0.00000000000E+00 -0.25277819656E+03  0.25277819656E+03  0.00000000000E+00 0.  1.
         23    2    1    2    0    0  0.23742279120E+03 -0.15439348882E+03  0.20151503604E+04  0.20369599039E+04  0.90375572317E+02 0.  0.
         11    1    3    3    0    0  0.69106257504E+02 -0.27121334589E+02  0.30816500545E+03  0.31698093349E+03  0.00000000000E+00 0.  1.
        -11    1    3    3    0    0  0.16831653370E+03 -0.12727215423E+03  0.17069853550E+04  0.17199789705E+04  0.00000000000E+00 0. -1.
         22    1    1    2    0    0 -0.23742279120E+03  0.15439348882E+03 -0.15897166405E+03  0.32477518554E+03  0.00000000000E+00 0.  1.
<mgrwt>
<rscale>  0 0.14602716E+04</rscale>
<asrwt>0</asrwt>
<pdfrwt beam="1">  1        1 0.32445489E+00 0.14602716E+04</pdfrwt>
<pdfrwt beam="2">  1       -1 0.38888955E-01 0.14602716E+04</pdfrwt>
<totfact> 0.15656146E+01</totfact>
</mgrwt>
</event>
<event>
 6    1  0.1001928E-005  0.3952060E+04  0.7818608E-02  0.8014288E-01
          2   -1    0    0  501    0  0.00000000000E+00  0.00000000000E+00  0.10731584538E+04  0.10731584538E+04  0.00000000000E+00 0. -1.
         -2   -1    0    0    0  501 -0.00000000000E+00 -0.00000000000E+00 -0.36385075927E+04  0.36385075927E+04  0.00000000000E+00 0.  1.
         23    2    1    2    0    0  0.67718094051E+03 -0.22337381152E+03 -0.34791274226E+04  0.35525885523E+04  0.89932827385E+02 0.  0.
         13    1    3    3    0    0  0.32667895306E+03 -0.14091790650E+03 -0.15705595589E+04  0.16103522356E+04  0.00000000000E+00 0.  1.
        -13    1    3    3    0    0  0.35050198746E+03 -0.82455905021E+02 -0.19085678637E+04  0.19422363166E+04  0.00000000000E+00 0. -1.
         22    1    1    2    0    0 -0.67718094051E+03  0.22337381152E+03  0.91377828368E+03  0.11590774942E+04  0.00000000000E+00 0. -1.
<mgrwt>
<rscale>  0 0.39520603E+04</rscale>
<asrwt>0</asrwt>
<pdfrwt beam="1">  1        2 0.16510130E+00 0.39520603E+04</pdfrwt>
<pdfrwt beam="2">  1       -2 0.55977040E+00 0.39520603E+04</pdfrwt>
<totfact> 0.13671710E-02</totfact>
</mgrwt>
</event>
<event>
 6    1  0.1001928E-005  0.1646095E+04  0.7818608E-02  0.8792720E-01
         -2   -1    0    0    0  501 -0.00000000000E+00  0.00000000000E+00  0.34795693064E+03  0.34795693064E+03  0.00000000000E+00 0.  1.
          2   -1    0    0  501    0  0.00000000000E+00 -0.00000000000E+00 -0.19468142809E+04  0.19468142809E+04  0.00000000000E+00 0. -1.
         23    2    1    2    0    0 -0.36805567454E+03  0.37915496254E+03  0.73645669681E+02  0.54077867538E+03  0.88286045911E+02 0.  0.
         13    1    3    3    0    0 -0.75222189511E+02  0.58577445688E+02 -0.17993427644E+02  0.97022978600E+02  0.00000000000E+00 0. -1.
        -13    1    3    3    0    0 -0.29283348503E+03  0.32057751685E+03  0.91639097325E+02  0.44375569678E+03  0.00000000000E+00 0.  1.
         22    1    1    2    0    0  0.36805567454E+03 -0.37915496254E+03 -0.16725030199E+04  0.17539925361E+04  0.00000000000E+00 0. -1.
<mgrwt>
<rscale>  0 0.16460954E+04</rscale>
<asrwt>0</asrwt>
<pdfrwt beam="1">  1        2 0.29950989E+00 0.16460954E+04</pdfrwt>
<pdfrwt beam="2">  1       -2 0.53531834E-01 0.16460954E+04</pdfrwt>
<totfact> 0.22476765E+01</totfact>
</mgrwt>
</event>
<event>
 6    1  0.1001928E-005  0.1451355E+04  0.7818608E-02  0.8917462E-01
         -1   -1    0    0    0  501 -0.00000000000E+00  0.00000000000E+00  0.17155308790E+04  0.17155308790E+04  0.00000000000E+00 0.  1.
          1   -1    0    0  501    0  0.00000000000E+00 -0.00000000000E+00 -0.30696494256E+03  0.30696494256E+03  0.00000000000E+00 0. -1.
         23    2    1    2    0    0  0.64789016537E+03 -0.11318074692E+03  0.28893307401E+03  0.72397770676E+03  0.89943597705E+02 0.  0.
         13    1    3    3    0    0  0.82218342481E+02  0.12585177153E+02  0.22419382528E+02  0.86144478856E+02  0.00000000000E+00 0. -1.
        -13    1    3    3    0    0  0.56567182289E+03 -0.12576592407E+03  0.26651369148E+03  0.63783322791E+03  0.00000000000E+00 0.  1.
         22    1    1    2    0    0 -0.64789016537E+03  0.11318074692E+03  0.11196328625E+04  0.12985181148E+04  0.00000000000E+00 0.  1.
<mgrwt>
<rscale>  0 0.14513550E+04</rscale>
<asrwt>0</asrwt>
<pdfrwt beam="1">  1        1 0.47225377E-01 0.14513550E+04</pdfrwt>
<pdfrwt beam="2">  1       -1 0.26392782E+00 0.14513550E+04</pdfrwt>
<totfact> 0.46808766E+00</totfact>
</mgrwt>
</event>
<event>
 6    1  0.1001928E-005  0.1316587E+04  0.7818608E-02  0.9016514E-01
         -2   -1    0    0    0  501 -0.00000000000E+00  0.00000000000E+00  0.63487070250E+03  0.63487070250E+03  0.00000000000E+00 0.  1.
          2   -1    0    0  501    0  0.00000000000E+00 -0.00000000000E+00 -0.68258009436E+03  0.68258009436E+03  0.00000000000E+00 0. -1.
         23    2    1    2    0    0  0.55770043204E+03 -0.24979746553E+02  0.31894509241E+03  0.64955164993E+03  0.92399211675E+02 0.  0.
         11    1    3    3    0    0  0.25961321807E+03 -0.50446667547E+02  0.17836756766E+03  0.31899667468E+03  0.00000000000E+00 0. -1.
        -11    1    3    3    0    0  0.29808721398E+03  0.25466920994E+02  0.14057752474E+03  0.33055497525E+03  0.00000000000E+00 0.  1.
         22    1    1    2    0    0 -0.55770043204E+03  0.24979746553E+02 -0.36665448427E+03  0.66789914693E+03  0.00000000000E+00 0.  1.
<mgrwt>
<rscale>  0 0.13165867E+04</rscale>
<asrwt>0</asrwt>
<pdfrwt beam="1">  1        2 0.10501232E+00 0.13165867E+04</pdfrwt>
<pdfrwt beam="2">  1       -2 0.97672415E-01 0.13165867E+04</pdfrwt>
<totfact> 0.36174034E+01</totfact>
</mgrwt>
</event>
<event>
 6    1  0.1692165E-005  0.2614130E+04  0.7818608E-02  0.8363417E-01
         -2   -1    0    0    0  501 -0.00000000000E+00  0.00000000000E+00  0.11284596643E+04  0.11284596643E+04  0.00000000000E+00 0.  1.
          2   -1    0    0  501    0  0.00000000000E+00 -0.00000000000E+00 -0.15139384181E+04  0.15139384181E+04  0.00000000000E+00 0. -1.
         23    2    1    2    0    0 -0.80239604954E+03  0.18553804310E+02 -0.12335070607E+04  0.14747784212E+04  0.96166828531E+02 0.  0.
         13    1    3    3    0    0 -0.26943165069E+03 -0.51708500455E+01 -0.49691874125E+03  0.56528611118E+03  0.00000000000E+00 0. -1.
        -13    1    3    3    0    0 -0.53296439885E+03  0.23724654355E+02 -0.73658831943E+03  0.90949231002E+03  0.00000000000E+00 0.  1.
         22    1    1    2    0    0  0.80239604954E+03 -0.18553804310E+02  0.84802830683E+03  0.11676196612E+04  0.00000000000E+00 0.  1.
<mgrwt>
<rscale>  0 0.26141296E+04</rscale>
<asrwt>0</asrwt>
<pdfrwt beam="1">  1        2 0.23291360E+00 0.26141296E+04</pdfrwt>
<pdfrwt beam="2">  1       -2 0.17360918E+00 0.26141296E+04</pdfrwt>
<totfact> 0.22136876E+00</totfact>
</mgrwt>
</event>
<event>
 6    1  0.1025808E-005  0.3154655E+04  0.7818608E-02  0.8200896E-01
          1   -1    0    0  501    0  0.00000000000E+00  0.00000000000E+00  0.25251813753E+04  0.25251813753E+04  0.00000000000E+00 0. -1.
         -1   -1    0    0    0  501 -0.00000000000E+00 -0.00000000000E+00 -0.98526103929E+03  0.98526103929E+03  0.00000000000E+00 0.  1.
         23    2    1    2    0    0 -0.55319058712E+03 -0.32785429891E+02 -0.87101873129E+03  0.10366352482E+04  0.94044125407E+02 0.  0.
         13    1    3    3    0    0 -0.33811685219E+03 -0.32958815718E+02 -0.44969071008E+03  0.56358763649E+03  0.00000000000E+00 0.  1.
        -13    1    3    3    0    0 -0.21507373493E+03  0.17338582698E+00 -0.42132802121E+03  0.47304761174E+03  0.00000000000E+00 0. -1.
         22    1    1    2    0    0  0.55319058712E+03  0.32785429891E+02  0.24109390673E+04  0.24738071664E+04  0.00000000000E+00 0. -1.
<mgrwt>
<rscale>  0 0.31546555E+04</rscale>
<asrwt>0</asrwt>
<pdfrwt beam="1">  1        1 0.38848944E+00 0.31546555E+04</pdfrwt>
<pdfrwt beam="2">  1       -1 0.15157862E+00 0.31546555E+04</pdfrwt>
<totfact> 0.37052535E-01</totfact>
</mgrwt>
</event>
<event>
 6    1  0.1001928E-005  0.3499024E+04  0.7818608E-02  0.8114021E-01
          2   -1    0    0  501    0  0.00000000000E+00  0.00000000000E+00  0.17918940909E+04  0.17918940909E+04  0.00000000000E+00 0. -1.
         -2   -1    0    0    0  501 -0.00000000000E+00 -0.00000000000E+00 -0.17081324741E+04  0.17081324741E+04  0.00000000000E+00 0.  1.
         23    2    1    2    0    0  0.54798592996E+03  0.16539252237E+04 -0.10281888776E+03  0.17477225076E+04  0.90581537019E+02 0.  0.
         11    1    3    3    0    0  0.28977894868E+03  0.79581144436E+03 -0.87914538592E+02  0.85147910143E+03  0.00000000000E+00 0. -1.
        -11    1    3    3    0    0  0.25820698129E+03  0.85811377931E+03 -0.14904349167E+02  0.89624340614E+03  0.00000000000E+00 0.  1.
         22    1    1    2    0    0 -0.54798592996E+03 -0.16539252237E+04  0.18658050452E+03  0.17523040574E+04  0.00000000000E+00 0. -1.
<mgrwt>
<rscale>  0 0.34990241E+04</rscale>
<asrwt>0</asrwt>
<pdfrwt beam="1">  1        2 0.27567601E+00 0.34990241E+04</pdfrwt>
<pdfrwt beam="2">  1       -2 0.26278961E+00 0.34990241E+04</pdfrwt>
<totfact> 0.38435625E-01</totfact>
</mgrwt>
</event>
<event>
 6    1  0.1001928E-005  0.1622929E+04  0.7818608E-02  0.8806585E-01
         -2   -1    0    0    0  501 -0.00000000000E+00  0.00000000000E+00  0.29358127128E+03  0.29358127128E+03  0.00000000000E+00 0.  1.
          2   -1    0    0  501    0  0.00000000000E+00 -0.00000000000E+00 -0.22429032929E+04  0.22429032929E+04  0.00000000000E+00 0. -1.
         23    2    1    2    0    0 -0.24671084219E+03  0.44136110317E+03 -0.19645566971E+04  0.20306209873E+04  0.90954464939E+02 0.  0.
         11    1    3    3    0    0 -0.18778067603E+03  0.24470519533E+03 -0.11826395827E+04  0.12222023553E+04  0.00000000000E+00 0.  1.
        -11    1    3    3    0    0 -0.58930166157E+02  0.19665590785E+03 -0.78191711447E+03  0.80841863195E+03  0.00000000000E+00 0. -1.
         22    1    1    2    0    0  0.24671084219E+03 -0.44136110317E+03  0.15234675563E+02  0.50586357686E+03  0.00000000000E+00 0.  1.
<mgrwt>
<rscale>  0 0.16229287E+04</rscale>
<asrwt>0</asrwt>
<pdfrwt beam="1">  1        2 0.34506205E+00 0.16229287E+04</pdfrwt>
<pdfrwt beam="2">  1       -2 0.45166349E-01 0.16229287E+04</pdfrwt>
<totfact> 0.21752288E+01</totfact>
</mgrwt>
</event>
<event>
 6    1  0.1001928E-005  0.1131396E+04  0.7818608E-02  0.9175120E-01
          2   -1    0    0  501    0  0.00000000000E+00  0.00000000000E+00  0.29833527372E+03  0.29833527372E+03  0.00000000000E+00 0. -1.
         -2   -1    0    0    0  501 -0.00000000000E+00 -0.00000000000E+00 -0.10726664999E+04  0.10726664999E+04  0.00000000000E+00 0.  1.
         23    2    1    2    0    0 -0.26519161981E+03  0.29083955262E+03  0.96619746562E+02  0.41524561355E+03  0.90439502238E+02 0.  0.
         11    1    3    3    0    0 -0.18115826819E+03  0.15727889991E+03  0.93309622718E+02  0.25741339550E+03  0.00000000000E+00 0.  1.
        -11    1    3    3    0    0 -0.84033351626E+02  0.13356065271E+03  0.33101238436E+01  0.15783221806E+03  0.00000000000E+00 0. -1.
         22    1    1    2    0    0  0.26519161981E+03 -0.29083955262E+03 -0.87095097271E+03  0.95575616004E+03  0.00000000000E+00 0.  1.
<mgrwt>
<rscale>  0 0.11313960E+04</rscale>
<asrwt>0</asrwt>
<pdfrwt beam="1">  1        2 0.45897734E-01 0.11313960E+04</pdfrwt>
<pdfrwt beam="2">  1       -2 0.16502562E+00 0.11313960E+04</pdfrwt>
<totfact> 0.25306900E+01</totfact>
</mgrwt>
</event>
<event>
 6    1  0.1001928E-005  0.1220563E+04  0.7818608E-02  0.9095046E-01
         -1   -1    0    0    0  501 -0.00000000000E+00  0.00000000000E+00  0.68871035352E+03  0.68871035352E+03  0.00000000000E+00 0.  1.
          1   -1    0    0  501    0  0.00000000000E+00 -0.00000000000E+00 -0.54078390659E+03  0.54078390659E+03  0.00000000000E+00 0. -1.
         23    2    1    2    0    0  0.12289229183E+03  0.24545820849E+03 -0.47065463567E+03  0.55274112695E+03  0.93030746719E+02 0.  0.
         13    1    3    3    0    0  0.82617034125E+02  0.79463715826E+02 -0.14334797372E+03  0.18354481205E+03  0.00000000000E+00 0. -1.
        -13    1    3    3    0    0  0.40275257704E+02  0.16599449267E+03 -0.32730666194E+03  0.36919631489E+03  0.00000000000E+00 0.  1.
         22    1    1    2    0    0 -0.12289229183E+03 -0.24545820849E+03  0.61858108259E+03  0.67675313316E+03  0.00000000000E+00 0.  1.
<mgrwt>
<rscale>  0 0.12205629E+04</rscale>
<asrwt>0</asrwt>
<pdfrwt beam="1">  1        1 0.83197524E-01 0.12205629E+04</pdfrwt>
<pdfrwt beam="2">  1       -1 0.10595544E+00 0.12205629E+04</pdfrwt>
<totfact> 0.32743117E+01</totfact>
</mgrwt>
</event>
<event>
 6    1  0.1001928E-005  0.4841762E+03  0.7818608E-02  0.1017994E+00
         -2   -1    0    0    0  501 -0.00000000000E+00  0.00000000000E+00  0.12131499679E+03  0.12131499679E+03  0.00000000000E+00 0.  1.
          2   -1    0    0  501    0  0.00000000000E+00 -0.00000000000E+00 -0.48309485137E+03  0.48309485137E+03  0.00000000000E+00 0. -1.
         23    2    1    2    0    0 -0.11905408779E+03 -0.19608996360E+03 -0.24687955059E+03  0.34784167106E+03  0.86134580605E+02 0.  0.
         11    1    3    3    0    0 -0.12997305802E+03 -0.15444460173E+03 -0.20770481476E+03  0.28963325239E+03  0.00000000000E+00 0. -1.
        -11    1    3    3    0    0  0.10918970226E+02 -0.41645361868E+02 -0.39174735832E+02  0.58208418664E+02  0.00000000000E+00 0.  1.
         22    1    1    2    0    0  0.11905408779E+03  0.19608996360E+03 -0.11490030398E+03  0.25656817710E+03  0.00000000000E+00 0.  1.
<mgrwt>
<rscale>  0 0.48417621E+03</rscale>
<asrwt>0</asrwt>
<pdfrwt beam="1">  1        2 0.74322284E-01 0.48417621E+03</pdfrwt>
<pdfrwt beam="2">  1       -2 0.18663846E-01 0.48417621E+03</pdfrwt>
<totfact> 0.15403679E+03</totfact>
</mgrwt>
</event>
<event>
 6    1  0.1001928E-005  0.2270799E+04  0.7818608E-02  0.8489525E-01
         -1   -1    0    0    0  501 -0.00000000000E+00  0.00000000000E+00  0.10164028754E+04  0.10164028754E+04  0.00000000000E+00 0.  1.
          1   -1    0    0  501    0  0.00000000000E+00 -0.00000000000E+00 -0.12683275582E+04  0.12683275582E+04  0.00000000000E+00 0. -1.
         23    2    1    2    0    0  0.45322764447E+02  0.10876554303E+04  0.19208600847E+03  0.11090629713E+04  0.89861848237E+02 0.  0.
         11    1    3    3    0    0  0.27034921787E+02  0.60080103032E+03  0.60726358925E+02  0.60446708405E+03  0.00000000000E+00 0. -1.
        -11    1    3    3    0    0  0.18287842660E+02  0.48685439994E+03  0.13135964955E+03  0.50459588728E+03  0.00000000000E+00 0.  1.
         22    1    1    2    0    0 -0.45322764447E+02 -0.10876554303E+04 -0.44401069119E+03  0.11756674623E+04  0.00000000000E+00 0. -1.
<mgrwt>
<rscale>  0 0.22707988E+04</rscale>
<asrwt>0</asrwt>
<pdfrwt beam="1">  1        1 0.19512732E+00 0.22707988E+04</pdfrwt>
<pdfrwt beam="2">  1       -1 0.15636967E+00 0.22707988E+04</pdfrwt>
<totfact> 0.26906273E+00</totfact>
</mgrwt>
</event>
<event>
 6    1  0.1001928E-005  0.2393891E+04  0.7818608E-02  0.8441794E-01
         -2   -1    0    0    0  501 -0.00000000000E+00  0.00000000000E+00  0.65575067025E+03  0.65575067025E+03  0.00000000000E+00 0.  1.
          2   -1    0    0  501    0  0.00000000000E+00 -0.00000000000E+00 -0.21847914364E+04  0.21847914364E+04  0.00000000000E+00 0. -1.
         23    2    1    2    0    0  0.40923231596E+03  0.26533755020E+01 -0.20980951216E+04  0.21396134453E+04  0.92002322543E+02 0.  0.
         11    1    3    3    0    0  0.29691021922E+02 -0.83407667449E+01 -0.31690516702E+03  0.31840227709E+03  0.00000000000E+00 0.  1.
        -11    1    3    3    0    0  0.37954129404E+03  0.10994142247E+02 -0.17811899545E+04  0.18212111682E+04  0.00000000000E+00 0. -1.
         22    1    1    2    0    0 -0.40923231596E+03 -0.26533755020E+01  0.56905435544E+03  0.70092866133E+03  0.00000000000E+00 0.  1.
<mgrwt>
<rscale>  0 0.23938909E+04</rscale>
<asrwt>0</asrwt>
<pdfrwt beam="1">  1        2 0.33612176E+00 0.23938909E+04</pdfrwt>
<pdfrwt beam="2">  1       -2 0.10088472E+00 0.23938909E+04</pdfrwt>
<totfact> 0.38322047E+00</totfact>
</mgrwt>
</event>
<event>
 6    1  0.1001928E-005  0.1033309E+04  0.7818608E-02  0.9272748E-01
          1   -1    0    0  501    0  0.00000000000E+00  0.00000000000E+00  0.58886945475E+03  0.58886945475E+03  0.00000000000E+00 0. -1.
         -1   -1    0    0    0  501 -0.00000000000E+00 -0.00000000000E+00 -0.45329593246E+03  0.45329593246E+03  0.00000000000E+00 0.  1.
         23    2    1    2    0    0  0.22732019324E+03  0.22912266137E+03 -0.33337551034E+03  0.47288087187E+03  0.91134098339E+02 0.  0.
         13    1    3    3    0    0  0.72196004472E+02  0.83248881488E+02 -0.57225526840E+02  0.12416682428E+03  0.00000000000E+00 0.  1.
        -13    1    3    3    0    0  0.15512418876E+03  0.14587377988E+03 -0.27614998350E+03  0.34871404758E+03  0.00000000000E+00 0. -1.
         22    1    1    2    0    0 -0.22732019324E+03 -0.22912266137E+03  0.46894903263E+03  0.56928451534E+03  0.00000000000E+00 0. -1.
<mgrwt>
<rscale>  0 0.10333095E+04</rscale>
<asrwt>0</asrwt>
<pdfrwt beam="1">  1        1 0.90595301E-01 0.10333095E+04</pdfrwt>
<pdfrwt beam="2">  1       -1 0.69737836E-01 0.10333095E+04</pdfrwt>
<totfact> 0.73241780E+01</totfact>
</mgrwt>
</event>
<event>
 6    1  0.1001928E-005  0.2812508E+04  0.7818608E-02  0.8299396E-01
          1   -1    0    0  501    0  0.00000000000E+00  0.00000000000E+00  0.48241286545E+04  0.48241286545E+04  0.00000000000E+00 0. -1.
         -1   -1    0    0    0  501 -0.00000000000E+00 -0.00000000000E+00 -0.40992906378E+03  0.40992906378E+03  0.00000000000E+00 0.  1.
         23    2    1    2    0    0 -0.13848150842E+04  0.18376036884E+03  0.19352655679E+04  0.23886061584E+04  0.93305256576E+02 0.  0.
         11    1    3    3    0    0 -0.47051543081E+03  0.68198341461E+02  0.58515255170E+03  0.75394913168E+03  0.00000000000E+00 0.  1.
        -11    1    3    3    0    0 -0.91429965336E+03  0.11556202738E+03  0.13501130162E+04  0.16346570267E+04  0.00000000000E+00 0. -1.
         22    1    1    2    0    0  0.13848150842E+04 -0.18376036884E+03  0.24789340228E+04  0.28454515599E+04  0.00000000000E+00 0. -1.
<mgrwt>
<rscale>  0 0.28125082E+04</rscale>
<asrwt>0</asrwt>
<pdfrwt beam="1">  1        1 0.74217360E+00 0.28125082E+04</pdfrwt>
<pdfrwt beam="2">  1       -1 0.63066013E-01 0.28125082E+04</pdfrwt>
<totfact> 0.31397387E-02</totfact>
</mgrwt>
</event>
<event>
 6    1  0.1001928E-005  0.2787960E+04  0.7818608E-02  0.8307016E-01
         -2   -1    0    0    0  501 -0.00000000000E+00  0.00000000000E+00  0.17434973225E+04  0.17434973225E+04  0.00000000000E+00 0.  1.
          2   -1    0    0  501    0  0.00000000000E+00 -0.00000000000E+00 -0.11145299797E+04  0.11145299797E+04  0.00000000000E+00 0. -1.
         23    2    1    2    0    0 -0.13392118367E+02  0.56206162497E+03  0.16207989461E+04  0.17179296974E+04  0.90557176670E+02 0.  0.
         13    1    3    3    0    0 -0.28056136784E+02  0.46098197600E+03  0.12250548268E+04  0.13092176510E+04  0.00000000000E+00 0.  1.
        -13    1    3    3    0    0  0.14664018418E+02  0.10107964897E+03  0.39574411934E+03  0.40871204639E+03  0.00000000000E+00 0. -1.
         22    1    1    2    0    0  0.13392118367E+02 -0.56206162497E+03 -0.99183160331E+03  0.11400976048E+04  0.00000000000E+00 0. -1.
<mgrwt>
<rscale>  0 0.27879599E+04</rscale>
<asrwt>0</asrwt>
<pdfrwt beam="1">  1        2 0.17146615E+00 0.27879599E+04</pdfrwt>
<pdfrwt beam="2">  1       -2 0.26823036E+00 0.27879599E+04</pdfrwt>
<totfact> 0.92362024E-01</totfact>
</mgrwt>
</event>
<event>
 6    1  0.1001928E-005  0.1293648E+04  0.7818608E-02  0.9034618E-01
         -1   -1    0    0    0  501 -0.00000000000E+00  0.00000000000E+00  0.17459805698E+04  0.17459805698E+04  0.00000000000E+00 0.  1.
          1   -1    0    0  501    0  0.00000000000E+00 -0.00000000000E+00 -0.23962523334E+03  0.23962523334E+03  0.00000000000E+00 0. -1.
         23    2    1    2    0    0 -0.51124820594E+03  0.35168755371E+03  0.10190987315E+04  0.11966331404E+04  0.91158019824E+02 0.  0.
         13    1    3    3    0    0 -0.31763878694E+03  0.27060812028E+03  0.67495524303E+03  0.79352865974E+03  0.00000000000E+00 0. -1.
        -13    1    3    3    0    0 -0.19360941900E+03  0.81079433427E+02  0.34414348845E+03  0.40310448061E+03  0.00000000000E+00 0.  1.
         22    1    1    2    0    0  0.51124820594E+03 -0.35168755371E+03  0.48725660495E+03  0.78897266276E+03  0.00000000000E+00 0. -1.
<mgrwt>
<rscale>  0 0.12936476E+04</rscale>
<asrwt>0</asrwt>
<pdfrwt beam="1">  1        1 0.36865422E-01 0.12936476E+04</pdfrwt>
<pdfrwt beam="2">  1       -1 0.26861239E+00 0.12936476E+04</pdfrwt>
<totfact> 0.61103196E+00</totfact>
</mgrwt>
</event>
<event>
 6    1  0.1001928E-005  0.9260541E+03  0.7818608E-02  0.9393586E-01
          2   -1    0    0  501    0  0.00000000000E+00  0.00000000000E+00  0.14869080500E+04  0.14869080500E+04  0.00000000000E+00 0. -1.
         -2   -1    0    0    0  501 -0.00000000000E+00 -0.00000000000E+00 -0.14418783321E+03  0.14418783321E+03  0.00000000000E+00 0.  1.
         23    2    1    2    0    0 -0.41748817172E+03 -0.17734042409E+03  0.79404737111E+03  0.91920551866E+03  0.93174880906E+02 0.  0.
         11    1    3    3    0    0 -0.22112521104E+03 -0.12176473767E+03  0.51452370691E+03  0.57311225363E+03  0.00000000000E+00 0. -1.
        -11    1    3    3    0    0 -0.19636296069E+03 -0.55575686420E+02  0.27952366420E+03  0.34609326503E+03  0.00000000000E+00 0.  1.
         22    1    1    2    0    0  0.41748817172E+03  0.17734042409E+03  0.54867284570E+03  0.71189036456E+03  0.00000000000E+00 0. -1.
<mgrwt>
<rscale>  0 0.92605410E+03</rscale>
<asrwt>0</asrwt>
<pdfrwt beam="1">  1        2 0.22875507E+00 0.92605410E+03</pdfrwt>
<pdfrwt beam="2">  1       -2 0.22182745E-01 0.92605410E+03</pdfrwt>
<totfact> 0.23000305E+02</totfact>
</mgrwt>
</event>
<event>
 6    1  0.1001928E-005  0.2249995E+04  0.7818608E-02  0.8497903E-01
         -1   -1    0    0    0  501 -0.00000000000E+00  0.00000000000E+00  0.16477329035E+04  0.16477329035E+04  0.00000000000E+00 0.  1.
          1   -1    0    0  501    0  0.00000000000E+00 -0.00000000000E+00 -0.76809743959E+03  0.76809743959E+03  0.00000000000E+00 0. -1.
         23    2    1    2    0    0  0.56543212134E+02 -0.95206565643E+03  0.10773829879E+04  0.14418025036E+04  0.91728991037E+02 0.  0.
         11    1    3    3    0    0  0.91945131199E+01 -0.27735944354E+03  0.37723572239E+03  0.46831569506E+03  0.00000000000E+00 0. -1.
        -11    1    3    3    0    0  0.47348699014E+02 -0.67470621289E+03  0.70014726548E+03  0.97348680853E+03  0.00000000000E+00 0.  1.
         22    1    1    2    0    0 -0.56543212134E+02  0.95206565643E+03 -0.19774752392E+03  0.97402783955E+03  0.00000000000E+00 0. -1.
<mgrwt>
<rscale>  0 0.22499950E+04</rscale>
<asrwt>0</asrwt>
<pdfrwt beam="1">  1        1 0.11816884E+00 0.22499950E+04</pdfrwt>
<pdfrwt beam="2">  1       -1 0.25349737E+00 0.22499950E+04</pdfrwt>
<totfact> 0.14165857E+00</totfact>
</mgrwt>
</event>
<event>
 6    1  0.1001928E-005  0.1398644E+04  0.7818608E-02  0.8954800E-01
         -1   -1    0    0    0  501 -0.00000000000E+00  0.00000000000E+00  0.51102058270E+03  0.51102058270E+03  0.00000000000E+00 0.  1.
          1   -1    0    0  501    0  0.00000000000E+00 -0.00000000000E+00 -0.95700945683E+03  0.95700945683E+03  0.00000000000E+00 0. -1.
         23    2    1    2    0    0  0.45213113042E+03  0.17404330329E+03 -0.74895639304E+03  0.89662567480E+03  0.91040054483E+02 0.  0.
         11    1    3    3    0    0  0.26281127825E+03  0.14319132888E+03 -0.41797834958E+03  0.51408114666E+03  0.00000000000E+00 0. -1.
        -11    1    3    3    0    0  0.18931985217E+03  0.30851974408E+02 -0.33097804347E+03  0.38254452814E+03  0.00000000000E+00 0.  1.
         22    1    1    2    0    0 -0.45213113042E+03 -0.17404330329E+03  0.30296751891E+03  0.57140436473E+03  0.00000000000E+00 0.  1.
<mgrwt>
<rscale>  0 0.13986444E+04</rscale>
<asrwt>0</asrwt>
<pdfrwt beam="1">  1        1 0.14723222E+00 0.13986444E+04</pdfrwt>
<pdfrwt beam="2">  1       -1 0.78618553E-01 0.13986444E+04</pdfrwt>
<totfact> 0.25836177E+01</totfact>
</mgrwt>
</event>
<event>
 6    1  0.1001928E-005  0.4751873E+04  0.7818608E-02  0.7867966E-01
         -2   -1    0    0    0  501 -0.00000000000E+00  0.00000000000E+00  0.25859155182E+04  0.25859155182E+04  0.00000000000E+00 0.  1.
          2   -1    0    0  501    0  0.00000000000E+00 -0.00000000000E+00 -0.21830083691E+04  0.21830083691E+04  0.00000000000E+00 0. -1.
         23    2    1    2    0    0 -0.95958128403E+03 -0.62811775770E+03  0.22887220934E+04  0.25617478267E+04  0.94736205960E+02 0.  0.
         11    1    3    3    0    0 -0.84670084733E+03 -0.51544721299E+03  0.19787591832E+04  0.22131597456E+04  0.00000000000E+00 0. -1.
        -11    1    3    3    0    0 -0.11288043671E+03 -0.11267054471E+03  0.30996291013E+03  0.34858808111E+03  0.00000000000E+00 0.  1.
         22    1    1    2    0    0  0.95958128403E+03  0.62811775770E+03 -0.18858149443E+04  0.22071760605E+04  0.00000000000E+00 0. -1.
<mgrwt>
<rscale>  0 0.47518734E+04</rscale>
<asrwt>0</asrwt>
<pdfrwt beam="1">  1        2 0.33584744E+00 0.47518734E+04</pdfrwt>
<pdfrwt beam="2">  1       -2 0.39783316E+00 0.47518734E+04</pdfrwt>
<totfact> 0.30068514E-02</totfact>
</mgrwt>
</event>
<event>
 6    1  0.1001928E-005  0.3339572E+04  0.7818608E-02  0.8152899E-01
         -2   -1    0    0    0  501 -0.00000000000E+00  0.00000000000E+00  0.19089788988E+04  0.19089788988E+04  0.00000000000E+00 0.  1.
          2   -1    0    0  501    0  0.00000000000E+00 -0.00000000000E+00 -0.14605641322E+04  0.14605641322E+04  0.00000000000E+00 0. -1.
         23    2    1    2    0    0  0.62977889917E+03  0.23564224128E+03  0.17651788675E+04  0.18910247101E+04  0.89270892097E+02 0.  0.
         13    1    3    3    0    0  0.22805475711E+03  0.10245269820E+03  0.54721486921E+03  0.60162250681E+03  0.00000000000E+00 0.  1.
        -13    1    3    3    0    0  0.40172414206E+03  0.13318954308E+03  0.12179639983E+04  0.12894022033E+04  0.00000000000E+00 0. -1.
         22    1    1    2    0    0 -0.62977889917E+03 -0.23564224128E+03 -0.13167641010E+04  0.14785183209E+04  0.00000000000E+00 0. -1.
<mgrwt>
<rscale>  0 0.33395725E+04</rscale>
<asrwt>0</asrwt>
<pdfrwt beam="1">  1        2 0.22470217E+00 0.33395725E+04</pdfrwt>
<pdfrwt beam="2">  1       -2 0.29368906E+00 0.33395725E+04</pdfrwt>
<totfact> 0.38646421E-01</totfact>
</mgrwt>
</event>
<event>
 6    1  0.1001928E-005  0.2364247E+04  0.7818608E-02  0.8453012E-01
          2   -1    0    0  501    0  0.00000000000E+00  0.00000000000E+00  0.18025418124E+04  0.18025418124E+04  0.00000000000E+00 0. -1.
         -2   -1    0    0    0  501 -0.00000000000E+00 -0.00000000000E+00 -0.77524739348E+03  0.77524739348E+03  0.00000000000E+00 0.  1.
         23    2    1    2    0    0 -0.83800262937E+03  0.40423935218E+02 -0.39068625509E+03  0.93019954422E+03  0.93557152463E+02 0.  0.
         13    1    3    3    0    0 -0.11397840196E+03  0.31595562166E+02 -0.34189062495E+02  0.12311883551E+03  0.00000000000E+00 0.  1.
        -13    1    3    3    0    0 -0.72402422741E+03  0.88283730514E+01 -0.35649719259E+03  0.80708070872E+03  0.00000000000E+00 0. -1.
         22    1    1    2    0    0  0.83800262937E+03 -0.40423935218E+02  0.14179806740E+04  0.16475896617E+04  0.00000000000E+00 0. -1.
<mgrwt>
<rscale>  0 0.23642469E+04</rscale>
<asrwt>0</asrwt>
<pdfrwt beam="1">  1        2 0.27731412E+00 0.23642469E+04</pdfrwt>
<pdfrwt beam="2">  1       -2 0.11926883E+00 0.23642469E+04</pdfrwt>
<totfact> 0.41822556E+00</totfact>
</mgrwt>
</event>
<event>
 6    1  0.1001928E-005  0.2743984E+04  0.7818608E-02  0.8320873E-01
         -2   -1    0    0    0  501 -0.00000000000E+00  0.00000000000E+00  0.71060140656E+03  0.71060140656E+03  0.00000000000E+00 0.  1.
          2   -1    0    0  501    0  0.00000000000E+00 -0.00000000000E+00 -0.26489697771E+04  0.26489697771E+04  0.00000000000E+00 0. -1.
         23    2    1    2    0    0 -0.18466257607E+03 -0.10146969316E+04 -0.20752159137E+04  0.23191686749E+04  0.91170851287E+02 0.  0.
         13    1    3    3    0    0 -0.15416041709E+03 -0.69513419746E+03 -0.13563164550E+04  0.15318522490E+04  0.00000000000E+00 0.  1.
        -13    1    3    3    0    0 -0.30502158983E+02 -0.31956273417E+03 -0.71889945874E+03  0.78731642593E+03  0.00000000000E+00 0. -1.
         22    1    1    2    0    0  0.18466257607E+03  0.10146969316E+04  0.13684754321E+03  0.10404025087E+04  0.00000000000E+00 0.  1.
<mgrwt>
<rscale>  0 0.27439837E+04</rscale>
<asrwt>0</asrwt>
<pdfrwt beam="1">  1        2 0.40753381E+00 0.27439837E+04</pdfrwt>
<pdfrwt beam="2">  1       -2 0.10932330E+00 0.27439837E+04</pdfrwt>
<totfact> 0.16595119E+00</totfact>
</mgrwt>
</event>
<event>
 6    1  0.1001928E-005  0.2831535E+04  0.7818608E-02  0.8293544E-01
         -1   -1    0    0    0  501 -0.00000000000E+00  0.00000000000E+00  0.10502584638E+04  0.10502584638E+04  0.00000000000E+00 0.  1.
          1   -1    0    0  501    0  0.00000000000E+00 -0.00000000000E+00 -0.19084801648E+04  0.19084801648E+04  0.00000000000E+00 0. -1.
         23    2    1    2    0    0  0.73797187307E+03 -0.11560149678E+04 -0.78999167041E+03  0.15855567658E+04  0.94500407804E+02 0.  0.
         11    1    3    3    0    0  0.71807706932E+02 -0.14698088610E+03 -0.12316287577E+03  0.20476528422E+03  0.00000000000E+00 0. -1.
        -11    1    3    3    0    0  0.66616416614E+03 -0.10090340817E+04 -0.66682879464E+03  0.13807914816E+04  0.00000000000E+00 0.  1.
         22    1    1    2    0    0 -0.73797187307E+03  0.11560149678E+04 -0.68230030514E+02  0.13731818628E+04  0.00000000000E+00 0.  1.
<mgrwt>
<rscale>  0 0.28315349E+04</rscale>
<asrwt>0</asrwt>
<pdfrwt beam="1">  1        1 0.29361233E+00 0.28315349E+04</pdfrwt>
<pdfrwt beam="2">  1       -1 0.16157823E+00 0.28315349E+04</pdfrwt>
<totfact> 0.84397607E-01</totfact>
</mgrwt>
</event>
<event>
 6    1  0.1001928E-005  0.2113518E+04  0.7818608E-02  0.8555312E-01
         -2   -1    0    0    0  501 -0.00000000000E+00  0.00000000000E+00  0.58846372937E+03  0.58846372937E+03  0.00000000000E+00 0.  1.
          2   -1    0    0  501    0  0.00000000000E+00 -0.00000000000E+00 -0.18977207415E+04  0.18977207415E+04  0.00000000000E+00 0. -1.
         23    2    1    2    0    0 -0.30625107145E+03  0.87475330092E+03 -0.12483584895E+04  0.15573724951E+04  0.89594162950E+02 0.  0.
         13    1    3    3    0    0 -0.19164821260E+03  0.64966994659E+03 -0.94381651742E+03  0.11617184235E+04  0.00000000000E+00 0. -1.
        -13    1    3    3    0    0 -0.11460285885E+03  0.22508335433E+03 -0.30454197209E+03  0.39565407166E+03  0.00000000000E+00 0.  1.
         22    1    1    2    0    0  0.30625107145E+03 -0.87475330092E+03 -0.60898522629E+02  0.92881197575E+03  0.00000000000E+00 0.  1.
<mgrwt>
<rscale>  0 0.21135182E+04</rscale>
<asrwt>0</asrwt>
<pdfrwt beam="1">  1        2 0.29195703E+00 0.21135182E+04</pdfrwt>
<pdfrwt beam="2">  1       -2 0.90532882E-01 0.21135182E+04</pdfrwt>
<totfact> 0.73078512E+00</totfact>
</mgrwt>
</event>
<event>
 6    1  0.1001928E-005  0.1627360E+04  0.7818608E-02  0.8803914E-01
         -3   -1    0    0    0  501 -0.00000000000E+00  0.00000000000E+00  0.15445605330E+04  0.15445605330E+04  0.00000000000E+00 0.  1.
          3   -1    0    0  501    0  0.00000000000E+00 -0.00000000000E+00 -0.42864973768E+03  0.42864973768E+03  0.00000000000E+00 0. -1.
         23    2    1    2    0    0  0.21578952956E+03 -0.52049150145E+03  0.12671813467E+04  0.13898070620E+04  0.91315825328E+02 0.  0.
         11    1    3    3    0    0  0.16397553324E+03 -0.31295170267E+03  0.71195658215E+03  0.79480118179E+03  0.00000000000E+00 0.  1.
        -11    1    3    3    0    0  0.51813996321E+02 -0.20753979879E+03  0.55522476458E+03  0.59500588022E+03  0.00000000000E+00 0. -1.
         22    1    1    2    0    0 -0.21578952956E+03  0.52049150145E+03 -0.15127055142E+03  0.58340320866E+03  0.00000000000E+00 0. -1.
<mgrwt>
<rscale>  0 0.16273604E+04</rscale>
<asrwt>0</asrwt>
<pdfrwt beam="1">  1        3 0.65946114E-01 0.16273604E+04</pdfrwt>
<pdfrwt beam="2">  1       -3 0.23762469E+00 0.16273604E+04</pdfrwt>
<totfact> 0.48088844E-01</totfact>
</mgrwt>
</event>
<event>
 6    1  0.1001928E-005  0.2940213E+04  0.7818608E-02  0.8261012E-01
         -2   -1    0    0    0  501 -0.00000000000E+00  0.00000000000E+00  0.12251318443E+04  0.12251318443E+04  0.00000000000E+00 0.  1.
          2   -1    0    0  501    0  0.00000000000E+00 -0.00000000000E+00 -0.17640659881E+04  0.17640659881E+04  0.00000000000E+00 0. -1.
         23    2    1    2    0    0 -0.22518558629E+03 -0.59261887581E+03  0.10771630891E+04  0.12532036082E+04  0.91286816550E+02 0.  0.
         11    1    3    3    0    0 -0.17929654595E+03 -0.36756750292E+03  0.73460016490E+03  0.84076781745E+03  0.00000000000E+00 0. -1.
        -11    1    3    3    0    0 -0.45889040346E+02 -0.22505137288E+03  0.34256292418E+03  0.41243579074E+03  0.00000000000E+00 0.  1.
         22    1    1    2    0    0  0.22518558629E+03  0.59261887581E+03 -0.16160972329E+04  0.17359942242E+04  0.00000000000E+00 0. -1.
<mgrwt>
<rscale>  0 0.29402132E+04</rscale>
<asrwt>0</asrwt>
<pdfrwt beam="1">  1        2 0.27139477E+00 0.29402132E+04</pdfrwt>
<pdfrwt beam="2">  1       -2 0.18848182E+00 0.29402132E+04</pdfrwt>
<totfact> 0.12334621E+00</totfact>
</mgrwt>
</event>
<event>
 6    1  0.1001928E-005  0.6581723E+03  0.7818608E-02  0.9791564E-01
         -2   -1    0    0    0  501 -0.00000000000E+00  0.00000000000E+00  0.12476122792E+03  0.12476122792E+03  0.00000000000E+00 0.  1.
          2   -1    0    0  501    0  0.00000000000E+00 -0.00000000000E+00 -0.86803961549E+03  0.86803961549E+03  0.00000000000E+00 0. -1.
         23    2    1    2    0    0  0.22738559843E+03 -0.22759892901E+03 -0.34085706397E+03  0.47758399145E+03  0.91637590384E+02 0.  0.
         13    1    3    3    0    0  0.12039515212E+03 -0.15687243781E+03 -0.25730573700E+03  0.32451532582E+03  0.00000000000E+00 0.  1.
        -13    1    3    3    0    0  0.10699044631E+03 -0.70726491203E+02 -0.83551326966E+02  0.15306866563E+03  0.00000000000E+00 0. -1.
         22    1    1    2    0    0 -0.22738559843E+03  0.22759892901E+03 -0.40242132360E+03  0.51521685196E+03  0.00000000000E+00 0. -1.
<mgrwt>
<rscale>  0 0.65817228E+03</rscale>
<asrwt>0</asrwt>
<pdfrwt beam="1">  1        2 0.13354456E+00 0.65817228E+03</pdfrwt>
<pdfrwt beam="2">  1       -2 0.19194035E-01 0.65817228E+03</pdfrwt>
<totfact> 0.71164662E+02</totfact>
</mgrwt>
</event>
<event>
 6    1  0.1001928E-005  0.1713302E+04  0.7818608E-02  0.8753814E-01
          1   -1    0    0  501    0  0.00000000000E+00  0.00000000000E+00  0.34075884449E+04  0.34075884449E+04  0.00000000000E+00 0. -1.
         -1   -1    0    0    0  501 -0.00000000000E+00 -0.00000000000E+00 -0.21535797526E+03  0.21535797526E+03  0.00000000000E+00 0.  1.
         23    2    1    2    0    0  0.81546818665E+03  0.13269184060E+03  0.20591344142E+04  0.22206261433E+04  0.92468613877E+02 0.  0.
         11    1    3    3    0    0  0.27134286702E+03  0.71167032607E+02  0.60738372978E+03  0.66903414951E+03  0.00000000000E+00 0. -1.
        -11    1    3    3    0    0  0.54412531963E+03  0.61524807989E+02  0.14517506844E+04  0.15515919938E+04  0.00000000000E+00 0.  1.
         22    1    1    2    0    0 -0.81546818665E+03 -0.13269184060E+03  0.11330960554E+04  0.14023202768E+04  0.00000000000E+00 0. -1.
<mgrwt>
<rscale>  0 0.17133025E+04</rscale>
<asrwt>0</asrwt>
<pdfrwt beam="1">  1        1 0.52424434E+00 0.17133025E+04</pdfrwt>
<pdfrwt beam="2">  1       -1 0.33131999E-01 0.17133025E+04</pdfrwt>
<totfact> 0.24183415E+00</totfact>
</mgrwt>
</event>
<event>
 6    1  0.1001928E-005  0.4230412E+04  0.7818608E-02  0.7959612E-01
         -2   -1    0    0    0  501 -0.00000000000E+00  0.00000000000E+00  0.23016495260E+04  0.23016495260E+04  0.00000000000E+00 0.  1.
          2   -1    0    0  501    0  0.00000000000E+00 -0.00000000000E+00 -0.19438655149E+04  0.19438655149E+04  0.00000000000E+00 0. -1.
         23    2    1    2    0    0 -0.15019433146E+04 -0.14602884377E+04 -0.10919546471E+03  0.20992751027E+04  0.82196507144E+02 0.  0.
         13    1    3    3    0    0 -0.20366377157E+03 -0.22945669390E+03 -0.34359143343E+02  0.30872294530E+03  0.00000000000E+00 0.  1.
        -13    1    3    3    0    0 -0.12982795430E+04 -0.12308317439E+04 -0.74836321372E+02  0.17905521574E+04  0.00000000000E+00 0. -1.
         22    1    1    2    0    0  0.15019433146E+04  0.14602884377E+04  0.46697947584E+03  0.21462399382E+04  0.00000000000E+00 0.  1.
<mgrwt>
<rscale>  0 0.42304123E+04</rscale>
<asrwt>0</asrwt>
<pdfrwt beam="1">  1        2 0.29905623E+00 0.42304123E+04</pdfrwt>
<pdfrwt beam="2">  1       -2 0.35409993E+00 0.42304123E+04</pdfrwt>
<totfact> 0.81472603E-02</totfact>
</mgrwt>
</event>
<event>
 6    1  0.1001928E-005  0.2990348E+04  0.7818608E-02  0.8246492E-01
          2   -1    0    0  501    0  0.00000000000E+00  0.00000000000E+00  0.23499988110E+04  0.23499988110E+04  0.00000000000E+00 0. -1.
         -2   -1    0    0    0  501 -0.00000000000E+00 -0.00000000000E+00 -0.95129650487E+03  0.95129650487E+03  0.00000000000E+00 0.  1.
         23    2    1    2    0    0 -0.31133125978E+03  0.13923726309E+04  0.11884009075E+04  0.18591249463E+04  0.91761387997E+02 0.  0.
         13    1    3    3    0    0 -0.11453739544E+03  0.41034242724E+03  0.40168358134E+03  0.58553345085E+03  0.00000000000E+00 0. -1.
        -13    1    3    3    0    0 -0.19679386434E+03  0.98203020365E+03  0.78671732618E+03  0.12735914954E+04  0.00000000000E+00 0.  1.
         22    1    1    2    0    0  0.31133125978E+03 -0.13923726309E+04  0.21030139857E+03  0.14421703696E+04  0.00000000000E+00 0.  1.
<mgrwt>
<rscale>  0 0.29903482E+04</rscale>
<asrwt>0</asrwt>
<pdfrwt beam="1">  1        2 0.36153828E+00 0.29903482E+04</pdfrwt>
<pdfrwt beam="2">  1       -2 0.14635331E+00 0.29903482E+04</pdfrwt>
<totfact> 0.11630489E+00</totfact>
</mgrwt>
</event>
<event>
 6    1  0.1001928E-005  0.1209553E+04  0.7818608E-02  0.9104535E-01
          2   -1    0    0  501    0  0.00000000000E+00  0.00000000000E+00  0.27791308170E+04  0.27791308170E+04  0.00000000000E+00 0. -1.
         -2   -1    0    0    0  501 -0.00000000000E+00 -0.00000000000E+00 -0.13160763715E+03  0.13160763715E+03  0.00000000000E+00 0.  1.
         23    2    1    2    0    0  0.23799062631E+03 -0.40565626403E+03  0.22312117724E+04  0.22826367660E+04  0.10453750114E+03 0.  0.
         13    1    3    3    0    0  0.59779262175E+02 -0.20352268362E+03  0.95045999843E+03  0.97384251886E+03  0.00000000000E+00 0.  1.
        -13    1    3    3    0    0  0.17821136414E+03 -0.20213358041E+03  0.12807517740E+04  0.13087942471E+04  0.00000000000E+00 0. -1.
         22    1    1    2    0    0 -0.23799062631E+03  0.40565626403E+03  0.41631140744E+03  0.62810168820E+03  0.00000000000E+00 0.  1.
<mgrwt>
<rscale>  0 0.12095534E+04</rscale>
<asrwt>0</asrwt>
<pdfrwt beam="1">  1        2 0.42755854E+00 0.12095534E+04</pdfrwt>
<pdfrwt beam="2">  1       -2 0.20247331E-01 0.12095534E+04</pdfrwt>
<totfact> 0.49613830E+01</totfact>
</mgrwt>
</event>
<event>
 6    1  0.1001928E-005  0.1762751E+04  0.7818608E-02  0.8726363E-01
         -2   -1    0    0    0  501 -0.00000000000E+00  0.00000000000E+00  0.37365103814E+03  0.37365103814E+03  0.00000000000E+00 0.  1.
          2   -1    0    0  501    0  0.00000000000E+00 -0.00000000000E+00 -0.20790064706E+04  0.20790064706E+04  0.00000000000E+00 0. -1.
         23    2    1    2    0    0 -0.29099368434E+03  0.67030822470E+03 -0.17513531484E+03  0.75690869219E+03  0.90818221592E+02 0.  0.
         13    1    3    3    0    0 -0.91930719650E+02  0.15336717662E+03 -0.75405866047E+02  0.19405873522E+03  0.00000000000E+00 0. -1.
        -13    1    3    3    0    0 -0.19906296469E+03  0.51694104808E+03 -0.99729448788E+02  0.56284995696E+03  0.00000000000E+00 0.  1.
         22    1    1    2    0    0  0.29099368434E+03 -0.67030822470E+03 -0.15302201176E+04  0.16957488165E+04  0.00000000000E+00 0. -1.
<mgrwt>
<rscale>  0 0.17627512E+04</rscale>
<asrwt>0</asrwt>
<pdfrwt beam="1">  1        2 0.31984715E+00 0.17627512E+04</pdfrwt>
<pdfrwt beam="2">  1       -2 0.57484775E-01 0.17627512E+04</pdfrwt>
<totfact> 0.16205055E+01</totfact>
</mgrwt>
</event>
<event>
 6    1  0.1001928E-005  0.3928126E+04  0.7818608E-02  0.8019205E-01
          2   -1    0    0  501    0  0.00000000000E+00  0.00000000000E+00  0.24543215531E+04  0.24543215531E+04  0.00000000000E+00 0. -1.
         -2   -1    0    0    0  501 -0.00000000000E+00 -0.00000000000E+00 -0.15717350933E+04  0.15717350933E+04  0.00000000000E+00 0.  1.
         23    2    1    2    0    0  0.18202785207E+04 -0.64868375985E+03  0.79516374600E+03  0.20916711512E+04  0.92727065426E+02 0.  0.
         13    1    3    3    0    0  0.82899339498E+03 -0.28515412438E+03  0.31199723079E+03  0.93052952429E+03  0.00000000000E+00 0. -1.
        -13    1    3    3    0    0  0.99128512569E+03 -0.36352963548E+03  0.48316651521E+03  0.11611416269E+04  0.00000000000E+00 0.  1.
         22    1    1    2    0    0 -0.18202785207E+04  0.64868375985E+03  0.87422713824E+02  0.19343854952E+04  0.00000000000E+00 0.  1.
<mgrwt>
<rscale>  0 0.39281259E+04</rscale>
<asrwt>0</asrwt>
<pdfrwt beam="1">  1        2 0.37758793E+00 0.39281259E+04</pdfrwt>
<pdfrwt beam="2">  1       -2 0.24180540E+00 0.39281259E+04</pdfrwt>
<totfact> 0.21192355E-01</totfact>
</mgrwt>
</event>
<event>
 6    1  0.1001928E-005  0.1178272E+04  0.7818608E-02  0.9132091E-01
          1   -1    0    0  501    0  0.00000000000E+00  0.00000000000E+00  0.39289689133E+03  0.39289689133E+03  0.00000000000E+00 0. -1.
         -1   -1    0    0    0  501 -0.00000000000E+00 -0.00000000000E+00 -0.88338969928E+03  0.88338969928E+03  0.00000000000E+00 0.  1.
         23    2    1    2    0    0  0.49197244362E+02 -0.58280108167E+03 -0.21594928759E+03  0.63018163457E+03  0.91745997651E+02 0.  0.
         13    1    3    3    0    0  0.84849489548E+01 -0.21276719453E+03 -0.12518978940E+03  0.24701084348E+03  0.00000000000E+00 0. -1.
        -13    1    3    3    0    0  0.40712295407E+02 -0.37003388714E+03 -0.90759498193E+02  0.38317079109E+03  0.00000000000E+00 0.  1.
         22    1    1    2    0    0 -0.49197244362E+02  0.58280108167E+03 -0.27454352036E+03  0.64610495604E+03  0.00000000000E+00 0. -1.
<mgrwt>
<rscale>  0 0.11782717E+04</rscale>
<asrwt>0</asrwt>
<pdfrwt beam="1">  1        1 0.60445675E-01 0.11782717E+04</pdfrwt>
<pdfrwt beam="2">  1       -1 0.13590611E+00 0.11782717E+04</pdfrwt>
<totfact> 0.27584246E+01</totfact>
</mgrwt>
</event>
<event>
 6    1  0.1001928E-005  0.1485055E+04  0.7818608E-02  0.8894452E-01
          2   -1    0    0  501    0  0.00000000000E+00  0.00000000000E+00  0.20618347482E+04  0.20618347482E+04  0.00000000000E+00 0. -1.
         -2   -1    0    0    0  501 -0.00000000000E+00 -0.00000000000E+00 -0.26740613124E+03  0.26740613124E+03  0.00000000000E+00 0.  1.
         23    2    1    2    0    0  0.21664949180E+03 -0.35411389099E+03 -0.59772797832E+02  0.42913653054E+03  0.90839002623E+02 0.  0.
         11    1    3    3    0    0  0.50765928952E+02 -0.13544765611E+03  0.12866277891E+02  0.14521979271E+03  0.00000000000E+00 0.  1.
        -11    1    3    3    0    0  0.16588356285E+03 -0.21866623487E+03 -0.72639075723E+02  0.28391673783E+03  0.00000000000E+00 0. -1.
         22    1    1    2    0    0 -0.21664949180E+03  0.35411389099E+03  0.18542014148E+04  0.19001043489E+04  0.00000000000E+00 0.  1.
<mgrwt>
<rscale>  0 0.14850552E+04</rscale>
<asrwt>0</asrwt>
<pdfrwt beam="1">  1        2 0.31720534E+00 0.14850552E+04</pdfrwt>
<pdfrwt beam="2">  1       -2 0.41139406E-01 0.14850552E+04</pdfrwt>
<totfact> 0.33429423E+01</totfact>
</mgrwt>
</event>
<event>
 6    1  0.1001928E-005  0.3742795E+04  0.7818608E-02  0.8058544E-01
         -2   -1    0    0    0  501 -0.00000000000E+00  0.00000000000E+00  0.11821521641E+04  0.11821521641E+04  0.00000000000E+00 0.  1.
          2   -1    0    0  501    0  0.00000000000E+00 -0.00000000000E+00 -0.29625024172E+04  0.29625024172E+04  0.00000000000E+00 0. -1.
         23    2    1    2    0    0  0.11293794266E+04 -0.29629497117E+03  0.72716358414E+03  0.13786259763E+04  0.92488407132E+02 0.  0.
         11    1    3    3    0    0  0.86889626692E+03 -0.25218878413E+03  0.59827450828E+03  0.10846715138E+04  0.00000000000E+00 0.  1.
        -11    1    3    3    0    0  0.26048315964E+03 -0.44106187036E+02  0.12888907586E+03  0.29395446257E+03  0.00000000000E+00 0. -1.
         22    1    1    2    0    0 -0.11293794266E+04  0.29629497117E+03 -0.25075138373E+04  0.27660286049E+04  0.00000000000E+00 0. -1.
<mgrwt>
<rscale>  0 0.37427950E+04</rscale>
<asrwt>0</asrwt>
<pdfrwt beam="1">  1        2 0.45576960E+00 0.37427950E+04</pdfrwt>
<pdfrwt beam="2">  1       -2 0.18186956E+00 0.37427950E+04</pdfrwt>
<totfact> 0.26043363E-01</totfact>
</mgrwt>
</event>
<event>
 6    1  0.1001928E-005  0.1730127E+04  0.7818608E-02  0.8744366E-01
         -2   -1    0    0    0  501 -0.00000000000E+00  0.00000000000E+00  0.17699300315E+04  0.17699300315E+04  0.00000000000E+00 0.  1.
          2   -1    0    0  501    0  0.00000000000E+00 -0.00000000000E+00 -0.42280476170E+03  0.42280476170E+03  0.00000000000E+00 0. -1.
         23    2    1    2    0    0  0.12493531158E+03 -0.77249138841E+03  0.11355075488E+04  0.13820968734E+04  0.91992373604E+02 0.  0.
         13    1    3    3    0    0  0.22797784910E+02 -0.22172211968E+03  0.25691831776E+03  0.34012859238E+03  0.00000000000E+00 0.  1.
        -13    1    3    3    0    0  0.10213752667E+03 -0.55076926873E+03  0.87858923105E+03  0.10419682810E+04  0.00000000000E+00 0. -1.
         22    1    1    2    0    0 -0.12493531158E+03  0.77249138841E+03  0.21161772103E+03  0.81063791985E+03  0.00000000000E+00 0. -1.
<mgrwt>
<rscale>  0 0.17301270E+04</rscale>
<asrwt>0</asrwt>
<pdfrwt beam="1">  1        2 0.65046887E-01 0.17301270E+04</pdfrwt>
<pdfrwt beam="2">  1       -2 0.27229692E+00 0.17301270E+04</pdfrwt>
<totfact> 0.33294127E+00</totfact>
</mgrwt>
</event>
<event>
 6    1  0.1001928E-005  0.2577697E+04  0.7818608E-02  0.8375817E-01
         -2   -1    0    0    0  501 -0.00000000000E+00  0.00000000000E+00  0.78804683982E+03  0.78804683982E+03  0.00000000000E+00 0.  1.
          2   -1    0    0  501    0  0.00000000000E+00 -0.00000000000E+00 -0.21079076910E+04  0.21079076910E+04  0.00000000000E+00 0. -1.
         23    2    1    2    0    0  0.12674230037E+04 -0.16513437453E+03 -0.48927144280E+03  0.13716483945E+04  0.91664285507E+02 0.  0.
         13    1    3    3    0    0  0.46572034045E+03 -0.10065802016E+03 -0.16091975692E+03  0.50291414843E+03  0.00000000000E+00 0. -1.
        -13    1    3    3    0    0  0.80170266328E+03 -0.64476354366E+02 -0.32835168588E+03  0.86873424602E+03  0.00000000000E+00 0.  1.
         22    1    1    2    0    0 -0.12674230037E+04  0.16513437453E+03 -0.83058940837E+03  0.15243061364E+04  0.00000000000E+00 0. -1.
<mgrwt>
<rscale>  0 0.25776966E+04</rscale>
<asrwt>0</asrwt>
<pdfrwt beam="1">  1        2 0.32429349E+00 0.25776966E+04</pdfrwt>
<pdfrwt beam="2">  1       -2 0.12123798E+00 0.25776966E+04</pdfrwt>
<totfact> 0.26677749E+00</totfact>
</mgrwt>
</event>
<event>
 6    1  0.1001928E-005  0.2914270E+04  0.7818608E-02  0.8268644E-01
          2   -1    0    0  501    0  0.00000000000E+00  0.00000000000E+00  0.30110824457E+04  0.30110824457E+04  0.00000000000E+00 0. -1.
         -2   -1    0    0    0  501 -0.00000000000E+00 -0.00000000000E+00 -0.70514277222E+03  0.70514277222E+03  0.00000000000E+00 0.  1.
         23    2    1    2    0    0 -0.11245213514E+04 -0.17456496987E+03 -0.30573375527E+01  0.11420285674E+04  0.95909869891E+02 0.  0.
         11    1    3    3    0    0 -0.18521096289E+03 -0.64576557892E+02  0.64688104630E+01  0.19625258753E+03  0.00000000000E+00 0.  1.
        -11    1    3    3    0    0 -0.93931038849E+03 -0.10998841198E+03 -0.95261480158E+01  0.94577597992E+03  0.00000000000E+00 0. -1.
         22    1    1    2    0    0  0.11245213514E+04  0.17456496987E+03  0.23089970111E+04  0.25741966505E+04  0.00000000000E+00 0. -1.
<mgrwt>
<rscale>  0 0.29142704E+04</rscale>
<asrwt>0</asrwt>
<pdfrwt beam="1">  1        2 0.46324345E+00 0.29142704E+04</pdfrwt>
<pdfrwt beam="2">  1       -2 0.10848350E+00 0.29142704E+04</pdfrwt>
<totfact> 0.10031116E+00</totfact>
</mgrwt>
</event>
<event>
 6    1  0.1001928E-005  0.1319661E+04  0.7818608E-02  0.9014117E-01
          2   -1    0    0  501    0  0.00000000000E+00  0.00000000000E+00  0.26487400193E+04  0.26487400193E+04  0.00000000000E+00 0. -1.
         -2   -1    0    0    0  501 -0.00000000000E+00 -0.00000000000E+00 -0.16437116269E+03  0.16437116269E+03  0.00000000000E+00 0.  1.
         23    2    1    2    0    0  0.40109580953E+03  0.51070540676E+03  0.10385639887E+04  0.12281665214E+04  0.89888735910E+02 0.  0.
         13    1    3    3    0    0  0.14737108542E+03  0.24870600376E+03  0.50427613535E+03  0.58126356656E+03  0.00000000000E+00 0. -1.
        -13    1    3    3    0    0  0.25372472410E+03  0.26199940300E+03  0.53428785332E+03  0.64690295485E+03  0.00000000000E+00 0.  1.
         22    1    1    2    0    0 -0.40109580953E+03 -0.51070540676E+03  0.14458048680E+04  0.15849446606E+04  0.00000000000E+00 0.  1.
<mgrwt>
<rscale>  0 0.13196613E+04</rscale>
<asrwt>0</asrwt>
<pdfrwt beam="1">  1        2 0.40749843E+00 0.13196613E+04</pdfrwt>
<pdfrwt beam="2">  1       -2 0.25287873E-01 0.13196613E+04</pdfrwt>
<totfact> 0.39416870E+01</totfact>
</mgrwt>
</event>
<event>
 6    1  0.1289534E-005  0.4825820E+04  0.7818608E-02  0.7855953E-01
          2   -1    0    0  501    0  0.00000000000E+00  0.00000000000E+00  0.27889273758E+04  0.27889273758E+04  0.00000000000E+00 0.  1.
         -2   -1    0    0    0  501 -0.00000000000E+00 -0.00000000000E+00 -0.20875888168E+04  0.20875888168E+04  0.00000000000E+00 0. -1.
         23    2    1    2    0    0  0.10020618909E+04  0.21847691192E+04  0.14760919547E+03  0.24099476560E+04  0.93354658535E+02 0.  0.
         11    1    3    3    0    0  0.50009177653E+03  0.98714013446E+03  0.85666157997E+02  0.11098991489E+04  0.00000000000E+00 0. -1.
        -11    1    3    3    0    0  0.50197011440E+03  0.11976289848E+04  0.61943037475E+02  0.13000485071E+04  0.00000000000E+00 0.  1.
         22    1    1    2    0    0 -0.10020618909E+04 -0.21847691192E+04  0.55372936352E+03  0.24665685366E+04  0.00000000000E+00 0.  1.
<mgrwt>
<rscale>  0 0.48258196E+04</rscale>
<asrwt>0</asrwt>
<pdfrwt beam="1">  1        2 0.42906575E+00 0.48258196E+04</pdfrwt>
<pdfrwt beam="2">  1       -2 0.32116751E+00 0.48258196E+04</pdfrwt>
<totfact> 0.40814579E-02</totfact>
</mgrwt>
</event>
<event>
 6    1  0.1001928E-005  0.2462987E+04  0.7818608E-02  0.8416291E-01
          3   -1    0    0  501    0  0.00000000000E+00  0.00000000000E+00  0.93354198552E+03  0.93354198552E+03  0.00000000000E+00 0. -1.
         -3   -1    0    0    0  501 -0.00000000000E+00 -0.00000000000E+00 -0.16245405597E+04  0.16245405597E+04  0.00000000000E+00 0.  1.
         23    2    1    2    0    0  0.11229338581E+03  0.30067677243E+03  0.88698125458E+03  0.94779168145E+03  0.92504051066E+02 0.  0.
         13    1    3    3    0    0  0.46297834186E+02  0.69382411615E+02  0.34319731305E+03  0.35318805780E+03  0.00000000000E+00 0. -1.
        -13    1    3    3    0    0  0.65995551624E+02  0.23129436081E+03  0.54378394153E+03  0.59460362364E+03  0.00000000000E+00 0.  1.
         22    1    1    2    0    0 -0.11229338581E+03 -0.30067677243E+03 -0.15779798288E+04  0.16102908638E+04  0.00000000000E+00 0.  1.
<mgrwt>
<rscale>  0 0.24629875E+04</rscale>
<asrwt>0</asrwt>
<pdfrwt beam="1">  1        3 0.14362185E+00 0.24629875E+04</pdfrwt>
<pdfrwt beam="2">  1       -3 0.24992931E+00 0.24629875E+04</pdfrwt>
<totfact> 0.61711982E-02</totfact>
</mgrwt>
</event>
<event>
 6    1  0.1001928E-005  0.3610044E+04  0.7818608E-02  0.8088195E-01
          2   -1    0    0  501    0  0.00000000000E+00  0.00000000000E+00  0.17807515172E+04  0.17807515172E+04  0.00000000000E+00 0. -1.
         -2   -1    0    0    0  501 -0.00000000000E+00 -0.00000000000E+00 -0.18296230239E+04  0.18296230239E+04  0.00000000000E+00 0.  1.
         23    2    1    2    0    0  0.90827701111E+03 -0.12443901528E+04 -0.96295953869E+03  0.18189977210E+04  0.89373680082E+02 0.  0.
         13    1    3    3    0    0  0.63594287343E+03 -0.79970032970E+03 -0.64036030559E+03  0.12058214116E+04  0.00000000000E+00 0. -1.
        -13    1    3    3    0    0  0.27233413768E+03 -0.44468982310E+03 -0.32259923310E+03  0.61317630949E+03  0.00000000000E+00 0.  1.
         22    1    1    2    0    0 -0.90827701111E+03  0.12443901528E+04  0.91408803198E+03  0.17913768201E+04  0.00000000000E+00 0. -1.
<mgrwt>
<rscale>  0 0.36100438E+04</rscale>
<asrwt>0</asrwt>
<pdfrwt beam="1">  1        2 0.27396177E+00 0.36100438E+04</pdfrwt>
<pdfrwt beam="2">  1       -2 0.28148046E+00 0.36100438E+04</pdfrwt>
<totfact> 0.29705646E-01</totfact>
</mgrwt>
</event>
<event>
 6    1  0.1001928E-005  0.2232091E+04  0.7818608E-02  0.8505189E-01
         -1   -1    0    0    0  501 -0.00000000000E+00  0.00000000000E+00  0.15734143724E+04  0.15734143724E+04  0.00000000000E+00 0.  1.
          1   -1    0    0  501    0  0.00000000000E+00 -0.00000000000E+00 -0.79162720974E+03  0.79162720974E+03  0.00000000000E+00 0. -1.
         23    2    1    2    0    0 -0.88323304014E+03 -0.52924285804E+03 -0.60531923273E+02  0.10347408460E+04  0.82618997350E+02 0.  0.
         11    1    3    3    0    0 -0.17538747660E+03 -0.82946969804E+02  0.14713317250E+02  0.19456990633E+03  0.00000000000E+00 0. -1.
        -11    1    3    3    0    0 -0.70784556354E+03 -0.44629588823E+03 -0.75245240524E+02  0.84017093969E+03  0.00000000000E+00 0.  1.
         22    1    1    2    0    0  0.88323304014E+03  0.52924285804E+03  0.84231908593E+03  0.13303007361E+04  0.00000000000E+00 0.  1.
<mgrwt>
<rscale>  0 0.22320911E+04</rscale>
<asrwt>0</asrwt>
<pdfrwt beam="1">  1        1 0.12178880E+00 0.22320911E+04</pdfrwt>
<pdfrwt beam="2">  1       -1 0.24206375E+00 0.22320911E+04</pdfrwt>
<totfact> 0.16064156E+00</totfact>
</mgrwt>
</event>
<event>
 6    1  0.1001928E-005  0.4102313E+04  0.7818608E-02  0.7984219E-01
         -2   -1    0    0    0  501 -0.00000000000E+00  0.00000000000E+00  0.31847037047E+04  0.31847037047E+04  0.00000000000E+00 0.  1.
          2   -1    0    0  501    0  0.00000000000E+00 -0.00000000000E+00 -0.13210782859E+04  0.13210782859E+04  0.00000000000E+00 0. -1.
         23    2    1    2    0    0  0.77849590390E+03 -0.54320702365E+03 -0.10635515493E+04  0.14285275738E+04  0.91757223970E+02 0.  0.
         13    1    3    3    0    0  0.24307767168E+03 -0.13039833670E+03 -0.26945317007E+03  0.38561054387E+03  0.00000000000E+00 0.  1.
        -13    1    3    3    0    0  0.53541823222E+03 -0.41280868695E+03 -0.79409837927E+03  0.10429170300E+04  0.00000000000E+00 0. -1.
         22    1    1    2    0    0 -0.77849590390E+03  0.54320702365E+03  0.29271769681E+04  0.30772544168E+04  0.00000000000E+00 0.  1.
<mgrwt>
<rscale>  0 0.41023130E+04</rscale>
<asrwt>0</asrwt>
<pdfrwt beam="1">  1        2 0.20324281E+00 0.41023130E+04</pdfrwt>
<pdfrwt beam="2">  1       -2 0.48995441E+00 0.41023130E+04</pdfrwt>
<totfact> 0.24014808E-02</totfact>
</mgrwt>
</event>
<event>
 6    1  0.1001928E-005  0.2710362E+04  0.7818608E-02  0.8331651E-01
         -1   -1    0    0    0  501 -0.00000000000E+00  0.00000000000E+00  0.73234781221E+03  0.73234781221E+03  0.00000000000E+00 0.  1.
          1   -1    0    0  501    0  0.00000000000E+00 -0.00000000000E+00 -0.25077089672E+04  0.25077089672E+04  0.00000000000E+00 0. -1.
         23    2    1    2    0    0  0.72077954931E+03 -0.84541421707E+03  0.35922720411E+02  0.11152044000E+04  0.90233335143E+02 0.  0.
         11    1    3    3    0    0  0.11422033116E+03 -0.18412854588E+03 -0.76144956143E+01  0.21681232899E+03  0.00000000000E+00 0.  1.
        -11    1    3    3    0    0  0.60655921815E+03 -0.66128567119E+03  0.43537216025E+02  0.89839207099E+03  0.00000000000E+00 0. -1.
         22    1    1    2    0    0 -0.72077954931E+03  0.84541421707E+03 -0.18112838754E+04  0.21248523795E+04  0.00000000000E+00 0. -1.
<mgrwt>
<rscale>  0 0.27103617E+04</rscale>
<asrwt>0</asrwt>
<pdfrwt beam="1">  1        1 0.38580137E+00 0.27103617E+04</pdfrwt>
<pdfrwt beam="2">  1       -1 0.11266890E+00 0.27103617E+04</pdfrwt>
<totfact> 0.84118778E-01</totfact>
</mgrwt>
</event>
<event>
 6    1  0.1001928E-005  0.5872521E+03  0.7818608E-02  0.9932213E-01
         -1   -1    0    0    0  501 -0.00000000000E+00  0.00000000000E+00  0.14003928709E+03  0.14003928709E+03  0.00000000000E+00 0.  1.
          1   -1    0    0  501    0  0.00000000000E+00 -0.00000000000E+00 -0.61565759403E+03  0.61565759403E+03  0.00000000000E+00 0. -1.
         23    2    1    2    0    0  0.15146477011E+03  0.13921812574E+03 -0.50005343200E+03  0.54852463766E+03  0.92209436346E+02 0.  0.
         11    1    3    3    0    0  0.23873226958E+02  0.45432128343E+02 -0.50935341782E+02  0.72307802439E+02  0.00000000000E+00 0.  1.
        -11    1    3    3    0    0  0.12759154315E+03  0.93785997401E+02 -0.44911809021E+03  0.47621683522E+03  0.00000000000E+00 0. -1.
         22    1    1    2    0    0 -0.15146477011E+03 -0.13921812574E+03  0.24435125057E+02  0.20717224345E+03  0.00000000000E+00 0.  1.
<mgrwt>
<rscale>  0 0.58725208E+03</rscale>
<asrwt>0</asrwt>
<pdfrwt beam="1">  1        1 0.94716551E-01 0.58725208E+03</pdfrwt>
<pdfrwt beam="2">  1       -1 0.21544506E-01 0.58725208E+03</pdfrwt>
<totfact> 0.60088273E+02</totfact>
</mgrwt>
</event>
<event>
 6    1  0.1001928E-005  0.7248221E+03  0.7818608E-02  0.9675700E-01
         -1   -1    0    0    0  501 -0.00000000000E+00  0.00000000000E+00  0.15910956024E+03  0.15910956024E+03  0.00000000000E+00 0.  1.
          1   -1    0    0  501    0  0.00000000000E+00 -0.00000000000E+00 -0.82548005395E+03  0.82548005395E+03  0.00000000000E+00 0. -1.
         23    2    1    2    0    0 -0.21567047046E+03 -0.12934048972E+03  0.54133305979E+01  0.26727781260E+03  0.90362662902E+02 0.  0.
         11    1    3    3    0    0 -0.12658130869E+03 -0.72118031579E+02  0.47653684173E+02  0.15327984800E+03  0.00000000000E+00 0.  1.
        -11    1    3    3    0    0 -0.89089161773E+02 -0.57222458145E+02 -0.42240353575E+02  0.11399796459E+03  0.00000000000E+00 0. -1.
         22    1    1    2    0    0  0.21567047046E+03  0.12934048972E+03 -0.67178382431E+03  0.71731180160E+03  0.00000000000E+00 0. -1.
<mgrwt>
<rscale>  0 0.72482210E+03</rscale>
<asrwt>0</asrwt>
<pdfrwt beam="1">  1        1 0.12699693E+00 0.72482210E+03</pdfrwt>
<pdfrwt beam="2">  1       -1 0.24478394E-01 0.72482210E+03</pdfrwt>
<totfact> 0.30853850E+02</totfact>
</mgrwt>
</event>
<event>
 6    1  0.1001928E-005  0.2483814E+04  0.7818608E-02  0.8408775E-01
          1   -1    0    0  501    0  0.00000000000E+00  0.00000000000E+00  0.11809245078E+04  0.11809245078E+04  0.00000000000E+00 0. -1.
         -1   -1    0    0    0  501 -0.00000000000E+00 -0.00000000000E+00 -0.13060389529E+04  0.13060389529E+04  0.00000000000E+00 0.  1.
         23    2    1    2    0    0  0.35995090468E+03 -0.70782066859E+03  0.89125759371E+03  0.11971623621E+04  0.91010275764E+02 0.  0.
         13    1    3    3    0    0  0.18576009774E+03 -0.37976342768E+03  0.54136511048E+03  0.68687936187E+03  0.00000000000E+00 0. -1.
        -13    1    3    3    0    0  0.17419080694E+03 -0.32805724091E+03  0.34989248323E+03  0.51028300026E+03  0.00000000000E+00 0.  1.
         22    1    1    2    0    0 -0.35995090468E+03  0.70782066859E+03 -0.10163720388E+04  0.12898010986E+04  0.00000000000E+00 0.  1.
<mgrwt>
<rscale>  0 0.24838143E+04</rscale>
<asrwt>0</asrwt>
<pdfrwt beam="1">  1        1 0.18168069E+00 0.24838143E+04</pdfrwt>
<pdfrwt beam="2">  1       -1 0.20092907E+00 0.24838143E+04</pdfrwt>
<totfact> 0.14560352E+00</totfact>
</mgrwt>
</event>
<event>
 6    1  0.1001928E-005  0.1901365E+04  0.7818608E-02  0.8654177E-01
          1   -1    0    0  501    0  0.00000000000E+00  0.00000000000E+00  0.15146848785E+04  0.15146848785E+04  0.00000000000E+00 0. -1.
         -1   -1    0    0    0  501 -0.00000000000E+00 -0.00000000000E+00 -0.59668970969E+03  0.59668970969E+03  0.00000000000E+00 0.  1.
         23    2    1    2    0    0 -0.86180960933E+03 -0.27533089951E+03  0.77697375607E+03  0.11957273057E+04  0.86906070487E+02 0.  0.
         13    1    3    3    0    0 -0.69797204090E+03 -0.23686542633E+03  0.58962064136E+03  0.94388701696E+03  0.00000000000E+00 0.  1.
        -13    1    3    3    0    0 -0.16383756843E+03 -0.38465473184E+02  0.18735311471E+03  0.25184028877E+03  0.00000000000E+00 0. -1.
         22    1    1    2    0    0  0.86180960933E+03  0.27533089951E+03  0.14102141269E+03  0.91564728242E+03  0.00000000000E+00 0.  1.
<mgrwt>
<rscale>  0 0.19013646E+04</rscale>
<asrwt>0</asrwt>
<pdfrwt beam="1">  1        1 0.23302844E+00 0.19013646E+04</pdfrwt>
<pdfrwt beam="2">  1       -1 0.91798417E-01 0.19013646E+04</pdfrwt>
<totfact> 0.69107665E+00</totfact>
</mgrwt>
</event>
<event>
 6    1  0.1294813E-005  0.3080734E+04  0.7818608E-02  0.8221045E-01
          2   -1    0    0  501    0  0.00000000000E+00  0.00000000000E+00  0.28491931797E+04  0.28491931797E+04  0.00000000000E+00 0. -1.
         -2   -1    0    0    0  501 -0.00000000000E+00 -0.00000000000E+00 -0.83277256111E+03  0.83277256111E+03  0.00000000000E+00 0.  1.
         23    2    1    2    0    0 -0.87250690908E+03 -0.11371720019E+02 -0.50603441236E+03  0.10128503432E+04  0.91637158695E+02 0.  0.
         13    1    3    3    0    0 -0.33140747821E+03 -0.40154666608E+02 -0.22360679791E+03  0.40180009200E+03  0.00000000000E+00 0.  1.
        -13    1    3    3    0    0 -0.54109943087E+03  0.28782946589E+02 -0.28242761446E+03  0.61105025122E+03  0.00000000000E+00 0. -1.
         22    1    1    2    0    0  0.87250690908E+03  0.11371720019E+02  0.25224550310E+04  0.26691153976E+04  0.00000000000E+00 0. -1.
<mgrwt>
<rscale>  0 0.30807336E+04</rscale>
<asrwt>0</asrwt>
<pdfrwt beam="1">  1        2 0.43833741E+00 0.30807336E+04</pdfrwt>
<pdfrwt beam="2">  1       -2 0.12811886E+00 0.30807336E+04</pdfrwt>
<totfact> 0.82668739E-01</totfact>
</mgrwt>
</event>
<event>
 6    1  0.1001928E-005  0.1544188E+04  0.7818608E-02  0.8855589E-01
         -1   -1    0    0    0  501 -0.00000000000E+00  0.00000000000E+00  0.45069222955E+03  0.45069222955E+03  0.00000000000E+00 0.  1.
          1   -1    0    0  501    0  0.00000000000E+00 -0.00000000000E+00 -0.13226960987E+04  0.13226960987E+04  0.00000000000E+00 0. -1.
         23    2    1    2    0    0 -0.67151855940E+03  0.20030996259E+03 -0.72796737418E+02  0.71047097673E+03  0.91697257654E+02 0.  0.
         11    1    3    3    0    0 -0.23562026337E+02 -0.20657286974E+01 -0.17450835222E+02  0.29393332069E+02  0.00000000000E+00 0. -1.
        -11    1    3    3    0    0 -0.64795653307E+03  0.20237569129E+03 -0.55345902196E+02  0.68107764466E+03  0.00000000000E+00 0.  1.
         22    1    1    2    0    0  0.67151855940E+03 -0.20030996259E+03 -0.79920713173E+03  0.10629173515E+04  0.00000000000E+00 0. -1.
<mgrwt>
<rscale>  0 0.15441876E+04</rscale>
<asrwt>0</asrwt>
<pdfrwt beam="1">  1        1 0.20349171E+00 0.15441876E+04</pdfrwt>
<pdfrwt beam="2">  1       -1 0.69337266E-01 0.15441876E+04</pdfrwt>
<totfact> 0.17672488E+01</totfact>
</mgrwt>
</event>
<event>
 6    1  0.2563347E-005  0.3683030E+04  0.7818608E-02  0.8071733E-01
          1   -1    0    0  501    0  0.00000000000E+00  0.00000000000E+00  0.23688636479E+04  0.23688636479E+04  0.00000000000E+00 0. -1.
         -1   -1    0    0    0  501 -0.00000000000E+00 -0.00000000000E+00 -0.14315631399E+04  0.14315631399E+04  0.00000000000E+00 0.  1.
         23    2    1    2    0    0  0.11038021766E+03 -0.33208619425E+03  0.23336941431E+04  0.23608503859E+04  0.70860130751E+02 0.  0.
         11    1    3    3    0    0  0.39303605742E+02 -0.67364088021E+02  0.37098651092E+03  0.37909587846E+03  0.00000000000E+00 0.  1.
        -11    1    3    3    0    0  0.71076611916E+02 -0.26472210622E+03  0.19627076322E+04  0.19817545074E+04  0.00000000000E+00 0. -1.
         22    1    1    2    0    0 -0.11038021766E+03  0.33208619425E+03 -0.13963936350E+04  0.14395764019E+04  0.00000000000E+00 0.  1.
<mgrwt>
<rscale>  0 0.36830302E+04</rscale>
<asrwt>0</asrwt>
<pdfrwt beam="1">  1        1 0.36444056E+00 0.36830302E+04</pdfrwt>
<pdfrwt beam="2">  1       -1 0.22024048E+00 0.36830302E+04</pdfrwt>
<totfact> 0.14704107E-01</totfact>
</mgrwt>
</event>
<event>
 6    1  0.1001928E-005  0.1697716E+04  0.7818608E-02  0.8762668E-01
         -1   -1    0    0    0  501 -0.00000000000E+00  0.00000000000E+00  0.68046003239E+03  0.68046003239E+03  0.00000000000E+00 0.  1.
          1   -1    0    0  501    0  0.00000000000E+00 -0.00000000000E+00 -0.10589306884E+04  0.10589306884E+04  0.00000000000E+00 0. -1.
         23    2    1    2    0    0 -0.23500674677E+03  0.51007129358E+03  0.45883597516E+03  0.73118276101E+03  0.93257076574E+02 0.  0.
         11    1    3    3    0    0 -0.14806688455E+03  0.23794052158E+03  0.26693552960E+03  0.38703239021E+03  0.00000000000E+00 0.  1.
        -11    1    3    3    0    0 -0.86939862219E+02  0.27213077200E+03  0.19190044556E+03  0.34415037080E+03  0.00000000000E+00 0. -1.
         22    1    1    2    0    0  0.23500674677E+03 -0.51007129358E+03 -0.83730663118E+03  0.10082079598E+04  0.00000000000E+00 0. -1.
<mgrwt>
<rscale>  0 0.16977161E+04</rscale>
<asrwt>0</asrwt>
<pdfrwt beam="1">  1        1 0.16291241E+00 0.16977161E+04</pdfrwt>
<pdfrwt beam="2">  1       -1 0.10468616E+00 0.16977161E+04</pdfrwt>
<totfact> 0.11118266E+01</totfact>
</mgrwt>
</event>
<event>
 6    1  0.1001928E-005  0.1628958E+04  0.7818608E-02  0.8802953E-01
          2   -1    0    0  501    0  0.00000000000E+00  0.00000000000E+00  0.22471030487E+04  0.22471030487E+04  0.00000000000E+00 0. -1.
         -2   -1    0    0    0  501 -0.00000000000E+00 -0.00000000000E+00 -0.29521398517E+03  0.29521398517E+03  0.00000000000E+00 0.  1.
         23    2    1    2    0    0 -0.40991420113E+03  0.56933082825E+02 -0.11107189976E+03  0.43825454329E+03  0.91973091680E+02 0.  0.
         11    1    3    3    0    0 -0.15440737218E+03  0.64093234063E+02 -0.28158806683E+02  0.16953612485E+03  0.00000000000E+00 0.  1.
        -11    1    3    3    0    0 -0.25550682895E+03 -0.71601512386E+01 -0.82913093074E+02  0.26871841844E+03  0.00000000000E+00 0. -1.
         22    1    1    2    0    0  0.40991420113E+03 -0.56933082825E+02  0.20629609633E+04  0.21040624906E+04  0.00000000000E+00 0. -1.
<mgrwt>
<rscale>  0 0.16289583E+04</rscale>
<asrwt>0</asrwt>
<pdfrwt beam="1">  1        2 0.34570815E+00 0.16289583E+04</pdfrwt>
<pdfrwt beam="2">  1       -2 0.45417538E-01 0.16289583E+04</pdfrwt>
<totfact> 0.21384531E+01</totfact>
</mgrwt>
</event>
<event>
 6    1  0.1001928E-005  0.1548764E+04  0.7818608E-02  0.8852657E-01
         -1   -1    0    0    0  501 -0.00000000000E+00  0.00000000000E+00  0.51421034838E+03  0.51421034838E+03  0.00000000000E+00 0.  1.
          1   -1    0    0  501    0  0.00000000000E+00 -0.00000000000E+00 -0.11661913202E+04  0.11661913202E+04  0.00000000000E+00 0. -1.
         23    2    1    2    0    0  0.20799471547E+02 -0.28152006052E+03 -0.11064137021E+04  0.11454294555E+04  0.90394662603E+02 0.  0.
         11    1    3    3    0    0 -0.28727024334E+02 -0.16513273674E+03 -0.55872631277E+03  0.58332594255E+03  0.00000000000E+00 0.  1.
        -11    1    3    3    0    0  0.49526495882E+02 -0.11638732377E+03 -0.54768738930E+03  0.56210351300E+03  0.00000000000E+00 0. -1.
         22    1    1    2    0    0 -0.20799471547E+02  0.28152006052E+03  0.45443273020E+03  0.53497221308E+03  0.00000000000E+00 0.  1.
<mgrwt>
<rscale>  0 0.15487642E+04</rscale>
<asrwt>0</asrwt>
<pdfrwt beam="1">  1        1 0.17941405E+00 0.15487642E+04</pdfrwt>
<pdfrwt beam="2">  1       -1 0.79109285E-01 0.15487642E+04</pdfrwt>
<totfact> 0.17419779E+01</totfact>
</mgrwt>
</event>
<event>
 6    1  0.1001928E-005  0.2585508E+04  0.7818608E-02  0.8373141E-01
         -2   -1    0    0    0  501 -0.00000000000E+00  0.00000000000E+00  0.56187936679E+03  0.56187936679E+03  0.00000000000E+00 0.  1.
          2   -1    0    0  501    0  0.00000000000E+00 -0.00000000000E+00 -0.29743258030E+04  0.29743258030E+04  0.00000000000E+00 0. -1.
         23    2    1    2    0    0  0.11500445154E+04  0.58587254967E+03 -0.11587147296E+04  0.17368463328E+04  0.90367735731E+02 0.  0.
         11    1    3    3    0    0  0.89723397082E+03  0.42595348733E+03 -0.92487942646E+03  0.13571540536E+04  0.00000000000E+00 0.  1.
        -11    1    3    3    0    0  0.25281054455E+03  0.15991906235E+03 -0.23383530309E+03  0.37969227923E+03  0.00000000000E+00 0. -1.
         22    1    1    2    0    0 -0.11500445154E+04 -0.58587254967E+03 -0.12537317066E+04  0.17993588369E+04  0.00000000000E+00 0.  1.
<mgrwt>
<rscale>  0 0.25855075E+04</rscale>
<asrwt>0</asrwt>
<pdfrwt beam="1">  1        2 0.45758858E+00 0.25855075E+04</pdfrwt>
<pdfrwt beam="2">  1       -2 0.86442980E-01 0.25855075E+04</pdfrwt>
<totfact> 0.18551415E+00</totfact>
</mgrwt>
</event>
<event>
 6    1  0.1159122E-005  0.2581567E+04  0.7818608E-02  0.8374490E-01
         -2   -1    0    0    0  501 -0.00000000000E+00  0.00000000000E+00  0.74348594840E+03  0.74348594840E+03  0.00000000000E+00 0.  1.
          2   -1    0    0  501    0  0.00000000000E+00 -0.00000000000E+00 -0.22409590721E+04  0.22409590721E+04  0.00000000000E+00 0. -1.
         23    2    1    2    0    0  0.84085510618E+03  0.18343562891E+03 -0.18594588190E+04  0.20507857769E+04  0.86309116147E+02 0.  0.
         13    1    3    3    0    0  0.57252433976E+03  0.14868003714E+03 -0.11961866370E+04  0.13344483293E+04  0.00000000000E+00 0.  1.
        -13    1    3    3    0    0  0.26833076641E+03  0.34755591771E+02 -0.66327218200E+03  0.71633744756E+03  0.00000000000E+00 0. -1.
         22    1    1    2    0    0 -0.84085510618E+03 -0.18343562891E+03  0.36198569532E+03  0.93365924360E+03  0.00000000000E+00 0.  1.
<mgrwt>
<rscale>  0 0.25815666E+04</rscale>
<asrwt>0</asrwt>
<pdfrwt beam="1">  1        2 0.34476293E+00 0.25815666E+04</pdfrwt>
<pdfrwt beam="2">  1       -2 0.11438245E+00 0.25815666E+04</pdfrwt>
<totfact> 0.25912843E+00</totfact>
</mgrwt>
</event>
<event>
 6    1  0.1001928E-005  0.2015160E+04  0.7818608E-02  0.8599565E-01
         -2   -1    0    0    0  501 -0.00000000000E+00  0.00000000000E+00  0.28865460351E+03  0.28865460351E+03  0.00000000000E+00 0.  1.
          2   -1    0    0  501    0  0.00000000000E+00 -0.00000000000E+00 -0.35170676288E+04  0.35170676288E+04  0.00000000000E+00 0. -1.
         23    2    1    2    0    0 -0.84724155388E+03  0.32572930847E+03 -0.80076251965E+03  0.12139265593E+04  0.92082818830E+02 0.  0.
         11    1    3    3    0    0 -0.65873758888E+03  0.23926055849E+03 -0.56745753901E+03  0.90176986223E+03  0.00000000000E+00 0.  1.
        -11    1    3    3    0    0 -0.18850396500E+03  0.86468749982E+02 -0.23330498064E+03  0.31215669708E+03  0.00000000000E+00 0. -1.
         22    1    1    2    0    0  0.84724155388E+03 -0.32572930847E+03 -0.24276505057E+04  0.25917956730E+04  0.00000000000E+00 0. -1.
<mgrwt>
<rscale>  0 0.20151603E+04</rscale>
<asrwt>0</asrwt>
<pdfrwt beam="1">  1        2 0.54108736E+00 0.20151603E+04</pdfrwt>
<pdfrwt beam="2">  1       -2 0.44408398E-01 0.20151603E+04</pdfrwt>
<totfact> 0.35487731E+00</totfact>
</mgrwt>
</event>
<event>
 6    1  0.1001928E-005  0.2498845E+04  0.7818608E-02  0.8403397E-01
          2   -1    0    0  501    0  0.00000000000E+00  0.00000000000E+00  0.10165535404E+04  0.10165535404E+04  0.00000000000E+00 0. -1.
         -2   -1    0    0    0  501 -0.00000000000E+00 -0.00000000000E+00 -0.15356359490E+04  0.15356359490E+04  0.00000000000E+00 0.  1.
         23    2    1    2    0    0  0.92202392232E+03  0.42021892417E+03 -0.10035761329E+04  0.14290482577E+04  0.91114272333E+02 0.  0.
         13    1    3    3    0    0  0.20752821401E+03  0.11353079595E+03 -0.18735433748E+03  0.30175958810E+03  0.00000000000E+00 0. -1.
        -13    1    3    3    0    0  0.71449570831E+03  0.30668812822E+03 -0.81622179545E+03  0.11272886696E+04  0.00000000000E+00 0.  1.
         22    1    1    2    0    0 -0.92202392232E+03 -0.42021892417E+03  0.48449372424E+03  0.11231412317E+04  0.00000000000E+00 0. -1.
<mgrwt>
<rscale>  0 0.24988447E+04</rscale>
<asrwt>0</asrwt>
<pdfrwt beam="1">  1        2 0.15639285E+00 0.24988447E+04</pdfrwt>
<pdfrwt beam="2">  1       -2 0.23625169E+00 0.24988447E+04</pdfrwt>
<totfact> 0.17132279E+00</totfact>
</mgrwt>
</event>
<event>
 6    1  0.1001928E-005  0.1097362E+04  0.7818608E-02  0.9207767E-01
          2   -1    0    0  501    0  0.00000000000E+00  0.00000000000E+00  0.68546345920E+03  0.68546345920E+03  0.00000000000E+00 0.  1.
         -2   -1    0    0    0  501 -0.00000000000E+00 -0.00000000000E+00 -0.43919339871E+03  0.43919339871E+03  0.00000000000E+00 0. -1.
         23    2    1    2    0    0 -0.40368223830E+03 -0.36028977917E+03  0.57272922568E+02  0.55151813767E+03  0.90133201565E+02 0.  0.
         11    1    3    3    0    0 -0.82327343272E+02 -0.29828189664E+02  0.72896754223E+01  0.87867239155E+02  0.00000000000E+00 0.  1.
        -11    1    3    3    0    0 -0.32135489503E+03 -0.33046158951E+03  0.49983247145E+02  0.46365089851E+03  0.00000000000E+00 0. -1.
         22    1    1    2    0    0  0.40368223830E+03  0.36028977917E+03  0.18899713792E+03  0.57313872024E+03  0.00000000000E+00 0.  1.
<mgrwt>
<rscale>  0 0.10973623E+04</rscale>
<asrwt>0</asrwt>
<pdfrwt beam="1">  1        2 0.10545592E+00 0.10973623E+04</pdfrwt>
<pdfrwt beam="2">  1       -2 0.67568215E-01 0.10973623E+04</pdfrwt>
<totfact> 0.83935025E+01</totfact>
</mgrwt>
</event>
<event>
 6    1  0.1001928E-005  0.2662580E+04  0.7818608E-02  0.8347250E-01
         -2   -1    0    0    0  501 -0.00000000000E+00  0.00000000000E+00  0.54750125358E+03  0.54750125358E+03  0.00000000000E+00 0. -1.
          2   -1    0    0  501    0  0.00000000000E+00 -0.00000000000E+00 -0.32371294734E+04  0.32371294734E+04  0.00000000000E+00 0.  1.
         23    2    1    2    0    0  0.39765210727E+03 -0.12071333990E+04 -0.19020336402E+04  0.22894372735E+04  0.92156495897E+02 0.  0.
         13    1    3    3    0    0  0.35453418857E+02 -0.17894886969E+03 -0.23256742950E+03  0.29557951914E+03  0.00000000000E+00 0.  1.
        -13    1    3    3    0    0  0.36219868842E+03 -0.10281845293E+04 -0.16694662107E+04  0.19938577544E+04  0.00000000000E+00 0. -1.
         22    1    1    2    0    0 -0.39765210727E+03  0.12071333990E+04 -0.78759457962E+03  0.14951934534E+04  0.00000000000E+00 0. -1.
<mgrwt>
<rscale>  0 0.26625795E+04</rscale>
<asrwt>0</asrwt>
<pdfrwt beam="1">  1        2 0.49801991E+00 0.26625795E+04</pdfrwt>
<pdfrwt beam="2">  1       -2 0.84230963E-01 0.26625795E+04</pdfrwt>
<totfact> 0.13271790E+00</totfact>
</mgrwt>
</event>
<event>
 6    1  0.1001928E-005  0.3705419E+04  0.7818608E-02  0.8066762E-01
          2   -1    0    0  501    0  0.00000000000E+00  0.00000000000E+00  0.22571441681E+04  0.22571441681E+04  0.00000000000E+00 0. -1.
         -2   -1    0    0    0  501 -0.00000000000E+00 -0.00000000000E+00 -0.15207412214E+04  0.15207412214E+04  0.00000000000E+00 0.  1.
         23    2    1    2    0    0  0.90910803522E+03  0.13612360286E+04 -0.51382315715E+03  0.17181508785E+04  0.92667466595E+02 0.  0.
         11    1    3    3    0    0  0.59179355612E+03  0.95991161413E+03 -0.36680643518E+03  0.11858317254E+04  0.00000000000E+00 0. -1.
        -11    1    3    3    0    0  0.31731447910E+03  0.40132441442E+03 -0.14701672197E+03  0.53231915314E+03  0.00000000000E+00 0.  1.
         22    1    1    2    0    0 -0.90910803522E+03 -0.13612360286E+04  0.12502261039E+04  0.20597345110E+04  0.00000000000E+00 0. -1.
<mgrwt>
<rscale>  0 0.37054188E+04</rscale>
<asrwt>0</asrwt>
<pdfrwt beam="1">  1        2 0.34725295E+00 0.37054188E+04</pdfrwt>
<pdfrwt beam="2">  1       -2 0.23396019E+00 0.37054188E+04</pdfrwt>
<totfact> 0.31289141E-01</totfact>
</mgrwt>
</event>
<event>
 6    1  0.1001928E-005  0.5620911E+04  0.7818608E-02  0.7739267E-01
          2   -1    0    0  501    0  0.00000000000E+00  0.00000000000E+00  0.19156747388E+04  0.19156747388E+04  0.00000000000E+00 0. -1.
         -2   -1    0    0    0  501 -0.00000000000E+00 -0.00000000000E+00 -0.41231740034E+04  0.41231740034E+04  0.00000000000E+00 0.  1.
         23    2    1    2    0    0  0.81432031997E+03 -0.94095402143E+03  0.16023849604E+04  0.20308904264E+04  0.91467527988E+02 0.  0.
         11    1    3    3    0    0  0.73538420652E+02 -0.12092588493E+03  0.15550897466E+03  0.21027127754E+03  0.00000000000E+00 0.  1.
        -11    1    3    3    0    0  0.74078189932E+03 -0.82002813650E+03  0.14468759858E+04  0.18206191488E+04  0.00000000000E+00 0. -1.
         22    1    1    2    0    0 -0.81432031997E+03  0.94095402143E+03 -0.38098842250E+04  0.40079583159E+04  0.00000000000E+00 0.  1.
<mgrwt>
<rscale>  0 0.56209111E+04</rscale>
<asrwt>0</asrwt>
<pdfrwt beam="1">  1        2 0.29471919E+00 0.56209111E+04</pdfrwt>
<pdfrwt beam="2">  1       -2 0.63433447E+00 0.56209111E+04</pdfrwt>
<totfact> 0.19937067E-03</totfact>
</mgrwt>
</event>
<event>
 6    1  0.1001928E-005  0.1745720E+04  0.7818608E-02  0.8735710E-01
          1   -1    0    0  501    0  0.00000000000E+00  0.00000000000E+00  0.57569403575E+03  0.57569403575E+03  0.00000000000E+00 0. -1.
         -1   -1    0    0    0  501 -0.00000000000E+00 -0.00000000000E+00 -0.13234185643E+04  0.13234185643E+04  0.00000000000E+00 0.  1.
         23    2    1    2    0    0 -0.14624311210E+03 -0.74702416929E+03  0.84834589223E+02  0.77102269143E+03  0.88582875529E+02 0.  0.
         13    1    3    3    0    0 -0.10337691820E+03 -0.30207077480E+03  0.40006678314E+02  0.32176711224E+03  0.00000000000E+00 0. -1.
        -13    1    3    3    0    0 -0.42866193903E+02 -0.44495339448E+03  0.44827910909E+02  0.44925557920E+03  0.00000000000E+00 0.  1.
         22    1    1    2    0    0  0.14624311210E+03  0.74702416929E+03 -0.83255911774E+03  0.11280899086E+04  0.00000000000E+00 0.  1.
<mgrwt>
<rscale>  0 0.17457195E+04</rscale>
<asrwt>0</asrwt>
<pdfrwt beam="1">  1        1 0.88568314E-01 0.17457195E+04</pdfrwt>
<pdfrwt beam="2">  1       -1 0.20360286E+00 0.17457195E+04</pdfrwt>
<totfact> 0.48974297E+00</totfact>
</mgrwt>
</event>
<event>
 6    1  0.1001928E-005  0.1627336E+04  0.7818608E-02  0.8803929E-01
          1   -1    0    0  501    0  0.00000000000E+00  0.00000000000E+00  0.16417695247E+04  0.16417695247E+04  0.00000000000E+00 0. -1.
         -1   -1    0    0    0  501 -0.00000000000E+00 -0.00000000000E+00 -0.40325711121E+03  0.40325711121E+03  0.00000000000E+00 0.  1.
         23    2    1    2    0    0  0.41851206093E+03 -0.44762152855E+03  0.12890565475E+04  0.14301509676E+04  0.90264221332E+02 0.  0.
         13    1    3    3    0    0  0.18216060858E+03 -0.17781844370E+03  0.63641442078E+03  0.68543796306E+03  0.00000000000E+00 0. -1.
        -13    1    3    3    0    0  0.23635145235E+03 -0.26980308485E+03  0.65264212667E+03  0.74471300454E+03  0.00000000000E+00 0.  1.
         22    1    1    2    0    0 -0.41851206093E+03  0.44762152855E+03 -0.50544133976E+02  0.61487566828E+03  0.00000000000E+00 0.  1.
<mgrwt>
<rscale>  0 0.16273355E+04</rscale>
<asrwt>0</asrwt>
<pdfrwt beam="1">  1        1 0.25257992E+00 0.16273355E+04</pdfrwt>
<pdfrwt beam="2">  1       -1 0.62039557E-01 0.16273355E+04</pdfrwt>
<totfact> 0.13178789E+01</totfact>
</mgrwt>
</event>
<event>
 6    1  0.1001928E-005  0.1461038E+04  0.7818608E-02  0.8910784E-01
          3   -1    0    0  501    0  0.00000000000E+00  0.00000000000E+00  0.16184499959E+04  0.16184499959E+04  0.00000000000E+00 0. -1.
         -3   -1    0    0    0  501 -0.00000000000E+00 -0.00000000000E+00 -0.32973389574E+03  0.32973389574E+03  0.00000000000E+00 0.  1.
         23    2    1    2    0    0  0.59261295732E+03  0.17725871376E+03  0.11578143267E+04  0.13159291621E+04  0.92329712261E+02 0.  0.
         11    1    3    3    0    0  0.29789980376E+03  0.68917806615E+02  0.48316888056E+03  0.57179202888E+03  0.00000000000E+00 0.  1.
        -11    1    3    3    0    0  0.29471315356E+03  0.10834090714E+03  0.67464544609E+03  0.74413713318E+03  0.00000000000E+00 0. -1.
         22    1    1    2    0    0 -0.59261295732E+03 -0.17725871376E+03  0.13090177352E+03  0.63225472960E+03  0.00000000000E+00 0.  1.
<mgrwt>
<rscale>  0 0.14610377E+04</rscale>
<asrwt>0</asrwt>
<pdfrwt beam="1">  1        3 0.24899230E+00 0.14610377E+04</pdfrwt>
<pdfrwt beam="2">  1       -3 0.50728293E-01 0.14610377E+04</pdfrwt>
<totfact> 0.73377155E-01</totfact>
</mgrwt>
</event>
<event>
 6    1  0.1001928E-005  0.2134311E+04  0.7818608E-02  0.8546278E-01
         -1   -1    0    0    0  501 -0.00000000000E+00  0.00000000000E+00  0.63569361448E+03  0.63569361448E+03  0.00000000000E+00 0.  1.
          1   -1    0    0  501    0  0.00000000000E+00 -0.00000000000E+00 -0.17914622253E+04  0.17914622253E+04  0.00000000000E+00 0. -1.
         23    2    1    2    0    0 -0.35890207737E+03 -0.25502948222E+03  0.52416388605E+03  0.69048548188E+03  0.90397363334E+02 0.  0.
         13    1    3    3    0    0 -0.21768979880E+03 -0.15975385347E+03  0.38643030488E+03  0.47142180977E+03  0.00000000000E+00 0.  1.
        -13    1    3    3    0    0 -0.14121227857E+03 -0.95275628744E+02  0.13773358118E+03  0.21906367211E+03  0.00000000000E+00 0. -1.
         22    1    1    2    0    0  0.35890207737E+03  0.25502948222E+03 -0.16799324969E+04  0.17366703579E+04  0.00000000000E+00 0. -1.
<mgrwt>
<rscale>  0 0.21343112E+04</rscale>
<asrwt>0</asrwt>
<pdfrwt beam="1">  1        1 0.27560957E+00 0.21343112E+04</pdfrwt>
<pdfrwt beam="2">  1       -1 0.97799019E-01 0.21343112E+04</pdfrwt>
<totfact> 0.37958440E+00</totfact>
</mgrwt>
</event>
<event>
 6    1  0.1001928E-005  0.6823930E+04  0.7818608E-02  0.7595871E-01
         -2   -1    0    0    0  501 -0.00000000000E+00  0.00000000000E+00  0.27527690818E+04  0.27527690818E+04  0.00000000000E+00 0.  1.
          2   -1    0    0  501    0  0.00000000000E+00 -0.00000000000E+00 -0.42290162558E+04  0.42290162558E+04  0.00000000000E+00 0. -1.
         23    2    1    2    0    0  0.29329585266E+04 -0.55121527290E+03 -0.24290708991E+04  0.38490617547E+04  0.93845420034E+02 0.  0.
         13    1    3    3    0    0  0.15949411146E+04 -0.31472366218E+03 -0.13802537547E+04  0.21326013622E+04  0.00000000000E+00 0.  1.
        -13    1    3    3    0    0  0.13380174120E+04 -0.23649161072E+03 -0.10488171444E+04  0.17164603925E+04  0.00000000000E+00 0. -1.
         22    1    1    2    0    0 -0.29329585266E+04  0.55121527290E+03  0.95282372515E+03  0.31327235829E+04  0.00000000000E+00 0.  1.
<mgrwt>
<rscale>  0 0.68239300E+04</rscale>
<asrwt>0</asrwt>
<pdfrwt beam="1">  1        2 0.65061788E+00 0.68239300E+04</pdfrwt>
<pdfrwt beam="2">  1       -2 0.42350294E+00 0.68239300E+04</pdfrwt>
<totfact> 0.71667789E-04</totfact>
</mgrwt>
</event>
<event>
 6    1  0.1001928E-005  0.1948080E+04  0.7818608E-02  0.8631287E-01
          1   -1    0    0  501    0  0.00000000000E+00  0.00000000000E+00  0.32044131925E+04  0.32044131925E+04  0.00000000000E+00 0. -1.
         -1   -1    0    0    0  501 -0.00000000000E+00 -0.00000000000E+00 -0.29607736060E+03  0.29607736060E+03  0.00000000000E+00 0.  1.
         23    2    1    2    0    0 -0.80171542321E+02  0.68929924718E+03  0.26801242226E+04  0.27699828755E+04  0.90434252353E+02 0.  0.
         13    1    3    3    0    0  0.18195394985E+02  0.18028369428E+03  0.72207123197E+03  0.74445963414E+03  0.00000000000E+00 0. -1.
        -13    1    3    3    0    0 -0.98366937306E+02  0.50901555290E+03  0.19580529906E+04  0.20255232414E+04  0.00000000000E+00 0.  1.
         22    1    1    2    0    0  0.80171542321E+02 -0.68929924718E+03  0.22821160936E+03  0.73050767759E+03  0.00000000000E+00 0.  1.
<mgrwt>
<rscale>  0 0.19480803E+04</rscale>
<asrwt>0</asrwt>
<pdfrwt beam="1">  1        1 0.49298662E+00 0.19480803E+04</pdfrwt>
<pdfrwt beam="2">  1       -1 0.45550365E-01 0.19480803E+04</pdfrwt>
<totfact> 0.18876465E+00</totfact>
</mgrwt>
</event>
<event>
 6    1  0.1012886E-005  0.4132086E+04  0.7818608E-02  0.7978418E-01
          2   -1    0    0  501    0  0.00000000000E+00  0.00000000000E+00  0.24969612619E+04  0.24969612619E+04  0.00000000000E+00 0. -1.
         -2   -1    0    0    0  501 -0.00000000000E+00 -0.00000000000E+00 -0.17094913229E+04  0.17094913229E+04  0.00000000000E+00 0.  1.
         23    2    1    2    0    0 -0.93636573681E+03 -0.71888304148E+03  0.21187696047E+04  0.24271458601E+04  0.90987737340E+02 0.  0.
         13    1    3    3    0    0 -0.23610461692E+03 -0.13317290460E+03  0.48177420383E+03  0.55279905583E+03  0.00000000000E+00 0. -1.
        -13    1    3    3    0    0 -0.70026111988E+03 -0.58571013688E+03  0.16369954008E+04  0.18743468043E+04  0.00000000000E+00 0.  1.
         22    1    1    2    0    0  0.93636573681E+03  0.71888304148E+03 -0.13312996657E+04  0.17793067246E+04  0.00000000000E+00 0.  1.
<mgrwt>
<rscale>  0 0.41320860E+04</rscale>
<asrwt>0</asrwt>
<pdfrwt beam="1">  1        2 0.38414789E+00 0.41320860E+04</pdfrwt>
<pdfrwt beam="2">  1       -2 0.26299866E+00 0.41320860E+04</pdfrwt>
<totfact> 0.14591849E-01</totfact>
</mgrwt>
</event>
<event>
 6    1  0.1001928E-005  0.3101072E+04  0.7818608E-02  0.8215444E-01
          2   -1    0    0  501    0  0.00000000000E+00  0.00000000000E+00  0.11291982186E+04  0.11291982186E+04  0.00000000000E+00 0. -1.
         -2   -1    0    0    0  501 -0.00000000000E+00 -0.00000000000E+00 -0.21290875039E+04  0.21290875039E+04  0.00000000000E+00 0.  1.
         23    2    1    2    0    0 -0.10338094861E+04 -0.87336462811E+03  0.29183762355E+03  0.13874339821E+04  0.90972683280E+02 0.  0.
         11    1    3    3    0    0 -0.74614904958E+03 -0.67605331899E+03  0.23611855218E+03  0.10341849278E+04  0.00000000000E+00 0. -1.
        -11    1    3    3    0    0 -0.28766043652E+03 -0.19731130912E+03  0.55719071365E+02  0.35324905429E+03  0.00000000000E+00 0.  1.
         22    1    1    2    0    0  0.10338094861E+04  0.87336462811E+03 -0.12917269088E+04  0.18708517403E+04  0.00000000000E+00 0.  1.
<mgrwt>
<rscale>  0 0.31010720E+04</rscale>
<asrwt>0</asrwt>
<pdfrwt beam="1">  1        2 0.17372280E+00 0.31010720E+04</pdfrwt>
<pdfrwt beam="2">  1       -2 0.32755192E+00 0.31010720E+04</pdfrwt>
<totfact> 0.38144230E-01</totfact>
</mgrwt>
</event>
<event>
 6    1  0.1001928E-005  0.2108540E+04  0.7818608E-02  0.8557491E-01
          2   -1    0    0  501    0  0.00000000000E+00  0.00000000000E+00  0.23186208711E+04  0.23186208711E+04  0.00000000000E+00 0. -1.
         -2   -1    0    0    0  501 -0.00000000000E+00 -0.00000000000E+00 -0.47937323177E+03  0.47937323177E+03  0.00000000000E+00 0.  1.
         23    2    1    2    0    0  0.64316139366E+03  0.58649318699E+03  0.13655118435E+03  0.88571638913E+03  0.90644687387E+02 0.  0.
         13    1    3    3    0    0  0.31021617341E+03  0.34411008023E+03  0.72727923498E+02  0.46897246445E+03  0.00000000000E+00 0. -1.
        -13    1    3    3    0    0  0.33294522025E+03  0.24238310676E+03  0.63823260853E+02  0.41674392468E+03  0.00000000000E+00 0.  1.
         22    1    1    2    0    0 -0.64316139366E+03 -0.58649318699E+03  0.17026964550E+04  0.19122777138E+04  0.00000000000E+00 0. -1.
<mgrwt>
<rscale>  0 0.21085396E+04</rscale>
<asrwt>0</asrwt>
<pdfrwt beam="1">  1        2 0.35671090E+00 0.21085396E+04</pdfrwt>
<pdfrwt beam="2">  1       -2 0.73749729E-01 0.21085396E+04</pdfrwt>
<totfact> 0.67533373E+00</totfact>
</mgrwt>
</event>
<event>
 6    1  0.1001928E-005  0.5307816E+03  0.7818608E-02  0.1006043E+00
          2   -1    0    0  501    0  0.00000000000E+00  0.00000000000E+00  0.45224048071E+03  0.45224048071E+03  0.00000000000E+00 0. -1.
         -2   -1    0    0    0  501 -0.00000000000E+00 -0.00000000000E+00 -0.15574076809E+03  0.15574076809E+03  0.00000000000E+00 0.  1.
         23    2    1    2    0    0 -0.25725330858E+02  0.21389401517E+03 -0.91105359913E+01  0.23406940567E+03  0.91066143177E+02 0.  0.
         13    1    3    3    0    0  0.15423862676E+02  0.17806838125E+03  0.11695059729E+00  0.17873516055E+03  0.00000000000E+00 0.  1.
        -13    1    3    3    0    0 -0.41149193534E+02  0.35825633920E+02 -0.92274865886E+01  0.55334245120E+02  0.00000000000E+00 0. -1.
         22    1    1    2    0    0  0.25725330858E+02 -0.21389401517E+03  0.30561024862E+03  0.37391184313E+03  0.00000000000E+00 0. -1.
<mgrwt>
<rscale>  0 0.53078161E+03</rscale>
<asrwt>0</asrwt>
<pdfrwt beam="1">  1        2 0.69575458E-01 0.53078161E+03</pdfrwt>
<pdfrwt beam="2">  1       -2 0.23960118E-01 0.53078161E+03</pdfrwt>
<totfact> 0.10723102E+03</totfact>
</mgrwt>
</event>
<event>
 6    1  0.1001928E-005  0.1645401E+04  0.7818608E-02  0.8793132E-01
         -2   -1    0    0    0  501 -0.00000000000E+00  0.00000000000E+00  0.27074712577E+03  0.27074712577E+03  0.00000000000E+00 0.  1.
          2   -1    0    0  501    0  0.00000000000E+00 -0.00000000000E+00 -0.24998838907E+04  0.24998838907E+04  0.00000000000E+00 0. -1.
         23    2    1    2    0    0 -0.10936350031E+03  0.11645418281E+03 -0.24726618116E+04  0.24793812950E+04  0.88052366435E+02 0.  0.
         13    1    3    3    0    0 -0.25684630707E+02 -0.38270514847E+01 -0.76632559585E+03  0.76676545660E+03  0.00000000000E+00 0. -1.
        -13    1    3    3    0    0 -0.83678869603E+02  0.12028123430E+03 -0.17063362158E+04  0.17126158384E+04  0.00000000000E+00 0.  1.
         22    1    1    2    0    0  0.10936350031E+03 -0.11645418281E+03  0.24352504671E+03  0.29124972149E+03  0.00000000000E+00 0.  1.
<mgrwt>
<rscale>  0 0.16454013E+04</rscale>
<asrwt>0</asrwt>
<pdfrwt beam="1">  1        2 0.38459752E+00 0.16454013E+04</pdfrwt>
<pdfrwt beam="2">  1       -2 0.41653404E-01 0.16454013E+04</pdfrwt>
<totfact> 0.18204410E+01</totfact>
</mgrwt>
</event>
<event>
 6    1  0.1001928E-005  0.1593458E+04  0.7818608E-02  0.8824577E-01
         -1   -1    0    0    0  501 -0.00000000000E+00  0.00000000000E+00  0.23728607621E+03  0.23728607621E+03  0.00000000000E+00 0.  1.
          1   -1    0    0  501    0  0.00000000000E+00 -0.00000000000E+00 -0.26751565566E+04  0.26751565566E+04  0.00000000000E+00 0. -1.
         23    2    1    2    0    0  0.20761343973E+03 -0.76049578467E+03 -0.13980219166E+04  0.16075509843E+04  0.91091760280E+02 0.  0.
         13    1    3    3    0    0  0.90014770357E+02 -0.19914062532E+03 -0.34286204063E+03  0.40658827632E+03  0.00000000000E+00 0. -1.
        -13    1    3    3    0    0  0.11759866937E+03 -0.56135515935E+03 -0.10551598760E+04  0.12009627080E+04  0.00000000000E+00 0.  1.
         22    1    1    2    0    0 -0.20761343973E+03  0.76049578467E+03 -0.10398485637E+04  0.13048916485E+04  0.00000000000E+00 0.  1.
<mgrwt>
<rscale>  0 0.15934584E+04</rscale>
<asrwt>0</asrwt>
<pdfrwt beam="1">  1        1 0.41156252E+00 0.15934584E+04</pdfrwt>
<pdfrwt beam="2">  1       -1 0.36505552E-01 0.15934584E+04</pdfrwt>
<totfact> 0.70769760E+00</totfact>
</mgrwt>
</event>
<event>
 6    1  0.1001928E-005  0.1319925E+04  0.7818608E-02  0.9013912E-01
         -2   -1    0    0    0  501 -0.00000000000E+00  0.00000000000E+00  0.21460271066E+03  0.21460271066E+03  0.00000000000E+00 0. -1.
          2   -1    0    0  501    0  0.00000000000E+00 -0.00000000000E+00 -0.20295658892E+04  0.20295658892E+04  0.00000000000E+00 0.  1.
         23    2    1    2    0    0  0.48520479170E+03  0.27031084086E+03 -0.31608647316E+03  0.64569338312E+03  0.92291093392E+02 0.  0.
         13    1    3    3    0    0  0.18122640399E+03  0.10106995980E+03 -0.17041107371E+03  0.26851085699E+03  0.00000000000E+00 0. -1.
        -13    1    3    3    0    0  0.30397838771E+03  0.16924088107E+03 -0.14567539945E+03  0.37718252613E+03  0.00000000000E+00 0.  1.
         22    1    1    2    0    0 -0.48520479170E+03 -0.27031084086E+03 -0.14988767054E+04  0.15984752168E+04  0.00000000000E+00 0. -1.
<mgrwt>
<rscale>  0 0.13199248E+04</rscale>
<asrwt>0</asrwt>
<pdfrwt beam="1">  1        2 0.31224091E+00 0.13199248E+04</pdfrwt>
<pdfrwt beam="2">  1       -2 0.33015802E-01 0.13199248E+04</pdfrwt>
<totfact> 0.53965351E+01</totfact>
</mgrwt>
</event>
<event>
 6    1  0.1001928E-005  0.1160007E+04  0.7818608E-02  0.9148601E-01
         -2   -1    0    0    0  501 -0.00000000000E+00  0.00000000000E+00  0.37893168810E+03  0.37893168810E+03  0.00000000000E+00 0.  1.
          2   -1    0    0  501    0  0.00000000000E+00 -0.00000000000E+00 -0.88776937339E+03  0.88776937339E+03  0.00000000000E+00 0. -1.
         23    2    1    2    0    0  0.43716309114E+03  0.29475350330E+03 -0.17801936071E+01  0.53519679231E+03  0.91876228947E+02 0.  0.
         13    1    3    3    0    0  0.13489287574E+03  0.73468873059E+02  0.38703324061E+02  0.15840363167E+03  0.00000000000E+00 0.  1.
        -13    1    3    3    0    0  0.30227021540E+03  0.22128463024E+03 -0.40483517668E+02  0.37679316064E+03  0.00000000000E+00 0. -1.
         22    1    1    2    0    0 -0.43716309114E+03 -0.29475350330E+03 -0.50705749168E+03  0.73150426919E+03  0.00000000000E+00 0. -1.
<mgrwt>
<rscale>  0 0.11600068E+04</rscale>
<asrwt>0</asrwt>
<pdfrwt beam="1">  1        2 0.13657990E+00 0.11600068E+04</pdfrwt>
<pdfrwt beam="2">  1       -2 0.58297184E-01 0.11600068E+04</pdfrwt>
<totfact> 0.81392120E+01</totfact>
</mgrwt>
</event>
<event>
 6    1  0.1001928E-005  0.2792712E+04  0.7818608E-02  0.8305534E-01
          1   -1    0    0  501    0  0.00000000000E+00  0.00000000000E+00  0.43602015616E+04  0.43602015616E+04  0.00000000000E+00 0. -1.
         -1   -1    0    0    0  501 -0.00000000000E+00 -0.00000000000E+00 -0.44718358419E+03  0.44718358419E+03  0.00000000000E+00 0.  1.
         23    2    1    2    0    0 -0.50614973694E+03  0.57308847976E+03  0.39668777659E+04  0.40408873711E+04  0.89630211288E+02 0.  0.
         11    1    3    3    0    0 -0.15561189456E+03  0.21372449160E+03  0.15556542019E+04  0.15779585597E+04  0.00000000000E+00 0.  1.
        -11    1    3    3    0    0 -0.35053784238E+03  0.35936398816E+03  0.24112235639E+04  0.24629288114E+04  0.00000000000E+00 0. -1.
         22    1    1    2    0    0  0.50614973694E+03 -0.57308847976E+03 -0.53859788435E+02  0.76649777472E+03  0.00000000000E+00 0.  1.
<mgrwt>
<rscale>  0 0.27927123E+04</rscale>
<asrwt>0</asrwt>
<pdfrwt beam="1">  1        1 0.67080021E+00 0.27927123E+04</pdfrwt>
<pdfrwt beam="2">  1       -1 0.68797477E-01 0.27927123E+04</pdfrwt>
<totfact> 0.82481880E-02</totfact>
</mgrwt>
</event>
<event>
 6    1  0.1001928E-005  0.1722658E+04  0.7818608E-02  0.8748546E-01
         -2   -1    0    0    0  501 -0.00000000000E+00  0.00000000000E+00  0.52993844495E+03  0.52993844495E+03  0.00000000000E+00 0.  1.
          2   -1    0    0  501    0  0.00000000000E+00 -0.00000000000E+00 -0.13999507104E+04  0.13999507104E+04  0.00000000000E+00 0. -1.
         23    2    1    2    0    0  0.11035731050E+03 -0.75190947608E+03  0.12256960350E+02  0.76543839085E+03  0.90548886858E+02 0.  0.
         11    1    3    3    0    0  0.11117752204E+03 -0.51201651894E+03  0.30623125540E+02  0.52484200756E+03  0.00000000000E+00 0. -1.
        -11    1    3    3    0    0 -0.82021153743E+00 -0.23989295713E+03 -0.18366165190E+02  0.24059638329E+03  0.00000000000E+00 0.  1.
         22    1    1    2    0    0 -0.11035731050E+03  0.75190947608E+03 -0.88226922585E+03  0.11644507646E+04  0.00000000000E+00 0.  1.
<mgrwt>
<rscale>  0 0.17226581E+04</rscale>
<asrwt>0</asrwt>
<pdfrwt beam="1">  1        2 0.21537703E+00 0.17226581E+04</pdfrwt>
<pdfrwt beam="2">  1       -2 0.81528994E-01 0.17226581E+04</pdfrwt>
<totfact> 0.18207378E+01</totfact>
</mgrwt>
</event>
<event>
 6    1  0.1001928E-005  0.1847172E+04  0.7818608E-02  0.8681609E-01
          2   -1    0    0  501    0  0.00000000000E+00  0.00000000000E+00  0.10287424503E+04  0.10287424503E+04  0.00000000000E+00 0. -1.
         -2   -1    0    0    0  501 -0.00000000000E+00 -0.00000000000E+00 -0.82917846510E+03  0.82917846510E+03  0.00000000000E+00 0.  1.
         23    2    1    2    0    0 -0.38801050510E+03 -0.19548696340E+03  0.91723478680E+03  0.10189818924E+04  0.90758679761E+02 0.  0.
         13    1    3    3    0    0 -0.29051081531E+03 -0.16495299441E+03  0.61404301275E+03  0.69903851516E+03  0.00000000000E+00 0. -1.
        -13    1    3    3    0    0 -0.97499689792E+02 -0.30533968992E+02  0.30319177405E+03  0.31994337722E+03  0.00000000000E+00 0.  1.
         22    1    1    2    0    0  0.38801050510E+03  0.19548696340E+03 -0.71767080159E+03  0.83893902304E+03  0.00000000000E+00 0.  1.
<mgrwt>
<rscale>  0 0.18471720E+04</rscale>
<asrwt>0</asrwt>
<pdfrwt beam="1">  1        2 0.15826807E+00 0.18471720E+04</pdfrwt>
<pdfrwt beam="2">  1       -2 0.12756592E+00 0.18471720E+04</pdfrwt>
<totfact> 0.10345689E+01</totfact>
</mgrwt>
</event>
<event>
 6    1  0.1001928E-005  0.3282608E+04  0.7818608E-02  0.8167335E-01
         -2   -1    0    0    0  501 -0.00000000000E+00  0.00000000000E+00  0.15486056873E+04  0.15486056873E+04  0.00000000000E+00 0.  1.
          2   -1    0    0  501    0  0.00000000000E+00 -0.00000000000E+00 -0.17395509868E+04  0.17395509868E+04  0.00000000000E+00 0. -1.
         23    2    1    2    0    0 -0.52947606335E+02 -0.16234467751E+04 -0.32241924931E+03  0.16585345460E+04  0.91650353210E+02 0.  0.
         11    1    3    3    0    0  0.11975804198E+02 -0.30324525508E+03 -0.31594816010E+02  0.30512183962E+03  0.00000000000E+00 0.  1.
        -11    1    3    3    0    0 -0.64923410533E+02 -0.13202015201E+04 -0.29082443330E+03  0.13534127064E+04  0.00000000000E+00 0. -1.
         22    1    1    2    0    0  0.52947606335E+02  0.16234467751E+04  0.13147394979E+03  0.16296221280E+04  0.00000000000E+00 0.  1.
<mgrwt>
<rscale>  0 0.32826078E+04</rscale>
<asrwt>0</asrwt>
<pdfrwt beam="1">  1        2 0.26762323E+00 0.32826078E+04</pdfrwt>
<pdfrwt beam="2">  1       -2 0.23824703E+00 0.32826078E+04</pdfrwt>
<totfact> 0.59225813E-01</totfact>
</mgrwt>
</event>
<event>
 6    1  0.1001928E-005  0.1190831E+04  0.7818608E-02  0.9120921E-01
         -4   -1    0    0    0  501 -0.00000000000E+00  0.00000000000E+00  0.35546919685E+03  0.35546919685E+03  0.00000000000E+00 0.  1.
          4   -1    0    0  501    0  0.00000000000E+00 -0.00000000000E+00 -0.99732794478E+03  0.99732794478E+03  0.00000000000E+00 0. -1.
         23    2    1    2    0    0  0.53078937639E+03 -0.14401470802E+03 -0.57083938507E+03  0.79825106770E+03  0.94178369753E+02 0.  0.
         11    1    3    3    0    0  0.20156419601E+03 -0.90083737723E+02 -0.18378698267E+03  0.28726444248E+03  0.00000000000E+00 0. -1.
        -11    1    3    3    0    0  0.32922518038E+03 -0.53930970297E+02 -0.38705240240E+03  0.51098662522E+03  0.00000000000E+00 0.  1.
         22    1    1    2    0    0 -0.53078937639E+03  0.14401470802E+03 -0.71019362857E+02  0.55454607393E+03  0.00000000000E+00 0.  1.
<mgrwt>
<rscale>  0 0.11908306E+04</rscale>
<asrwt>0</asrwt>
<pdfrwt beam="1">  1        4 0.15343506E+00 0.11908306E+04</pdfrwt>
<pdfrwt beam="2">  1       -4 0.54687570E-01 0.11908306E+04</pdfrwt>
<totfact> 0.17643100E+00</totfact>
</mgrwt>
</event>
<event>
 6    1  0.1001928E-005  0.2231740E+04  0.7818608E-02  0.8505332E-01
          1   -1    0    0  501    0  0.00000000000E+00  0.00000000000E+00  0.14978903527E+04  0.14978903527E+04  0.00000000000E+00 0. -1.
         -1   -1    0    0    0  501 -0.00000000000E+00 -0.00000000000E+00 -0.83127941671E+03  0.83127941671E+03  0.00000000000E+00 0.  1.
         23    2    1    2    0    0 -0.31520588608E+03 -0.10684358636E+04  0.33683433997E+03  0.11674199906E+04  0.92206921753E+02 0.  0.
         13    1    3    3    0    0 -0.14631928277E+03 -0.34370396142E+03  0.11866932707E+03  0.39194917374E+03  0.00000000000E+00 0. -1.
        -13    1    3    3    0    0 -0.16888660331E+03 -0.72473190223E+03  0.21816501290E+03  0.77547081682E+03  0.00000000000E+00 0.  1.
         22    1    1    2    0    0  0.31520588608E+03  0.10684358636E+04  0.32977659598E+03  0.11617497788E+04  0.00000000000E+00 0. -1.
<mgrwt>
<rscale>  0 0.22317396E+04</rscale>
<asrwt>0</asrwt>
<pdfrwt beam="1">  1        1 0.23044467E+00 0.22317396E+04</pdfrwt>
<pdfrwt beam="2">  1       -1 0.12788914E+00 0.22317396E+04</pdfrwt>
<totfact> 0.31541460E+00</totfact>
</mgrwt>
</event>
<event>
 6    1  0.1001928E-005  0.1403566E+04  0.7818608E-02  0.8951241E-01
         -2   -1    0    0    0  501 -0.00000000000E+00  0.00000000000E+00  0.14160360375E+03  0.14160360375E+03  0.00000000000E+00 0.  1.
          2   -1    0    0  501    0  0.00000000000E+00 -0.00000000000E+00 -0.34780168364E+04  0.34780168364E+04  0.00000000000E+00 0. -1.
         23    2    1    2    0    0  0.30213863730E+03 -0.54331688386E+03 -0.84772723600E+03  0.10544617740E+04  0.82262833712E+02 0.  0.
         13    1    3    3    0    0  0.21969823256E+03 -0.32841694382E+03 -0.49654841123E+03  0.63457491841E+03  0.00000000000E+00 0. -1.
        -13    1    3    3    0    0  0.82440404747E+02 -0.21489994005E+03 -0.35117882477E+03  0.41988685563E+03  0.00000000000E+00 0.  1.
         22    1    1    2    0    0 -0.30213863730E+03  0.54331688386E+03 -0.24886859967E+04  0.25651586661E+04  0.00000000000E+00 0. -1.
<mgrwt>
<rscale>  0 0.14035665E+04</rscale>
<asrwt>0</asrwt>
<pdfrwt beam="1">  1        2 0.53507950E+00 0.14035665E+04</pdfrwt>
<pdfrwt beam="2">  1       -2 0.21785170E-01 0.14035665E+04</pdfrwt>
<totfact> 0.15311970E+01</totfact>
</mgrwt>
</event>
<event>
 6    1  0.1001928E-005  0.2158122E+04  0.7818608E-02  0.8536064E-01
          1   -1    0    0  501    0  0.00000000000E+00  0.00000000000E+00  0.12685471150E+04  0.12685471150E+04  0.00000000000E+00 0. -1.
         -1   -1    0    0    0  501 -0.00000000000E+00 -0.00000000000E+00 -0.91787900375E+03  0.91787900375E+03  0.00000000000E+00 0.  1.
         23    2    1    2    0    0  0.41847012052E+03  0.39299017968E+03 -0.74769990932E+03  0.94708321556E+03  0.91394418357E+02 0.  0.
         11    1    3    3    0    0  0.20335033860E+03  0.18967631137E+03 -0.43687235497E+03  0.51786669891E+03  0.00000000000E+00 0. -1.
        -11    1    3    3    0    0  0.21511978193E+03  0.20331386831E+03 -0.31082755434E+03  0.42921651665E+03  0.00000000000E+00 0.  1.
         22    1    1    2    0    0 -0.41847012052E+03 -0.39299017968E+03  0.10983680206E+04  0.12393429032E+04  0.00000000000E+00 0. -1.
<mgrwt>
<rscale>  0 0.21581221E+04</rscale>
<asrwt>0</asrwt>
<pdfrwt beam="1">  1        1 0.19516110E+00 0.21581221E+04</pdfrwt>
<pdfrwt beam="2">  1       -1 0.14121215E+00 0.21581221E+04</pdfrwt>
<totfact> 0.35732034E+00</totfact>
</mgrwt>
</event>
<event>
 6    1  0.1001928E-005  0.6573507E+04  0.7818608E-02  0.7623094E-01
         -2   -1    0    0    0  501 -0.00000000000E+00  0.00000000000E+00  0.27083022883E+04  0.27083022883E+04  0.00000000000E+00 0.  1.
          2   -1    0    0  501    0  0.00000000000E+00 -0.00000000000E+00 -0.39887525973E+04  0.39887525973E+04  0.00000000000E+00 0. -1.
         23    2    1    2    0    0  0.20261894448E+04 -0.72803048893E+03  0.18886459891E+04  0.28657831117E+04  0.10127740433E+03 0.  0.
         11    1    3    3    0    0  0.10407058034E+04 -0.32030977584E+03  0.95961840505E+03  0.14513905074E+04  0.00000000000E+00 0. -1.
        -11    1    3    3    0    0  0.98548364137E+03 -0.40772071309E+03  0.92902758400E+03  0.14143926043E+04  0.00000000000E+00 0.  1.
         22    1    1    2    0    0 -0.20261894448E+04  0.72803048893E+03 -0.31690962981E+04  0.38312717739E+04  0.00000000000E+00 0. -1.
<mgrwt>
<rscale>  0 0.65735068E+04</rscale>
<asrwt>0</asrwt>
<pdfrwt beam="1">  1        2 0.61365424E+00 0.65735068E+04</pdfrwt>
<pdfrwt beam="2">  1       -2 0.41666189E+00 0.65735068E+04</pdfrwt>
<totfact> 0.12940151E-03</totfact>
</mgrwt>
</event>
<event>
 6    1  0.1001928E-005  0.2076574E+04  0.7818608E-02  0.8571634E-01
         -2   -1    0    0    0  501 -0.00000000000E+00  0.00000000000E+00  0.39092158978E+03  0.39092158978E+03  0.00000000000E+00 0.  1.
          2   -1    0    0  501    0  0.00000000000E+00 -0.00000000000E+00 -0.27576873111E+04  0.27576873111E+04  0.00000000000E+00 0. -1.
         23    2    1    2    0    0 -0.38815431012E+03  0.63072359837E+03 -0.22847075458E+04  0.24034850386E+04  0.91519041436E+02 0.  0.
         11    1    3    3    0    0 -0.13352099601E+03  0.26291053622E+03 -0.10318160410E+04  0.10731235479E+04  0.00000000000E+00 0. -1.
        -11    1    3    3    0    0 -0.25463331411E+03  0.36781306215E+03 -0.12528915048E+04  0.13303614908E+04  0.00000000000E+00 0.  1.
         22    1    1    2    0    0  0.38815431012E+03 -0.63072359837E+03 -0.82058175554E+02  0.74512386231E+03  0.00000000000E+00 0.  1.
<mgrwt>
<rscale>  0 0.20765736E+04</rscale>
<asrwt>0</asrwt>
<pdfrwt beam="1">  1        2 0.42425959E+00 0.20765736E+04</pdfrwt>
<pdfrwt beam="2">  1       -2 0.60141783E-01 0.20765736E+04</pdfrwt>
<totfact> 0.58413414E+00</totfact>
</mgrwt>
</event>
<event>
 6    1  0.1001928E-005  0.6108408E+03  0.7818608E-02  0.9883167E-01
         -1   -1    0    0    0  501 -0.00000000000E+00  0.00000000000E+00  0.20612475910E+03  0.20612475910E+03  0.00000000000E+00 0.  1.
          1   -1    0    0  501    0  0.00000000000E+00 -0.00000000000E+00 -0.45254933977E+03  0.45254933977E+03  0.00000000000E+00 0. -1.
         23    2    1    2    0    0  0.20071011235E+03  0.66503051803E+02  0.10178433578E+03  0.25129632016E+03  0.89903194693E+02 0.  0.
         13    1    3    3    0    0  0.15305319093E+03  0.38765846051E+02  0.29889465883E+02  0.16069054186E+03  0.00000000000E+00 0. -1.
        -13    1    3    3    0    0  0.47656921417E+02  0.27737205752E+02  0.71894869902E+02  0.90605778293E+02  0.00000000000E+00 0.  1.
         22    1    1    2    0    0 -0.20071011235E+03 -0.66503051803E+02 -0.34820891645E+03  0.40737777872E+03  0.00000000000E+00 0.  1.
<mgrwt>
<rscale>  0 0.61084081E+03</rscale>
<asrwt>0</asrwt>
<pdfrwt beam="1">  1        1 0.69622975E-01 0.61084081E+03</pdfrwt>
<pdfrwt beam="2">  1       -1 0.31711501E-01 0.61084081E+03</pdfrwt>
<totfact> 0.47528401E+02</totfact>
</mgrwt>
</event>
<event>
 6    1  0.1001928E-005  0.1853440E+04  0.7818608E-02  0.8678386E-01
          2   -1    0    0  501    0  0.00000000000E+00  0.00000000000E+00  0.34855277958E+04  0.34855277958E+04  0.00000000000E+00 0. -1.
         -2   -1    0    0    0  501 -0.00000000000E+00 -0.00000000000E+00 -0.24639306914E+03  0.24639306914E+03  0.00000000000E+00 0.  1.
         23    2    1    2    0    0 -0.59169255997E+03 -0.17004644380E+03  0.30120811649E+04  0.30757431463E+04  0.92450414830E+02 0.  0.
         11    1    3    3    0    0 -0.23226177474E+03 -0.98514791706E+02  0.13977094838E+04  0.14202966230E+04  0.00000000000E+00 0.  1.
        -11    1    3    3    0    0 -0.35943078524E+03 -0.71531652090E+02  0.16143716811E+04  0.16554465233E+04  0.00000000000E+00 0. -1.
         22    1    1    2    0    0  0.59169255997E+03  0.17004644380E+03  0.22705356173E+03  0.65617771866E+03  0.00000000000E+00 0.  1.
<mgrwt>
<rscale>  0 0.18534399E+04</rscale>
<asrwt>0</asrwt>
<pdfrwt beam="1">  1        2 0.53623501E+00 0.18534399E+04</pdfrwt>
<pdfrwt beam="2">  1       -2 0.37906629E-01 0.18534399E+04</pdfrwt>
<totfact> 0.51757192E+00</totfact>
</mgrwt>
</event>
<event>
 6    1  0.1001928E-005  0.8397740E+03  0.7818608E-02  0.9504166E-01
         -3   -1    0    0    0  501 -0.00000000000E+00  0.00000000000E+00  0.28090732862E+03  0.28090732862E+03  0.00000000000E+00 0.  1.
          3   -1    0    0  501    0  0.00000000000E+00 -0.00000000000E+00 -0.62762720906E+03  0.62762720906E+03  0.00000000000E+00 0. -1.
         23    2    1    2    0    0 -0.21406892410E+03 -0.26680320827E+02  0.20825900566E+03  0.31310283899E+03  0.90134513720E+02 0.  0.
         11    1    3    3    0    0 -0.56492200577E+02 -0.42946968653E+02  0.37817282184E+02  0.80411178789E+02  0.00000000000E+00 0. -1.
        -11    1    3    3    0    0 -0.15757672352E+03  0.16266647826E+02  0.17044172348E+03  0.23269166020E+03  0.00000000000E+00 0.  1.
         22    1    1    2    0    0  0.21406892410E+03  0.26680320827E+02 -0.55497888611E+03  0.59543169869E+03  0.00000000000E+00 0. -1.
<mgrwt>
<rscale>  0 0.83977398E+03</rscale>
<asrwt>0</asrwt>
<pdfrwt beam="1">  1        3 0.96558031E-01 0.83977398E+03</pdfrwt>
<pdfrwt beam="2">  1       -3 0.43216513E-01 0.83977398E+03</pdfrwt>
<totfact> 0.13316891E+01</totfact>
</mgrwt>
</event>
<event>
 6    1  0.1001928E-005  0.1389594E+04  0.7818608E-02  0.8961386E-01
         -2   -1    0    0    0  501 -0.00000000000E+00  0.00000000000E+00  0.41498025102E+03  0.41498025102E+03  0.00000000000E+00 0. -1.
          2   -1    0    0  501    0  0.00000000000E+00 -0.00000000000E+00 -0.11632908044E+04  0.11632908044E+04  0.00000000000E+00 0.  1.
         23    2    1    2    0    0 -0.20906203799E+02 -0.63909775565E+03 -0.67590889496E+03  0.93474560076E+03  0.89518116700E+02 0.  0.
         11    1    3    3    0    0 -0.39424154086E+02 -0.18697419619E+03 -0.23590216303E+03  0.30358432847E+03  0.00000000000E+00 0.  1.
        -11    1    3    3    0    0  0.18517950287E+02 -0.45212355946E+03 -0.44000673192E+03  0.63116127229E+03  0.00000000000E+00 0. -1.
         22    1    1    2    0    0  0.20906203799E+02  0.63909775565E+03 -0.72401658414E+02  0.64352545465E+03  0.00000000000E+00 0. -1.
<mgrwt>
<rscale>  0 0.13895938E+04</rscale>
<asrwt>0</asrwt>
<pdfrwt beam="1">  1        2 0.17896782E+00 0.13895938E+04</pdfrwt>
<pdfrwt beam="2">  1       -2 0.63843116E-01 0.13895938E+04</pdfrwt>
<totfact> 0.44048319E+01</totfact>
</mgrwt>
</event>
<event>
 6    1  0.1001928E-005  0.3893698E+04  0.7818608E-02  0.8026341E-01
          1   -1    0    0  501    0  0.00000000000E+00  0.00000000000E+00  0.35195838841E+04  0.35195838841E+04  0.00000000000E+00 0. -1.
         -1   -1    0    0    0  501 -0.00000000000E+00 -0.00000000000E+00 -0.10768948794E+04  0.10768948794E+04  0.00000000000E+00 0.  1.
         23    2    1    2    0    0  0.10125573394E+04  0.16410226161E+04  0.91463935704E+03  0.21361610364E+04  0.91603645428E+02 0.  0.
         11    1    3    3    0    0  0.34932413047E+03  0.49308796169E+03  0.30662512503E+03  0.67762973178E+03  0.00000000000E+00 0. -1.
        -11    1    3    3    0    0  0.66323320893E+03  0.11479346545E+04  0.60801423200E+03  0.14585313047E+04  0.00000000000E+00 0.  1.
         22    1    1    2    0    0 -0.10125573394E+04 -0.16410226161E+04  0.15280496477E+04  0.24603177271E+04  0.00000000000E+00 0. -1.
<mgrwt>
<rscale>  0 0.38936984E+04</rscale>
<asrwt>0</asrwt>
<pdfrwt beam="1">  1        1 0.54147444E+00 0.38936984E+04</pdfrwt>
<pdfrwt beam="2">  1       -1 0.16567614E+00 0.38936984E+04</pdfrwt>
<totfact> 0.50346508E-02</totfact>
</mgrwt>
</event>
<event>
 6    1  0.1001928E-005  0.1286560E+04  0.7818608E-02  0.9040292E-01
          2   -1    0    0  501    0  0.00000000000E+00  0.00000000000E+00  0.26202711166E+04  0.26202711166E+04  0.00000000000E+00 0. -1.
         -2   -1    0    0    0  501 -0.00000000000E+00 -0.00000000000E+00 -0.15792608679E+03  0.15792608679E+03  0.00000000000E+00 0.  1.
         23    2    1    2    0    0  0.50392875445E+01  0.63916042806E+03  0.13073302123E+04  0.14581174043E+04  0.91883804863E+02 0.  0.
         11    1    3    3    0    0  0.33941820663E+02  0.13264605061E+03  0.23899201817E+03  0.27543457786E+03  0.00000000000E+00 0.  1.
        -11    1    3    3    0    0 -0.28902533118E+02  0.50651437745E+03  0.10683381941E+04  0.11826828265E+04  0.00000000000E+00 0. -1.
         22    1    1    2    0    0 -0.50392875445E+01 -0.63916042806E+03  0.11550148175E+04  0.13200797990E+04  0.00000000000E+00 0.  1.
<mgrwt>
<rscale>  0 0.12865600E+04</rscale>
<asrwt>0</asrwt>
<pdfrwt beam="1">  1        2 0.40311860E+00 0.12865600E+04</pdfrwt>
<pdfrwt beam="2">  1       -2 0.24296323E-01 0.12865600E+04</pdfrwt>
<totfact> 0.44163571E+01</totfact>
</mgrwt>
</event>
<event>
 6    1  0.1001928E-005  0.2549672E+04  0.7818608E-02  0.8385500E-01
         -2   -1    0    0    0  501 -0.00000000000E+00  0.00000000000E+00  0.12108256846E+04  0.12108256846E+04  0.00000000000E+00 0. -1.
          2   -1    0    0  501    0  0.00000000000E+00 -0.00000000000E+00 -0.13422300316E+04  0.13422300316E+04  0.00000000000E+00 0.  1.
         23    2    1    2    0    0  0.72344819001E+03  0.11015909004E+02 -0.11148442547E+04  0.13321328333E+04  0.90562351109E+02 0.  0.
         13    1    3    3    0    0  0.37328565753E+03 -0.39559332514E+02 -0.57128650563E+03  0.68357544896E+03  0.00000000000E+00 0. -1.
        -13    1    3    3    0    0  0.35016253248E+03  0.50575241518E+02 -0.54355774903E+03  0.64855738430E+03  0.00000000000E+00 0.  1.
         22    1    1    2    0    0 -0.72344819001E+03 -0.11015909004E+02  0.98343990769E+03  0.12209228829E+04  0.00000000000E+00 0. -1.
<mgrwt>
<rscale>  0 0.25496718E+04</rscale>
<asrwt>0</asrwt>
<pdfrwt beam="1">  1        2 0.20649693E+00 0.25496718E+04</pdfrwt>
<pdfrwt beam="2">  1       -2 0.18628088E+00 0.25496718E+04</pdfrwt>
<totfact> 0.22790996E+00</totfact>
</mgrwt>
</event>
<event>
 6    1  0.1001928E-005  0.2344784E+04  0.7818608E-02  0.8460470E-01
         -2   -1    0    0    0  501 -0.00000000000E+00  0.00000000000E+00  0.48211762894E+03  0.48211762894E+03  0.00000000000E+00 0.  1.
          2   -1    0    0  501    0  0.00000000000E+00 -0.00000000000E+00 -0.28509700059E+04  0.28509700059E+04  0.00000000000E+00 0. -1.
         23    2    1    2    0    0 -0.43258718330E+03  0.12161635976E+03  0.34962530117E+03  0.57772139847E+03  0.97989555135E+02 0.  0.
         13    1    3    3    0    0 -0.10655032160E+03  0.58920370328E+01  0.12890281115E+03  0.16734282732E+03  0.00000000000E+00 0.  1.
        -13    1    3    3    0    0 -0.32603686170E+03  0.11572432273E+03  0.22072249002E+03  0.41037857115E+03  0.00000000000E+00 0. -1.
         22    1    1    2    0    0  0.43258718330E+03 -0.12161635976E+03 -0.27184776781E+04  0.27553662364E+04  0.00000000000E+00 0. -1.
<mgrwt>
<rscale>  0 0.23447839E+04</rscale>
<asrwt>0</asrwt>
<pdfrwt beam="1">  1        2 0.43861077E+00 0.23447839E+04</pdfrwt>
<pdfrwt beam="2">  1       -2 0.74171943E-01 0.23447839E+04</pdfrwt>
<totfact> 0.31841346E+00</totfact>
</mgrwt>
</event>
<event>
 6    1  0.1001928E-005  0.5439991E+04  0.7818608E-02  0.7764001E-01
         -2   -1    0    0    0  501 -0.00000000000E+00  0.00000000000E+00  0.33376873042E+04  0.33376873042E+04  0.00000000000E+00 0.  1.
          2   -1    0    0  501    0  0.00000000000E+00 -0.00000000000E+00 -0.22166175353E+04  0.22166175353E+04  0.00000000000E+00 0. -1.
         23    2    1    2    0    0 -0.20740638389E+04  0.30215471075E+01 -0.12347471365E+04  0.24155752829E+04  0.93024289684E+02 0.  0.
         13    1    3    3    0    0 -0.73832452577E+03 -0.37667333737E+02 -0.41429357563E+03  0.84745566267E+03  0.00000000000E+00 0. -1.
        -13    1    3    3    0    0 -0.13357393131E+04  0.40688880845E+02 -0.82045356090E+03  0.15681196202E+04  0.00000000000E+00 0.  1.
         22    1    1    2    0    0  0.20740638389E+04 -0.30215471075E+01  0.23558169054E+04  0.31387295566E+04  0.00000000000E+00 0.  1.
<mgrwt>
<rscale>  0 0.54399913E+04</rscale>
<asrwt>0</asrwt>
<pdfrwt beam="1">  1        2 0.34101808E+00 0.54399913E+04</pdfrwt>
<pdfrwt beam="2">  1       -2 0.51349035E+00 0.54399913E+04</pdfrwt>
<totfact> 0.49021539E-03</totfact>
</mgrwt>
</event>
<event>
 6    1  0.1001928E-005  0.3180464E+04  0.7818608E-02  0.8193996E-01
          1   -1    0    0  501    0  0.00000000000E+00  0.00000000000E+00  0.12586144421E+04  0.12586144421E+04  0.00000000000E+00 0. -1.
         -1   -1    0    0    0  501 -0.00000000000E+00 -0.00000000000E+00 -0.20092239620E+04  0.20092239620E+04  0.00000000000E+00 0.  1.
         23    2    1    2    0    0  0.13596445229E+04  0.41063446740E+03  0.35627247660E+03  0.14671602961E+04  0.91517005497E+02 0.  0.
         13    1    3    3    0    0  0.47454405692E+03  0.16866528333E+03  0.88836121816E+02  0.51140189313E+03  0.00000000000E+00 0.  1.
        -13    1    3    3    0    0  0.88510046600E+03  0.24196918408E+03  0.26743635478E+03  0.95575840296E+03  0.00000000000E+00 0. -1.
         22    1    1    2    0    0 -0.13596445229E+04 -0.41063446740E+03 -0.11068819965E+04  0.18006781080E+04  0.00000000000E+00 0.  1.
<mgrwt>
<rscale>  0 0.31804643E+04</rscale>
<asrwt>0</asrwt>
<pdfrwt beam="1">  1        1 0.19363299E+00 0.31804643E+04</pdfrwt>
<pdfrwt beam="2">  1       -1 0.30911138E+00 0.31804643E+04</pdfrwt>
<totfact> 0.23390330E-01</totfact>
</mgrwt>
</event>
<event>
 6    1  0.1001928E-005  0.1438282E+04  0.7818608E-02  0.8926565E-01
         -2   -1    0    0    0  501 -0.00000000000E+00  0.00000000000E+00  0.30728006290E+03  0.30728006290E+03  0.00000000000E+00 0.  1.
          2   -1    0    0  501    0  0.00000000000E+00 -0.00000000000E+00 -0.16830382917E+04  0.16830382917E+04  0.00000000000E+00 0. -1.
         23    2    1    2    0    0 -0.41508577754E+03  0.52636022331E+03 -0.10407344866E+04  0.12409238022E+04  0.86094853211E+02 0.  0.
         11    1    3    3    0    0 -0.26852261392E+03  0.31113785460E+03 -0.70499082120E+03  0.81604118568E+03  0.00000000000E+00 0.  1.
        -11    1    3    3    0    0 -0.14656316362E+03  0.21522236871E+03 -0.33574366543E+03  0.42488261649E+03  0.00000000000E+00 0. -1.
         22    1    1    2    0    0  0.41508577754E+03 -0.52636022331E+03 -0.33502374217E+03  0.74939455243E+03  0.00000000000E+00 0.  1.
<mgrwt>
<rscale>  0 0.14382825E+04</rscale>
<asrwt>0</asrwt>
<pdfrwt beam="1">  1        2 0.25892896E+00 0.14382825E+04</pdfrwt>
<pdfrwt beam="2">  1       -2 0.47273857E-01 0.14382825E+04</pdfrwt>
<totfact> 0.41250287E+01</totfact>
</mgrwt>
</event>
<event>
 6    1  0.1001928E-005  0.1037338E+04  0.7818608E-02  0.9268515E-01
         -1   -1    0    0    0  501 -0.00000000000E+00  0.00000000000E+00  0.29271956224E+03  0.29271956224E+03  0.00000000000E+00 0.  1.
          1   -1    0    0  501    0  0.00000000000E+00 -0.00000000000E+00 -0.91902779097E+03  0.91902779097E+03  0.00000000000E+00 0. -1.
         23    2    1    2    0    0  0.12909508250E+03 -0.15420630860E+03  0.23752196078E+03  0.32481571985E+03  0.92970124614E+02 0.  0.
         11    1    3    3    0    0  0.12607680738E+03 -0.12491489339E+03  0.14968340708E+03  0.23217281130E+03  0.00000000000E+00 0. -1.
        -11    1    3    3    0    0  0.30182751216E+01 -0.29291415213E+02  0.87838553693E+02  0.92642908551E+02  0.00000000000E+00 0.  1.
         22    1    1    2    0    0 -0.12909508250E+03  0.15420630860E+03 -0.86383018951E+03  0.88693163336E+03  0.00000000000E+00 0. -1.
<mgrwt>
<rscale>  0 0.10373378E+04</rscale>
<asrwt>0</asrwt>
<pdfrwt beam="1">  1        1 0.14138889E+00 0.10373378E+04</pdfrwt>
<pdfrwt beam="2">  1       -1 0.45033779E-01 0.10373378E+04</pdfrwt>
<totfact> 0.85842329E+01</totfact>
</mgrwt>
</event>
<event>
 6    1  0.1001928E-005  0.4411105E+04  0.7818608E-02  0.7926387E-01
         -1   -1    0    0    0  501 -0.00000000000E+00  0.00000000000E+00  0.19060614886E+04  0.19060614886E+04  0.00000000000E+00 0.  1.
          1   -1    0    0  501    0  0.00000000000E+00 -0.00000000000E+00 -0.25521016955E+04  0.25521016955E+04  0.00000000000E+00 0. -1.
         23    2    1    2    0    0 -0.47178436004E+03 -0.92305992180E+03  0.16432582542E+04  0.19450958262E+04  0.92086815963E+02 0.  0.
         11    1    3    3    0    0 -0.64683231063E+02 -0.19305501879E+03  0.36127826619E+03  0.41470006786E+03  0.00000000000E+00 0.  1.
        -11    1    3    3    0    0 -0.40710112898E+03 -0.73000490301E+03  0.12819799880E+04  0.15303957584E+04  0.00000000000E+00 0. -1.
         22    1    1    2    0    0  0.47178436004E+03  0.92305992180E+03 -0.22892984610E+04  0.25130673579E+04  0.00000000000E+00 0. -1.
<mgrwt>
<rscale>  0 0.44111054E+04</rscale>
<asrwt>0</asrwt>
<pdfrwt beam="1">  1        1 0.39263103E+00 0.44111054E+04</pdfrwt>
<pdfrwt beam="2">  1       -1 0.29324023E+00 0.44111054E+04</pdfrwt>
<totfact> 0.34460133E-02</totfact>
</mgrwt>
</event>
<event>
 6    1  0.1001928E-005  0.3175227E+04  0.7818608E-02  0.8195391E-01
         -2   -1    0    0    0  501 -0.00000000000E+00  0.00000000000E+00  0.70580808414E+03  0.70580808414E+03  0.00000000000E+00 0.  1.
          2   -1    0    0  501    0  0.00000000000E+00 -0.00000000000E+00 -0.35711069233E+04  0.35711069233E+04  0.00000000000E+00 0. -1.
         23    2    1    2    0    0 -0.83593603767E+03  0.75629266041E+03 -0.29368494950E+04  0.31473632629E+04  0.10021429574E+03 0.  0.
         11    1    3    3    0    0 -0.51656503452E+03  0.41328288999E+03 -0.16382256479E+04  0.17667556298E+04  0.00000000000E+00 0. -1.
        -11    1    3    3    0    0 -0.31937100314E+03  0.34300977041E+03 -0.12986238472E+04  0.13806076331E+04  0.00000000000E+00 0.  1.
         22    1    1    2    0    0  0.83593603767E+03 -0.75629266041E+03  0.71550655841E+02  0.11295517445E+04  0.00000000000E+00 0.  1.
<mgrwt>
<rscale>  0 0.31752267E+04</rscale>
<asrwt>0</asrwt>
<pdfrwt beam="1">  1        2 0.54940106E+00 0.31752267E+04</pdfrwt>
<pdfrwt beam="2">  1       -2 0.10858586E+00 0.31752267E+04</pdfrwt>
<totfact> 0.41366495E-01</totfact>
</mgrwt>
</event>
<event>
 6    1  0.1001928E-005  0.3571889E+04  0.7818608E-02  0.8096961E-01
         -2   -1    0    0    0  501 -0.00000000000E+00  0.00000000000E+00  0.23928713352E+04  0.23928713352E+04  0.00000000000E+00 0.  1.
          2   -1    0    0  501    0  0.00000000000E+00 -0.00000000000E+00 -0.13329584830E+04  0.13329584830E+04  0.00000000000E+00 0. -1.
         23    2    1    2    0    0  0.39752396872E+03 -0.15037844292E+04 -0.38275964070E+03  0.16043452350E+04  0.89586691428E+02 0.  0.
         13    1    3    3    0    0  0.13096112218E+03 -0.41955193354E+03 -0.71897851779E+02  0.44535821712E+03  0.00000000000E+00 0. -1.
        -13    1    3    3    0    0  0.26656284655E+03 -0.10842324956E+04 -0.31086178892E+03  0.11589870178E+04  0.00000000000E+00 0.  1.
         22    1    1    2    0    0 -0.39752396872E+03  0.15037844292E+04  0.14426724930E+04  0.21214845833E+04  0.00000000000E+00 0.  1.
<mgrwt>
<rscale>  0 0.35718892E+04</rscale>
<asrwt>0</asrwt>
<pdfrwt beam="1">  1        2 0.20507054E+00 0.35718892E+04</pdfrwt>
<pdfrwt beam="2">  1       -2 0.36813405E+00 0.35718892E+04</pdfrwt>
<totfact> 0.15410844E-01</totfact>
</mgrwt>
</event>
<event>
 6    1  0.1001928E-005  0.3634638E+04  0.7818608E-02  0.8082603E-01
         -2   -1    0    0    0  501 -0.00000000000E+00  0.00000000000E+00  0.87071210612E+03  0.87071210612E+03  0.00000000000E+00 0.  1.
          2   -1    0    0  501    0  0.00000000000E+00 -0.00000000000E+00 -0.37930419928E+04  0.37930419928E+04  0.00000000000E+00 0. -1.
         23    2    1    2    0    0 -0.11898023866E+04  0.59812492810E+03  0.12254478429E+03  0.13404056503E+04  0.91032600712E+02 0.  0.
         11    1    3    3    0    0 -0.69594025489E+03  0.30117155016E+03  0.57702633791E+02  0.76050426359E+03  0.00000000000E+00 0. -1.
        -11    1    3    3    0    0 -0.49386213176E+03  0.29695337794E+03  0.64842150495E+02  0.57990138673E+03  0.00000000000E+00 0.  1.
         22    1    1    2    0    0  0.11898023866E+04 -0.59812492810E+03 -0.30448746710E+04  0.33233484486E+04  0.00000000000E+00 0. -1.
<mgrwt>
<rscale>  0 0.36346376E+04</rscale>
<asrwt>0</asrwt>
<pdfrwt beam="1">  1        2 0.58354492E+00 0.36346376E+04</pdfrwt>
<pdfrwt beam="2">  1       -2 0.13395571E+00 0.36346376E+04</pdfrwt>
<totfact> 0.16220145E-01</totfact>
</mgrwt>
</event>
<event>
 6    1  0.1001928E-005  0.3182814E+04  0.7818608E-02  0.8193371E-01
          1   -1    0    0  501    0  0.00000000000E+00  0.00000000000E+00  0.19567107860E+04  0.19567107860E+04  0.00000000000E+00 0. -1.
         -1   -1    0    0    0  501 -0.00000000000E+00 -0.00000000000E+00 -0.12943030988E+04  0.12943030988E+04  0.00000000000E+00 0.  1.
         23    2    1    2    0    0  0.93533827733E+03 -0.12790961338E+04  0.19721908983E+03  0.15995463424E+04  0.93319448147E+02 0.  0.
         13    1    3    3    0    0  0.51099651253E+03 -0.76077761865E+03  0.14217166029E+03  0.92742266624E+03  0.00000000000E+00 0. -1.
        -13    1    3    3    0    0  0.42434176480E+03 -0.51831851517E+03  0.55047429539E+02  0.67212367614E+03  0.00000000000E+00 0.  1.
         22    1    1    2    0    0 -0.93533827733E+03  0.12790961338E+04  0.46518859731E+03  0.16514675424E+04  0.00000000000E+00 0. -1.
<mgrwt>
<rscale>  0 0.31828144E+04</rscale>
<asrwt>0</asrwt>
<pdfrwt beam="1">  1        1 0.30103243E+00 0.31828144E+04</pdfrwt>
<pdfrwt beam="2">  1       -1 0.19912355E+00 0.31828144E+04</pdfrwt>
<totfact> 0.40776153E-01</totfact>
</mgrwt>
</event>
<event>
 6    1  0.1001928E-005  0.5726755E+03  0.7818608E-02  0.9963775E-01
          1   -1    0    0  501    0  0.00000000000E+00  0.00000000000E+00  0.10910021600E+03  0.10910021600E+03  0.00000000000E+00 0. -1.
         -1   -1    0    0    0  501 -0.00000000000E+00 -0.00000000000E+00 -0.75150461488E+03  0.75150461488E+03  0.00000000000E+00 0.  1.
         23    2    1    2    0    0 -0.89014162078E+01 -0.29594054900E+02 -0.74621947468E+03  0.75228764269E+03  0.90211693517E+02 0.  0.
         11    1    3    3    0    0 -0.43353114130E+02  0.83035096975E+01 -0.34428324782E+03  0.34710141963E+03  0.00000000000E+00 0. -1.
        -11    1    3    3    0    0  0.34451697922E+02 -0.37897564597E+02 -0.40193622686E+03  0.40518622306E+03  0.00000000000E+00 0.  1.
         22    1    1    2    0    0  0.89014162078E+01  0.29594054900E+02  0.10381507580E+03  0.10831718820E+03  0.00000000000E+00 0. -1.
<mgrwt>
<rscale>  0 0.57267553E+03</rscale>
<asrwt>0</asrwt>
<pdfrwt beam="1">  1        1 0.16784649E-01 0.57267553E+03</pdfrwt>
<pdfrwt beam="2">  1       -1 0.11561609E+00 0.57267553E+03</pdfrwt>
<totfact> 0.22906119E+02</totfact>
</mgrwt>
</event>
<event>
 6    1  0.1001928E-005  0.3443949E+04  0.7818608E-02  0.8127203E-01
          1   -1    0    0  501    0  0.00000000000E+00  0.00000000000E+00  0.21014783359E+04  0.21014783359E+04  0.00000000000E+00 0. -1.
         -1   -1    0    0    0  501 -0.00000000000E+00 -0.00000000000E+00 -0.14110049509E+04  0.14110049509E+04  0.00000000000E+00 0.  1.
         23    2    1    2    0    0  0.12665019860E+04 -0.84182089823E+03  0.11667697552E+04  0.19188873726E+04  0.89929871735E+02 0.  0.
         11    1    3    3    0    0  0.70919763999E+03 -0.42090021665E+03  0.65124271405E+03  0.10508260358E+04  0.00000000000E+00 0. -1.
        -11    1    3    3    0    0  0.55730434604E+03 -0.42092068158E+03  0.51552704116E+03  0.86806133681E+03  0.00000000000E+00 0.  1.
         22    1    1    2    0    0 -0.12665019860E+04  0.84182089823E+03 -0.47629637019E+03  0.15935959141E+04  0.00000000000E+00 0. -1.
<mgrwt>
<rscale>  0 0.34439491E+04</rscale>
<asrwt>0</asrwt>
<pdfrwt beam="1">  1        1 0.32330436E+00 0.34439491E+04</pdfrwt>
<pdfrwt beam="2">  1       -1 0.21707768E+00 0.34439491E+04</pdfrwt>
<totfact> 0.23997392E-01</totfact>
</mgrwt>
</event>
<event>
 6    1  0.1001928E-005  0.3963747E+04  0.7818608E-02  0.8011900E-01
         -1   -1    0    0    0  501 -0.00000000000E+00  0.00000000000E+00  0.11123154258E+04  0.11123154258E+04  0.00000000000E+00 0.  1.
          1   -1    0    0  501    0  0.00000000000E+00 -0.00000000000E+00 -0.35312121407E+04  0.35312121407E+04  0.00000000000E+00 0. -1.
         23    2    1    2    0    0  0.93241150149E+03 -0.44770196198E+03  0.76895935112E+03  0.12920719794E+04  0.91231910515E+02 0.  0.
         11    1    3    3    0    0  0.23120700747E+03 -0.95881903260E+02  0.23294900957E+03  0.34192873634E+03  0.00000000000E+00 0. -1.
        -11    1    3    3    0    0  0.70120449402E+03 -0.35182005872E+03  0.53601034156E+03  0.95014324310E+03  0.00000000000E+00 0.  1.
         22    1    1    2    0    0 -0.93241150149E+03  0.44770196198E+03 -0.31878560660E+04  0.33514555871E+04  0.00000000000E+00 0. -1.
<mgrwt>
<rscale>  0 0.39637466E+04</rscale>
<asrwt>0</asrwt>
<pdfrwt beam="1">  1        1 0.54326339E+00 0.39637466E+04</pdfrwt>
<pdfrwt beam="2">  1       -1 0.17112546E+00 0.39637466E+04</pdfrwt>
<totfact> 0.44664153E-02</totfact>
</mgrwt>
</event>
<event>
 6    1  0.1001928E-005  0.4145040E+04  0.7818608E-02  0.7975910E-01
          2   -1    0    0  501    0  0.00000000000E+00  0.00000000000E+00  0.37767845265E+04  0.37767845265E+04  0.00000000000E+00 0. -1.
         -2   -1    0    0    0  501 -0.00000000000E+00 -0.00000000000E+00 -0.11373006036E+04  0.11373006036E+04  0.00000000000E+00 0.  1.
         23    2    1    2    0    0  0.19026042988E+04  0.81591698534E+03  0.14089755669E+04  0.25058130402E+04  0.90902140634E+02 0.  0.
         13    1    3    3    0    0  0.10927089637E+04  0.49710702130E+03  0.77258758520E+03  0.14275923251E+04  0.00000000000E+00 0.  1.
        -13    1    3    3    0    0  0.80989533515E+03  0.31880996404E+03  0.63638798172E+03  0.10782207150E+04  0.00000000000E+00 0. -1.
         22    1    1    2    0    0 -0.19026042988E+04 -0.81591698534E+03  0.12305083560E+04  0.24082720899E+04  0.00000000000E+00 0.  1.
<mgrwt>
<rscale>  0 0.41450401E+04</rscale>
<asrwt>0</asrwt>
<pdfrwt beam="1">  1        2 0.58104377E+00 0.41450401E+04</pdfrwt>
<pdfrwt beam="2">  1       -2 0.17496933E+00 0.41450401E+04</pdfrwt>
<totfact> 0.78167871E-02</totfact>
</mgrwt>
</event>
<event>
 6    1  0.1001928E-005  0.2932350E+04  0.7818608E-02  0.8263317E-01
         -2   -1    0    0    0  501 -0.00000000000E+00  0.00000000000E+00  0.11373862592E+04  0.11373862592E+04  0.00000000000E+00 0. -1.
          2   -1    0    0  501    0  0.00000000000E+00 -0.00000000000E+00 -0.18900073738E+04  0.18900073738E+04  0.00000000000E+00 0.  1.
         23    2    1    2    0    0  0.93835275251E+03 -0.73679856488E+03  0.50057841618E+03  0.12971083741E+04  0.92376242021E+02 0.  0.
         13    1    3    3    0    0  0.40844789521E+03 -0.28190388703E+03  0.17148135386E+03  0.52507650809E+03  0.00000000000E+00 0.  1.
        -13    1    3    3    0    0  0.52990485730E+03 -0.45489467785E+03  0.32909706232E+03  0.77203186602E+03  0.00000000000E+00 0. -1.
         22    1    1    2    0    0 -0.93835275251E+03  0.73679856488E+03 -0.12531995307E+04  0.17302852589E+04  0.00000000000E+00 0.  1.
<mgrwt>
<rscale>  0 0.29323495E+04</rscale>
<asrwt>0</asrwt>
<pdfrwt beam="1">  1        2 0.29077036E+00 0.29323495E+04</pdfrwt>
<pdfrwt beam="2">  1       -2 0.17498250E+00 0.29323495E+04</pdfrwt>
<totfact> 0.13012731E+00</totfact>
</mgrwt>
</event>
<event>
 6    1  0.1001928E-005  0.7976663E+03  0.7818608E-02  0.9563401E-01
         -2   -1    0    0    0  501 -0.00000000000E+00  0.00000000000E+00  0.13733262444E+03  0.13733262444E+03  0.00000000000E+00 0.  1.
          2   -1    0    0  501    0  0.00000000000E+00 -0.00000000000E+00 -0.11582673316E+04  0.11582673316E+04  0.00000000000E+00 0. -1.
         23    2    1    2    0    0 -0.61372268086E+02 -0.46837445801E+02 -0.11441063152E+04  0.11502330180E+04  0.89980183690E+02 0.  0.
         13    1    3    3    0    0 -0.38517305589E+02 -0.61436297852E+02 -0.46810846696E+03  0.47369139571E+03  0.00000000000E+00 0. -1.
        -13    1    3    3    0    0 -0.22854962498E+02  0.14598852051E+02 -0.67599784828E+03  0.67654162227E+03  0.00000000000E+00 0.  1.
         22    1    1    2    0    0  0.61372268086E+02  0.46837445801E+02  0.12317160813E+03  0.14536693802E+03  0.00000000000E+00 0.  1.
<mgrwt>
<rscale>  0 0.79766633E+03</rscale>
<asrwt>0</asrwt>
<pdfrwt beam="1">  1        2 0.17819499E+00 0.79766633E+03</pdfrwt>
<pdfrwt beam="2">  1       -2 0.21128095E-01 0.79766633E+03</pdfrwt>
<totfact> 0.39101485E+02</totfact>
</mgrwt>
</event>
<event>
 6    1  0.1001928E-005  0.4929870E+04  0.7818608E-02  0.7839417E-01
          2   -1    0    0  501    0  0.00000000000E+00  0.00000000000E+00  0.25500908797E+04  0.25500908797E+04  0.00000000000E+00 0.  1.
         -2   -1    0    0    0  501 -0.00000000000E+00 -0.00000000000E+00 -0.23826223683E+04  0.23826223683E+04  0.00000000000E+00 0. -1.
         23    2    1    2    0    0  0.61936720877E+03  0.74013313944E+03 -0.21847346327E+04  0.23902198981E+04  0.93128635919E+02 0.  0.
         11    1    3    3    0    0  0.23915610686E+03  0.29048810775E+03 -0.96572222757E+03  0.10364354321E+04  0.00000000000E+00 0.  1.
        -11    1    3    3    0    0  0.38021110192E+03  0.44964503168E+03 -0.12190124051E+04  0.13537844660E+04  0.00000000000E+00 0. -1.
         22    1    1    2    0    0 -0.61936720877E+03 -0.74013313944E+03  0.23522031440E+04  0.25424933499E+04  0.00000000000E+00 0.  1.
<mgrwt>
<rscale>  0 0.49298696E+04</rscale>
<asrwt>0</asrwt>
<pdfrwt beam="1">  1        2 0.39232167E+00 0.49298696E+04</pdfrwt>
<pdfrwt beam="2">  1       -2 0.36655729E+00 0.49298696E+04</pdfrwt>
<totfact> 0.29110719E-02</totfact>
</mgrwt>
</event>
<event>
 6    1  0.1001928E-005  0.3001636E+04  0.7818608E-02  0.8243264E-01
         -1   -1    0    0    0  501 -0.00000000000E+00  0.00000000000E+00  0.83306509407E+03  0.83306509407E+03  0.00000000000E+00 0.  1.
          1   -1    0    0  501    0  0.00000000000E+00 -0.00000000000E+00 -0.27038165160E+04  0.27038165160E+04  0.00000000000E+00 0. -1.
         23    2    1    2    0    0  0.98161319274E+03  0.84317969790E+03 -0.18286535251E+04  0.22421659285E+04  0.93903530354E+02 0.  0.
         13    1    3    3    0    0  0.65962363671E+03  0.50743449152E+03 -0.11667788619E+04  0.14331664307E+04  0.00000000000E+00 0.  1.
        -13    1    3    3    0    0  0.32198955603E+03  0.33574520638E+03 -0.66187466313E+03  0.80899949783E+03  0.00000000000E+00 0. -1.
         22    1    1    2    0    0 -0.98161319274E+03 -0.84317969790E+03 -0.42097896817E+02  0.12947156815E+04  0.00000000000E+00 0.  1.
<mgrwt>
<rscale>  0 0.30016363E+04</rscale>
<asrwt>0</asrwt>
<pdfrwt beam="1">  1        1 0.41597177E+00 0.30016363E+04</pdfrwt>
<pdfrwt beam="2">  1       -1 0.12816386E+00 0.30016363E+04</pdfrwt>
<totfact> 0.43602662E-01</totfact>
</mgrwt>
</event>
<event>
 6    1  0.1001928E-005  0.6248552E+03  0.7818608E-02  0.9855140E-01
         -1   -1    0    0    0  501 -0.00000000000E+00  0.00000000000E+00  0.81599483756E+02  0.81599483756E+02  0.00000000000E+00 0.  1.
          1   -1    0    0  501    0  0.00000000000E+00 -0.00000000000E+00 -0.11962207756E+04  0.11962207756E+04  0.00000000000E+00 0. -1.
         23    2    1    2    0    0  0.12116930393E+01  0.29573444294E+03 -0.40204400096E+03  0.50631087871E+03  0.85152793550E+02 0.  0.
         13    1    3    3    0    0 -0.24160284508E+02  0.44540056156E+02 -0.38226507822E+02  0.63472843407E+02  0.00000000000E+00 0.  1.
        -13    1    3    3    0    0  0.25371977547E+02  0.25119438679E+03 -0.36381749314E+03  0.44283803531E+03  0.00000000000E+00 0. -1.
         22    1    1    2    0    0 -0.12116930393E+01 -0.29573444294E+03 -0.71257729090E+03  0.77150938066E+03  0.00000000000E+00 0. -1.
<mgrwt>
<rscale>  0 0.62485518E+03</rscale>
<asrwt>0</asrwt>
<pdfrwt beam="1">  1        1 0.18403396E+00 0.62485518E+03</pdfrwt>
<pdfrwt beam="2">  1       -1 0.12553767E-01 0.62485518E+03</pdfrwt>
<totfact> 0.48053104E+02</totfact>
</mgrwt>
</event>
<event>
 6    1  0.1001928E-005  0.1021267E+04  0.7818608E-02  0.9285522E-01
          1   -1    0    0  501    0  0.00000000000E+00  0.00000000000E+00  0.31664457601E+04  0.31664457601E+04  0.00000000000E+00 0. -1.
         -1   -1    0    0    0  501 -0.00000000000E+00 -0.00000000000E+00 -0.82346783349E+02  0.82346783349E+02  0.00000000000E+00 0.  1.
         23    2    1    2    0    0  0.46468348605E+03 -0.58946850294E+02  0.21687783000E+04  0.22205817602E+04  0.89322819626E+02 0.  0.
         11    1    3    3    0    0  0.16319094433E+03  0.15661929455E+02  0.64843113197E+03  0.66883444383E+03  0.00000000000E+00 0. -1.
        -11    1    3    3    0    0  0.30149254173E+03 -0.74608779750E+02  0.15203471680E+04  0.15517473164E+04  0.00000000000E+00 0.  1.
         22    1    1    2    0    0 -0.46468348605E+03  0.58946850294E+02  0.91532067678E+03  0.10282107832E+04  0.00000000000E+00 0.  1.
<mgrwt>
<rscale>  0 0.10212671E+04</rscale>
<asrwt>0</asrwt>
<pdfrwt beam="1">  1        1 0.48714541E+00 0.10212671E+04</pdfrwt>
<pdfrwt beam="2">  1       -1 0.12668738E-01 0.10212671E+04</pdfrwt>
<totfact> 0.20009862E+01</totfact>
</mgrwt>
</event>
<event>
 6    1  0.1001928E-005  0.1391831E+04  0.7818608E-02  0.8959753E-01
         -2   -1    0    0    0  501 -0.00000000000E+00  0.00000000000E+00  0.11320258888E+04  0.11320258888E+04  0.00000000000E+00 0.  1.
          2   -1    0    0  501    0  0.00000000000E+00 -0.00000000000E+00 -0.42781588081E+03  0.42781588081E+03  0.00000000000E+00 0. -1.
         23    2    1    2    0    0 -0.67906092944E+03 -0.11578154947E+03  0.43795266624E+03  0.82131479983E+03  0.90699225193E+02 0.  0.
         11    1    3    3    0    0 -0.49317583837E+03 -0.61195114261E+02  0.35412297686E+03  0.61022154363E+03  0.00000000000E+00 0.  1.
        -11    1    3    3    0    0 -0.18588509107E+03 -0.54586435209E+02  0.83829689377E+02  0.21109325620E+03  0.00000000000E+00 0. -1.
         22    1    1    2    0    0  0.67906092944E+03  0.11578154947E+03  0.26625734178E+03  0.73852696982E+03  0.00000000000E+00 0. -1.
<mgrwt>
<rscale>  0 0.13918314E+04</rscale>
<asrwt>0</asrwt>
<pdfrwt beam="1">  1        2 0.65817828E-01 0.13918314E+04</pdfrwt>
<pdfrwt beam="2">  1       -2 0.17415783E+00 0.13918314E+04</pdfrwt>
<totfact> 0.14275559E+01</totfact>
</mgrwt>
</event>
<event>
 6    1  0.1001928E-005  0.1896924E+04  0.7818608E-02  0.8656389E-01
         -1   -1    0    0    0  501 -0.00000000000E+00  0.00000000000E+00  0.49248408249E+03  0.49248408249E+03  0.00000000000E+00 0.  1.
          1   -1    0    0  501    0  0.00000000000E+00 -0.00000000000E+00 -0.18266185106E+04  0.18266185106E+04  0.00000000000E+00 0. -1.
         23    2    1    2    0    0  0.14335880489E+03  0.84033736188E+03 -0.11706731780E+04  0.14510944082E+04  0.92090516495E+02 0.  0.
         13    1    3    3    0    0  0.63426097741E+02  0.17682361676E+03 -0.22511919135E+03  0.29320319172E+03  0.00000000000E+00 0.  1.
        -13    1    3    3    0    0  0.79932707151E+02  0.66351374513E+03 -0.94555398663E+03  0.11578912165E+04  0.00000000000E+00 0. -1.
         22    1    1    2    0    0 -0.14335880489E+03 -0.84033736188E+03 -0.16346125016E+03  0.86800818488E+03  0.00000000000E+00 0.  1.
<mgrwt>
<rscale>  0 0.18969244E+04</rscale>
<asrwt>0</asrwt>
<pdfrwt beam="1">  1        1 0.28101823E+00 0.18969244E+04</pdfrwt>
<pdfrwt beam="2">  1       -1 0.75766783E-01 0.18969244E+04</pdfrwt>
<totfact> 0.64000231E+00</totfact>
</mgrwt>
</event>
<event>
 6    1  0.1001928E-005  0.4550710E+04  0.7818608E-02  0.7901819E-01
          2   -1    0    0  501    0  0.00000000000E+00  0.00000000000E+00  0.24039447489E+04  0.24039447489E+04  0.00000000000E+00 0. -1.
         -2   -1    0    0    0  501 -0.00000000000E+00 -0.00000000000E+00 -0.21536439815E+04  0.21536439815E+04  0.00000000000E+00 0.  1.
         23    2    1    2    0    0  0.12414412495E+04 -0.12230983455E+04  0.15888964298E+04  0.23600937278E+04  0.91129581362E+02 0.  0.
         13    1    3    3    0    0  0.88178180912E+03 -0.82227225652E+03  0.11331632818E+04  0.16546086685E+04  0.00000000000E+00 0.  1.
        -13    1    3    3    0    0  0.35965944042E+03 -0.40082608899E+03  0.45573314802E+03  0.70548505931E+03  0.00000000000E+00 0. -1.
         22    1    1    2    0    0 -0.12414412495E+04  0.12230983455E+04 -0.13385956625E+04  0.21974950026E+04  0.00000000000E+00 0.  1.
<mgrwt>
<rscale>  0 0.45507103E+04</rscale>
<asrwt>0</asrwt>
<pdfrwt beam="1">  1        2 0.36983765E+00 0.45507103E+04</pdfrwt>
<pdfrwt beam="2">  1       -2 0.33132984E+00 0.45507103E+04</pdfrwt>
<totfact> 0.60783117E-02</totfact>
</mgrwt>
</event>
<event>
 6    1  0.1001928E-005  0.2226875E+04  0.7818608E-02  0.8507325E-01
          3   -1    0    0  501    0  0.00000000000E+00  0.00000000000E+00  0.60187291962E+03  0.60187291962E+03  0.00000000000E+00 0. -1.
         -3   -1    0    0    0  501 -0.00000000000E+00 -0.00000000000E+00 -0.20598085509E+04  0.20598085509E+04  0.00000000000E+00 0.  1.
         23    2    1    2    0    0 -0.18207378754E+03  0.71696151268E+03 -0.17219201379E+04  0.18762691620E+04  0.90511501733E+02 0.  0.
         11    1    3    3    0    0 -0.10287163566E+03  0.40463089199E+03 -0.10832324127E+04  0.11609053329E+04  0.00000000000E+00 0. -1.
        -11    1    3    3    0    0 -0.79202151884E+02  0.31233062069E+03 -0.63868772525E+03  0.71536382901E+03  0.00000000000E+00 0.  1.
         22    1    1    2    0    0  0.18207378754E+03 -0.71696151268E+03  0.26398450661E+03  0.78541230860E+03  0.00000000000E+00 0. -1.
<mgrwt>
<rscale>  0 0.22268749E+04</rscale>
<asrwt>0</asrwt>
<pdfrwt beam="1">  1        3 0.92595833E-01 0.22268749E+04</pdfrwt>
<pdfrwt beam="2">  1       -3 0.31689363E+00 0.22268749E+04</pdfrwt>
<totfact> 0.76126900E-02</totfact>
</mgrwt>
</event>
<event>
 6    1  0.1001928E-005  0.2055444E+04  0.7818608E-02  0.8581129E-01
          2   -1    0    0  501    0  0.00000000000E+00  0.00000000000E+00  0.95770241775E+03  0.95770241775E+03  0.00000000000E+00 0. -1.
         -2   -1    0    0    0  501 -0.00000000000E+00 -0.00000000000E+00 -0.11028605386E+04  0.11028605386E+04  0.00000000000E+00 0.  1.
         23    2    1    2    0    0 -0.14681095701E+03 -0.93908630324E+03  0.31376834481E+03  0.10050772659E+04  0.91066975876E+02 0.  0.
         11    1    3    3    0    0 -0.13095673580E+02 -0.35531525307E+03  0.13097754019E+03  0.37891363365E+03  0.00000000000E+00 0. -1.
        -11    1    3    3    0    0 -0.13371528343E+03 -0.58377105018E+03  0.18279080461E+03  0.62616363220E+03  0.00000000000E+00 0.  1.
         22    1    1    2    0    0  0.14681095701E+03  0.93908630324E+03 -0.45892646570E+03  0.10554856906E+04  0.00000000000E+00 0.  1.
<mgrwt>
<rscale>  0 0.20554437E+04</rscale>
<asrwt>0</asrwt>
<pdfrwt beam="1">  1        2 0.14733883E+00 0.20554437E+04</pdfrwt>
<pdfrwt beam="2">  1       -2 0.16967085E+00 0.20554437E+04</pdfrwt>
<totfact> 0.53172063E+00</totfact>
</mgrwt>
</event>
<event>
 6    1  0.1001928E-005  0.2688549E+04  0.7818608E-02  0.8338730E-01
         -2   -1    0    0    0  501 -0.00000000000E+00  0.00000000000E+00  0.13122708453E+04  0.13122708453E+04  0.00000000000E+00 0.  1.
          2   -1    0    0  501    0  0.00000000000E+00 -0.00000000000E+00 -0.13770584512E+04  0.13770584512E+04  0.00000000000E+00 0. -1.
         23    2    1    2    0    0 -0.98508682689E+03  0.71882628473E+02  0.87759574357E+03  0.13241737939E+04  0.87742684028E+02 0.  0.
         13    1    3    3    0    0 -0.37007322942E+03  0.16758497337E+02  0.38496058685E+03  0.53425620801E+03  0.00000000000E+00 0.  1.
        -13    1    3    3    0    0 -0.61501359748E+03  0.55124131135E+02  0.49263515671E+03  0.78991758592E+03  0.00000000000E+00 0. -1.
         22    1    1    2    0    0  0.98508682689E+03 -0.71882628473E+02 -0.94238334946E+03  0.13651555025E+04  0.00000000000E+00 0. -1.
<mgrwt>
<rscale>  0 0.26885488E+04</rscale>
<asrwt>0</asrwt>
<pdfrwt beam="1">  1        2 0.21185515E+00 0.26885488E+04</pdfrwt>
<pdfrwt beam="2">  1       -2 0.20188782E+00 0.26885488E+04</pdfrwt>
<totfact> 0.16932279E+00</totfact>
</mgrwt>
</event>
<event>
 6    1  0.1001928E-005  0.4268212E+03  0.7818608E-02  0.1034869E+00
         -1   -1    0    0    0  501 -0.00000000000E+00  0.00000000000E+00  0.47379791023E+03  0.47379791023E+03  0.00000000000E+00 0.  1.
          1   -1    0    0  501    0  0.00000000000E+00 -0.00000000000E+00 -0.96125535129E+02  0.96125535129E+02  0.00000000000E+00 0. -1.
         23    2    1    2    0    0 -0.48549044170E+02 -0.14320917453E+03  0.18575205253E+02  0.18028687783E+03  0.96397316919E+02 0.  0.
         11    1    3    3    0    0 -0.43681277500E+02 -0.14925135339E+03  0.37382351963E+02  0.15994205429E+03  0.00000000000E+00 0.  1.
        -11    1    3    3    0    0 -0.48677666700E+01  0.60421788566E+01 -0.18807146710E+02  0.20344823544E+02  0.00000000000E+00 0. -1.
         22    1    1    2    0    0  0.48549044170E+02  0.14320917453E+03  0.35909716985E+03  0.38963656753E+03  0.00000000000E+00 0.  1.
<mgrwt>
<rscale>  0 0.42682117E+03</rscale>
<asrwt>0</asrwt>
<pdfrwt beam="1">  1        1 0.14788544E-01 0.42682117E+03</pdfrwt>
<pdfrwt beam="2">  1       -1 0.72891985E-01 0.42682117E+03</pdfrwt>
<totfact> 0.75201078E+02</totfact>
</mgrwt>
</event>
<event>
 6    1  0.1001928E-005  0.4297694E+04  0.7818608E-02  0.7947045E-01
         -1   -1    0    0    0  501 -0.00000000000E+00  0.00000000000E+00  0.13235893146E+04  0.13235893146E+04  0.00000000000E+00 0.  1.
          1   -1    0    0  501    0  0.00000000000E+00 -0.00000000000E+00 -0.34886523088E+04  0.34886523088E+04  0.00000000000E+00 0. -1.
         23    2    1    2    0    0  0.92187519350E+03  0.89374208300E+03 -0.30110077722E+04  0.32746293996E+04  0.91657610168E+02 0.  0.
         13    1    3    3    0    0  0.81719245847E+03  0.82551554783E+03 -0.26847851011E+04  0.29252949378E+04  0.00000000000E+00 0. -1.
        -13    1    3    3    0    0  0.10468273503E+03  0.68226535168E+02 -0.32622267109E+03  0.34933446187E+03  0.00000000000E+00 0.  1.
         22    1    1    2    0    0 -0.92187519350E+03 -0.89374208300E+03  0.84594477795E+03  0.15376122238E+04  0.00000000000E+00 0.  1.
<mgrwt>
<rscale>  0 0.42976938E+04</rscale>
<asrwt>0</asrwt>
<pdfrwt beam="1">  1        1 0.53671573E+00 0.42976938E+04</pdfrwt>
<pdfrwt beam="2">  1       -1 0.20362913E+00 0.42976938E+04</pdfrwt>
<totfact> 0.27649455E-02</totfact>
</mgrwt>
</event>
<event>
 6    1  0.1001928E-005  0.2384200E+04  0.7818608E-02  0.8445443E-01
         -1   -1    0    0    0  501 -0.00000000000E+00  0.00000000000E+00  0.11504732066E+04  0.11504732066E+04  0.00000000000E+00 0.  1.
          1   -1    0    0  501    0  0.00000000000E+00 -0.00000000000E+00 -0.12352325304E+04  0.12352325304E+04  0.00000000000E+00 0. -1.
         23    2    1    2    0    0  0.46758349188E+03 -0.94691046476E+03 -0.59166050208E+03  0.12142867024E+04  0.95688535477E+02 0.  0.
         11    1    3    3    0    0  0.26152662549E+03 -0.56426579603E+03 -0.39888509174E+03  0.73885139292E+03  0.00000000000E+00 0. -1.
        -11    1    3    3    0    0  0.20605686640E+03 -0.38264466872E+03 -0.19277541034E+03  0.47543530950E+03  0.00000000000E+00 0.  1.
         22    1    1    2    0    0 -0.46758349188E+03  0.94691046476E+03  0.50690117821E+03  0.11714190346E+04  0.00000000000E+00 0.  1.
<mgrwt>
<rscale>  0 0.23841996E+04</rscale>
<asrwt>0</asrwt>
<pdfrwt beam="1">  1        1 0.19003577E+00 0.23841996E+04</pdfrwt>
<pdfrwt beam="2">  1       -1 0.17699588E+00 0.23841996E+04</pdfrwt>
<totfact> 0.19773050E+00</totfact>
</mgrwt>
</event>
<event>
 6    1  0.1173540E-005  0.2790157E+04  0.7818608E-02  0.8306331E-01
          2   -1    0    0  501    0  0.00000000000E+00  0.00000000000E+00  0.24725219071E+04  0.24725219071E+04  0.00000000000E+00 0. -1.
         -2   -1    0    0    0  501 -0.00000000000E+00 -0.00000000000E+00 -0.78714946733E+03  0.78714946733E+03  0.00000000000E+00 0.  1.
         23    2    1    2    0    0 -0.12161956125E+04 -0.45386234618E+03  0.14358229047E+04  0.19377796363E+04  0.90992901177E+02 0.  0.
         11    1    3    3    0    0 -0.49768961469E+03 -0.17942069601E+03  0.51977342612E+03  0.74165433541E+03  0.00000000000E+00 0. -1.
        -11    1    3    3    0    0 -0.71850599777E+03 -0.27444165017E+03  0.91604947855E+03  0.11961253009E+04  0.00000000000E+00 0.  1.
         22    1    1    2    0    0  0.12161956125E+04  0.45386234618E+03  0.24954953514E+03  0.13218917382E+04  0.00000000000E+00 0. -1.
<mgrwt>
<rscale>  0 0.27901572E+04</rscale>
<asrwt>0</asrwt>
<pdfrwt beam="1">  1        2 0.38038798E+00 0.27901572E+04</pdfrwt>
<pdfrwt beam="2">  1       -2 0.12109992E+00 0.27901572E+04</pdfrwt>
<totfact> 0.16319757E+00</totfact>
</mgrwt>
</event>
<event>
 6    1  0.1001928E-005  0.2865916E+04  0.7818608E-02  0.8283091E-01
         -2   -1    0    0    0  501 -0.00000000000E+00  0.00000000000E+00  0.92993805744E+03  0.92993805744E+03  0.00000000000E+00 0.  1.
          2   -1    0    0  501    0  0.00000000000E+00 -0.00000000000E+00 -0.22080708768E+04  0.22080708768E+04  0.00000000000E+00 0. -1.
         23    2    1    2    0    0  0.43477787196E+03  0.13554883612E+04 -0.47473951836E+03  0.15034382593E+04  0.92566161039E+02 0.  0.
         11    1    3    3    0    0  0.48749719061E+02  0.11405267800E+03 -0.17276318658E+02  0.12523186357E+03  0.00000000000E+00 0.  1.
        -11    1    3    3    0    0  0.38602815290E+03  0.12414356832E+04 -0.45746319970E+03  0.13782063958E+04  0.00000000000E+00 0. -1.
         22    1    1    2    0    0 -0.43477787196E+03 -0.13554883612E+04 -0.80339330103E+03  0.16345706749E+04  0.00000000000E+00 0. -1.
<mgrwt>
<rscale>  0 0.28659164E+04</rscale>
<asrwt>0</asrwt>
<pdfrwt beam="1">  1        2 0.33970321E+00 0.28659164E+04</pdfrwt>
<pdfrwt beam="2">  1       -2 0.14306740E+00 0.28659164E+04</pdfrwt>
<totfact> 0.15010344E+00</totfact>
</mgrwt>
</event>
<event>
 6    1  0.1001928E-005  0.1591522E+04  0.7818608E-02  0.8825773E-01
          1   -1    0    0  501    0  0.00000000000E+00  0.00000000000E+00  0.14904731265E+04  0.14904731265E+04  0.00000000000E+00 0. -1.
         -1   -1    0    0    0  501 -0.00000000000E+00 -0.00000000000E+00 -0.42485529913E+03  0.42485529913E+03  0.00000000000E+00 0.  1.
         23    2    1    2    0    0  0.32141177328E+03 -0.67616488963E+03  0.21932334334E+03  0.78540858791E+03  0.90881434114E+02 0.  0.
         11    1    3    3    0    0  0.18913193665E+03 -0.46813420091E+03  0.11565896525E+03  0.51797443544E+03  0.00000000000E+00 0.  1.
        -11    1    3    3    0    0  0.13227983663E+03 -0.20803068872E+03  0.10366437808E+03  0.26743415247E+03  0.00000000000E+00 0. -1.
         22    1    1    2    0    0 -0.32141177328E+03  0.67616488963E+03  0.84629448406E+03  0.11299198377E+04  0.00000000000E+00 0.  1.
<mgrwt>
<rscale>  0 0.15915218E+04</rscale>
<asrwt>0</asrwt>
<pdfrwt beam="1">  1        1 0.22930356E+00 0.15915218E+04</pdfrwt>
<pdfrwt beam="2">  1       -1 0.65362354E-01 0.15915218E+04</pdfrwt>
<totfact> 0.15132746E+01</totfact>
</mgrwt>
</event>
<event>
 6    1  0.1001928E-005  0.2672927E+04  0.7818608E-02  0.8343843E-01
          2   -1    0    0  501    0  0.00000000000E+00  0.00000000000E+00  0.12829486710E+04  0.12829486710E+04  0.00000000000E+00 0. -1.
         -2   -1    0    0    0  501 -0.00000000000E+00 -0.00000000000E+00 -0.13922101868E+04  0.13922101868E+04  0.00000000000E+00 0.  1.
         23    2    1    2    0    0 -0.45309663035E+03 -0.11197624303E+04  0.51392701603E+03  0.13159206877E+04  0.91442996703E+02 0.  0.
         11    1    3    3    0    0 -0.20137831686E+03 -0.54084019058E+03  0.29189752728E+03  0.64673449319E+03  0.00000000000E+00 0. -1.
        -11    1    3    3    0    0 -0.25171831349E+03 -0.57892223972E+03  0.22202948875E+03  0.66918619446E+03  0.00000000000E+00 0.  1.
         22    1    1    2    0    0  0.45309663035E+03  0.11197624303E+04 -0.62318853184E+03  0.13592381701E+04  0.00000000000E+00 0.  1.
<mgrwt>
<rscale>  0 0.26729266E+04</rscale>
<asrwt>0</asrwt>
<pdfrwt beam="1">  1        2 0.19737672E+00 0.26729266E+04</pdfrwt>
<pdfrwt beam="2">  1       -2 0.21418618E+00 0.26729266E+04</pdfrwt>
<totfact> 0.16008564E+00</totfact>
</mgrwt>
</event>
<event>
 6    1  0.1001928E-005  0.1805464E+04  0.7818608E-02  0.8703399E-01
         -1   -1    0    0    0  501 -0.00000000000E+00  0.00000000000E+00  0.28953228125E+03  0.28953228125E+03  0.00000000000E+00 0.  1.
          1   -1    0    0  501    0  0.00000000000E+00 -0.00000000000E+00 -0.28146260583E+04  0.28146260583E+04  0.00000000000E+00 0. -1.
         23    2    1    2    0    0  0.23206359669E+02 -0.89432098411E+03 -0.10905984251E+04  0.14135591936E+04  0.91630295525E+02 0.  0.
         11    1    3    3    0    0 -0.27580298413E+02 -0.22930827479E+03 -0.31572707888E+03  0.39118607604E+03  0.00000000000E+00 0. -1.
        -11    1    3    3    0    0  0.50786658082E+02 -0.66501270932E+03 -0.77487134626E+03  0.10223731175E+04  0.00000000000E+00 0.  1.
         22    1    1    2    0    0 -0.23206359669E+02  0.89432098411E+03 -0.14344953519E+04  0.16905991460E+04  0.00000000000E+00 0.  1.
<mgrwt>
<rscale>  0 0.18054640E+04</rscale>
<asrwt>0</asrwt>
<pdfrwt beam="1">  1        1 0.43301941E+00 0.18054640E+04</pdfrwt>
<pdfrwt beam="2">  1       -1 0.44543427E-01 0.18054640E+04</pdfrwt>
<totfact> 0.38388460E+00</totfact>
</mgrwt>
</event>
<event>
 6    1  0.1001928E-005  0.1542657E+04  0.7818608E-02  0.8856572E-01
         -3   -1    0    0    0  501 -0.00000000000E+00  0.00000000000E+00  0.93114517402E+03  0.93114517402E+03  0.00000000000E+00 0.  1.
          3   -1    0    0  501    0  0.00000000000E+00 -0.00000000000E+00 -0.63894190372E+03  0.63894190372E+03  0.00000000000E+00 0. -1.
         23    2    1    2    0    0 -0.44668554663E+01  0.61187750410E+03  0.62029384335E+03  0.87578350081E+03  0.88420898926E+02 0.  0.
         13    1    3    3    0    0  0.16438850440E+02  0.10084871738E+03  0.66344063722E+02  0.12182870923E+03  0.00000000000E+00 0. -1.
        -13    1    3    3    0    0 -0.20905705906E+02  0.51102878672E+03  0.55394977963E+03  0.75395479158E+03  0.00000000000E+00 0.  1.
         22    1    1    2    0    0  0.44668554663E+01 -0.61187750410E+03 -0.32809057305E+03  0.69430357693E+03  0.00000000000E+00 0. -1.
<mgrwt>
<rscale>  0 0.15426570E+04</rscale>
<asrwt>0</asrwt>
<pdfrwt beam="1">  1        3 0.98298755E-01 0.15426570E+04</pdfrwt>
<pdfrwt beam="2">  1       -3 0.14325310E+00 0.15426570E+04</pdfrwt>
<totfact> 0.83412599E-01</totfact>
</mgrwt>
</event>
<event>
 6    1  0.1221118E-005  0.3536548E+04  0.7818608E-02  0.8105183E-01
         -1   -1    0    0    0  501 -0.00000000000E+00  0.00000000000E+00  0.13937787387E+04  0.13937787387E+04  0.00000000000E+00 0.  1.
          1   -1    0    0  501    0  0.00000000000E+00 -0.00000000000E+00 -0.22433927480E+04  0.22433927480E+04  0.00000000000E+00 0. -1.
         23    2    1    2    0    0  0.53572433340E+03 -0.97777324259E+03 -0.18350643831E+04  0.21491682895E+04  0.91771297743E+02 0.  0.
         13    1    3    3    0    0  0.33708466555E+03 -0.70272400226E+03 -0.12724717285E+04  0.14921901336E+04  0.00000000000E+00 0. -1.
        -13    1    3    3    0    0  0.19863966785E+03 -0.27504924033E+03 -0.56259265466E+03  0.65697815590E+03  0.00000000000E+00 0.  1.
         22    1    1    2    0    0 -0.53572433340E+03  0.97777324259E+03  0.98545037384E+03  0.14880031971E+04  0.00000000000E+00 0.  1.
<mgrwt>
<rscale>  0 0.35365481E+04</rscale>
<asrwt>0</asrwt>
<pdfrwt beam="1">  1        1 0.34513734E+00 0.35365481E+04</pdfrwt>
<pdfrwt beam="2">  1       -1 0.21442750E+00 0.35365481E+04</pdfrwt>
<totfact> 0.19857306E-01</totfact>
</mgrwt>
</event>
<event>
 6    1  0.1001928E-005  0.2048338E+04  0.7818608E-02  0.8584349E-01
          1   -1    0    0  501    0  0.00000000000E+00  0.00000000000E+00  0.57674967291E+03  0.57674967291E+03  0.00000000000E+00 0. -1.
         -1   -1    0    0    0  501 -0.00000000000E+00 -0.00000000000E+00 -0.18186785536E+04  0.18186785536E+04  0.00000000000E+00 0.  1.
         23    2    1    2    0    0 -0.93839057966E+03  0.91369085927E+02 -0.10838856273E+04  0.14394455594E+04  0.90941054630E+02 0.  0.
         11    1    3    3    0    0 -0.65429212759E+03  0.81261540037E+02 -0.81332574712E+03  0.10469958916E+04  0.00000000000E+00 0. -1.
        -11    1    3    3    0    0 -0.28409845207E+03  0.10107545890E+02 -0.27055988021E+03  0.39244966777E+03  0.00000000000E+00 0.  1.
         22    1    1    2    0    0  0.93839057966E+03 -0.91369085927E+02 -0.15804325331E+03  0.95598266709E+03  0.00000000000E+00 0.  1.
<mgrwt>
<rscale>  0 0.20483381E+04</rscale>
<asrwt>0</asrwt>
<pdfrwt beam="1">  1        1 0.88730721E-01 0.20483381E+04</pdfrwt>
<pdfrwt beam="2">  1       -1 0.27979669E+00 0.20483381E+04</pdfrwt>
<totfact> 0.14955916E+00</totfact>
</mgrwt>
</event>
<event>
 6    1  0.1001928E-005  0.1447916E+04  0.7818608E-02  0.8919846E-01
          2   -1    0    0  501    0  0.00000000000E+00  0.00000000000E+00  0.35573144136E+03  0.35573144136E+03  0.00000000000E+00 0. -1.
         -2   -1    0    0    0  501 -0.00000000000E+00 -0.00000000000E+00 -0.14733452948E+04  0.14733452948E+04  0.00000000000E+00 0.  1.
         23    2    1    2    0    0  0.43523019092E+03  0.10706194921E+03  0.15269263768E+03  0.48201839985E+03  0.90217050135E+02 0.  0.
         13    1    3    3    0    0  0.42256879746E+02  0.36746531434E+02  0.34084629651E+02  0.65556948043E+02  0.00000000000E+00 0.  1.
        -13    1    3    3    0    0  0.39297331117E+03  0.70315417778E+02  0.11860800803E+03  0.41646145181E+03  0.00000000000E+00 0. -1.
         22    1    1    2    0    0 -0.43523019092E+03 -0.10706194921E+03 -0.12703064911E+04  0.13470583363E+04  0.00000000000E+00 0.  1.
<mgrwt>
<rscale>  0 0.14479161E+04</rscale>
<asrwt>0</asrwt>
<pdfrwt beam="1">  1        2 0.54727915E-01 0.14479161E+04</pdfrwt>
<pdfrwt beam="2">  1       -2 0.22666851E+00 0.14479161E+04</pdfrwt>
<totfact> 0.78936826E+00</totfact>
</mgrwt>
</event>
<event>
 6    1  0.1001928E-005  0.3808581E+04  0.7818608E-02  0.8044316E-01
         -1   -1    0    0    0  501 -0.00000000000E+00  0.00000000000E+00  0.11953030006E+04  0.11953030006E+04  0.00000000000E+00 0.  1.
          1   -1    0    0  501    0  0.00000000000E+00 -0.00000000000E+00 -0.30338097296E+04  0.30338097296E+04  0.00000000000E+00 0. -1.
         23    2    1    2    0    0 -0.11734050268E+04  0.93750084706E+03 -0.22177839393E+04  0.26800361028E+04  0.90778388383E+02 0.  0.
         11    1    3    3    0    0 -0.94870309620E+03  0.71679432486E+03 -0.17850380016E+04  0.21448058971E+04  0.00000000000E+00 0. -1.
        -11    1    3    3    0    0 -0.22470193062E+03  0.22070652220E+03 -0.43274593770E+03  0.53523020576E+03  0.00000000000E+00 0.  1.
         22    1    1    2    0    0  0.11734050268E+04 -0.93750084706E+03  0.37927721029E+03  0.15490766274E+04  0.00000000000E+00 0.  1.
<mgrwt>
<rscale>  0 0.38085808E+04</rscale>
<asrwt>0</asrwt>
<pdfrwt beam="1">  1        1 0.46673996E+00 0.38085808E+04</pdfrwt>
<pdfrwt beam="2">  1       -1 0.18389277E+00 0.38085808E+04</pdfrwt>
<totfact> 0.87565623E-02</totfact>
</mgrwt>
</event>
<event>
 6    1  0.1001928E-005  0.1768487E+04  0.7818608E-02  0.8723239E-01
         -2   -1    0    0    0  501 -0.00000000000E+00  0.00000000000E+00  0.53678318765E+03  0.53678318765E+03  0.00000000000E+00 0.  1.
          2   -1    0    0  501    0  0.00000000000E+00 -0.00000000000E+00 -0.14566157301E+04  0.14566157301E+04  0.00000000000E+00 0. -1.
         23    2    1    2    0    0 -0.97906845373E+02 -0.87613686278E+03 -0.45143341421E+03  0.99510071778E+03  0.96082039744E+02 0.  0.
         11    1    3    3    0    0 -0.48830301276E+02 -0.24591005022E+03 -0.86641898389E+02  0.26526019241E+03  0.00000000000E+00 0. -1.
        -11    1    3    3    0    0 -0.49076544097E+02 -0.63022681256E+03 -0.36479151582E+03  0.72984052536E+03  0.00000000000E+00 0.  1.
         22    1    1    2    0    0  0.97906845373E+02  0.87613686278E+03 -0.46839912823E+03  0.99829819995E+03  0.00000000000E+00 0. -1.
<mgrwt>
<rscale>  0 0.17684873E+04</rscale>
<asrwt>0</asrwt>
<pdfrwt beam="1">  1        2 0.22409473E+00 0.17684873E+04</pdfrwt>
<pdfrwt beam="2">  1       -2 0.82582029E-01 0.17684873E+04</pdfrwt>
<totfact> 0.16357540E+01</totfact>
</mgrwt>
</event>
<event>
 6    1  0.1954883E-005  0.2691896E+04  0.7818608E-02  0.8337639E-01
          1   -1    0    0  501    0  0.00000000000E+00  0.00000000000E+00  0.16278512309E+04  0.16278512309E+04  0.00000000000E+00 0. -1.
         -1   -1    0    0    0  501 -0.00000000000E+00 -0.00000000000E+00 -0.11128631316E+04  0.11128631316E+04  0.00000000000E+00 0.  1.
         23    2    1    2    0    0 -0.21092497175E+03  0.72195608439E+03  0.13922892430E+04  0.15851334574E+04  0.92026138669E+02 0.  0.
         13    1    3    3    0    0 -0.92785910997E+02  0.24741039398E+03  0.40867454902E+03  0.48665800655E+03  0.00000000000E+00 0. -1.
        -13    1    3    3    0    0 -0.11813906075E+03  0.47454569041E+03  0.98361469394E+03  0.10984754508E+04  0.00000000000E+00 0.  1.
         22    1    1    2    0    0  0.21092497175E+03 -0.72195608439E+03 -0.87730114370E+03  0.11555809051E+04  0.00000000000E+00 0.  1.
<mgrwt>
<rscale>  0 0.26918957E+04</rscale>
<asrwt>0</asrwt>
<pdfrwt beam="1">  1        1 0.25043865E+00 0.26918957E+04</pdfrwt>
<pdfrwt beam="2">  1       -1 0.17120971E+00 0.26918957E+04</pdfrwt>
<totfact> 0.11248381E+00</totfact>
</mgrwt>
</event>
<event>
 6    1  0.1001928E-005  0.2940408E+04  0.7818608E-02  0.8260956E-01
          1   -1    0    0  501    0  0.00000000000E+00  0.00000000000E+00  0.17924587824E+04  0.17924587824E+04  0.00000000000E+00 0. -1.
         -1   -1    0    0    0  501 -0.00000000000E+00 -0.00000000000E+00 -0.12058851645E+04  0.12058851645E+04  0.00000000000E+00 0.  1.
         23    2    1    2    0    0  0.11376291969E+04  0.86965422094E+03 -0.40617019264E+02  0.14350567855E+04  0.85085731480E+02 0.  0.
         11    1    3    3    0    0  0.71687180406E+03  0.50044856417E+03 -0.75777555244E+01  0.87430622279E+03  0.00000000000E+00 0. -1.
        -11    1    3    3    0    0  0.42075739283E+03  0.36920565678E+03 -0.33039263740E+02  0.56075056270E+03  0.00000000000E+00 0.  1.
         22    1    1    2    0    0 -0.11376291969E+04 -0.86965422094E+03  0.62719063715E+03  0.15632871614E+04  0.00000000000E+00 0. -1.
<mgrwt>
<rscale>  0 0.29404078E+04</rscale>
<asrwt>0</asrwt>
<pdfrwt beam="1">  1        1 0.27576289E+00 0.29404078E+04</pdfrwt>
<pdfrwt beam="2">  1       -1 0.18552079E+00 0.29404078E+04</pdfrwt>
<totfact> 0.67019406E-01</totfact>
</mgrwt>
</event>
<event>
 6    1  0.1001928E-005  0.2385482E+04  0.7818608E-02  0.8444959E-01
          2   -1    0    0  501    0  0.00000000000E+00  0.00000000000E+00  0.29860941379E+04  0.29860941379E+04  0.00000000000E+00 0.  1.
         -2   -1    0    0    0  501 -0.00000000000E+00 -0.00000000000E+00 -0.47641877348E+03  0.47641877348E+03  0.00000000000E+00 0. -1.
         23    2    1    2    0    0  0.21719982187E+03 -0.38692055698E+03  0.28609766013E+04  0.28965660595E+04  0.89579818923E+02 0.  0.
         13    1    3    3    0    0  0.16665668942E+03 -0.29060966669E+03  0.18839269960E+04  0.19134809528E+04  0.00000000000E+00 0.  1.
        -13    1    3    3    0    0  0.50543132444E+02 -0.96310890295E+02  0.97704960534E+03  0.98308510675E+03  0.00000000000E+00 0. -1.
         22    1    1    2    0    0 -0.21719982187E+03  0.38692055698E+03 -0.35130123691E+03  0.56594685182E+03  0.00000000000E+00 0. -1.
<mgrwt>
<rscale>  0 0.23854822E+04</rscale>
<asrwt>0</asrwt>
<pdfrwt beam="1">  1        2 0.45939909E+00 0.23854822E+04</pdfrwt>
<pdfrwt beam="2">  1       -2 0.73295197E-01 0.23854822E+04</pdfrwt>
<totfact> 0.26884801E+00</totfact>
</mgrwt>
</event>
<event>
 6    1  0.1001928E-005  0.1179043E+04  0.7818608E-02  0.9131401E-01
          1   -1    0    0  501    0  0.00000000000E+00  0.00000000000E+00  0.24974891479E+04  0.24974891479E+04  0.00000000000E+00 0. -1.
         -1   -1    0    0    0  501 -0.00000000000E+00 -0.00000000000E+00 -0.13915388864E+03  0.13915388864E+03  0.00000000000E+00 0.  1.
         23    2    1    2    0    0 -0.26950355612E+03 -0.49521634424E+03  0.82799856663E+03  0.10057531607E+04  0.89924410002E+02 0.  0.
         11    1    3    3    0    0 -0.14787715640E+03 -0.18088923221E+03  0.35361120608E+03  0.42382714964E+03  0.00000000000E+00 0. -1.
        -11    1    3    3    0    0 -0.12162639973E+03 -0.31432711203E+03  0.47438736056E+03  0.58192601104E+03  0.00000000000E+00 0.  1.
         22    1    1    2    0    0  0.26950355612E+03  0.49521634424E+03  0.15303366926E+04  0.16308898759E+04  0.00000000000E+00 0. -1.
<mgrwt>
<rscale>  0 0.11790425E+04</rscale>
<asrwt>0</asrwt>
<pdfrwt beam="1">  1        1 0.38422907E+00 0.11790425E+04</pdfrwt>
<pdfrwt beam="2">  1       -1 0.21408292E-01 0.11790425E+04</pdfrwt>
<totfact> 0.24760980E+01</totfact>
</mgrwt>
</event>
<event>
 6    1  0.1001928E-005  0.2265974E+04  0.7818608E-02  0.8491459E-01
         -2   -1    0    0    0  501 -0.00000000000E+00  0.00000000000E+00  0.56836572612E+03  0.56836572612E+03  0.00000000000E+00 0.  1.
          2   -1    0    0  501    0  0.00000000000E+00 -0.00000000000E+00 -0.22585092692E+04  0.22585092692E+04  0.00000000000E+00 0. -1.
         23    2    1    2    0    0 -0.28615708485E+03  0.10122776123E+04 -0.33051921103E+03  0.11078141570E+04  0.10685230865E+03 0.  0.
         11    1    3    3    0    0 -0.12567057538E+03  0.44314597085E+03 -0.20048034797E+03  0.50235825356E+03  0.00000000000E+00 0. -1.
        -11    1    3    3    0    0 -0.16048650947E+03  0.56913164149E+03 -0.13003886306E+03  0.60545590341E+03  0.00000000000E+00 0.  1.
         22    1    1    2    0    0  0.28615708485E+03 -0.10122776123E+04 -0.13596243320E+04  0.17190608383E+04  0.00000000000E+00 0.  1.
<mgrwt>
<rscale>  0 0.22659738E+04</rscale>
<asrwt>0</asrwt>
<pdfrwt beam="1">  1        2 0.34746296E+00 0.22659738E+04</pdfrwt>
<pdfrwt beam="2">  1       -2 0.87440883E-01 0.22659738E+04</pdfrwt>
<totfact> 0.49131884E+00</totfact>
</mgrwt>
</event>
<event>
 6    1  0.1001928E-005  0.3506764E+04  0.7818608E-02  0.8112189E-01
          1   -1    0    0  501    0  0.00000000000E+00  0.00000000000E+00  0.37427760932E+04  0.37427760932E+04  0.00000000000E+00 0. -1.
         -1   -1    0    0    0  501 -0.00000000000E+00 -0.00000000000E+00 -0.82140854058E+03  0.82140854058E+03  0.00000000000E+00 0.  1.
         23    2    1    2    0    0 -0.11956390953E+03  0.10045076976E+04  0.33237310684E+04  0.34755030267E+04  0.92746055045E+02 0.  0.
         11    1    3    3    0    0 -0.62440195103E+02  0.24727856658E+03  0.91768004066E+03  0.95246108818E+03  0.00000000000E+00 0.  1.
        -11    1    3    3    0    0 -0.57123714428E+02  0.75722913097E+03  0.24060510277E+04  0.25230419385E+04  0.00000000000E+00 0. -1.
         22    1    1    2    0    0  0.11956390953E+03 -0.10045076976E+04 -0.40236351572E+03  0.10886816071E+04  0.00000000000E+00 0. -1.
<mgrwt>
<rscale>  0 0.35067639E+04</rscale>
<asrwt>0</asrwt>
<pdfrwt beam="1">  1        1 0.57581170E+00 0.35067639E+04</pdfrwt>
<pdfrwt beam="2">  1       -1 0.12637055E+00 0.35067639E+04</pdfrwt>
<totfact> 0.70497012E-02</totfact>
</mgrwt>
</event>
<event>
 6    1  0.1001928E-005  0.1914016E+04  0.7818608E-02  0.8647911E-01
          2   -1    0    0  501    0  0.00000000000E+00  0.00000000000E+00  0.17004459275E+04  0.17004459275E+04  0.00000000000E+00 0. -1.
         -2   -1    0    0    0  501 -0.00000000000E+00 -0.00000000000E+00 -0.53860227768E+03  0.53860227768E+03  0.00000000000E+00 0.  1.
         23    2    1    2    0    0 -0.29371648401E+03 -0.84318295131E+03  0.18660194290E+03  0.91680645373E+03  0.92124514321E+02 0.  0.
         13    1    3    3    0    0 -0.18886186297E+03 -0.46884929270E+03  0.14499687678E+03  0.52584461281E+03  0.00000000000E+00 0.  1.
        -13    1    3    3    0    0 -0.10485462104E+03 -0.37433365861E+03  0.41605066123E+02  0.39096184091E+03  0.00000000000E+00 0. -1.
         22    1    1    2    0    0  0.29371648401E+03  0.84318295131E+03  0.97524170689E+03  0.13222417514E+04  0.00000000000E+00 0. -1.
<mgrwt>
<rscale>  0 0.19140157E+04</rscale>
<asrwt>0</asrwt>
<pdfrwt beam="1">  1        2 0.26160706E+00 0.19140157E+04</pdfrwt>
<pdfrwt beam="2">  1       -2 0.82861889E-01 0.19140157E+04</pdfrwt>
<totfact> 0.11706238E+01</totfact>
</mgrwt>
</event>
<event>
 6    1  0.1001928E-005  0.2708087E+04  0.7818608E-02  0.8332386E-01
         -1   -1    0    0    0  501 -0.00000000000E+00  0.00000000000E+00  0.18119674730E+04  0.18119674730E+04  0.00000000000E+00 0.  1.
          1   -1    0    0  501    0  0.00000000000E+00 -0.00000000000E+00 -0.10118472763E+04  0.10118472763E+04  0.00000000000E+00 0. -1.
         23    2    1    2    0    0 -0.29983441908E+02  0.40468355216E+03  0.17458118505E+04  0.17947372555E+04  0.92493323549E+02 0.  0.
         13    1    3    3    0    0 -0.46838143004E+02  0.10333530665E+03  0.53208481415E+03  0.54404618066E+03  0.00000000000E+00 0. -1.
        -13    1    3    3    0    0  0.16854701096E+02  0.30134824551E+03  0.12137270363E+04  0.12506910749E+04  0.00000000000E+00 0.  1.
         22    1    1    2    0    0  0.29983441908E+02 -0.40468355216E+03 -0.94569165381E+03  0.10290774938E+04  0.00000000000E+00 0. -1.
<mgrwt>
<rscale>  0 0.27080874E+04</rscale>
<asrwt>0</asrwt>
<pdfrwt beam="1">  1        1 0.15566881E+00 0.27080874E+04</pdfrwt>
<pdfrwt beam="2">  1       -1 0.27876423E+00 0.27080874E+04</pdfrwt>
<totfact> 0.58588423E-01</totfact>
</mgrwt>
</event>
<event>
 6    1  0.1001928E-005  0.6912963E+03  0.7818608E-02  0.9732233E-01
         -2   -1    0    0    0  501 -0.00000000000E+00  0.00000000000E+00  0.61526161118E+03  0.61526161118E+03  0.00000000000E+00 0.  1.
          2   -1    0    0  501    0  0.00000000000E+00 -0.00000000000E+00 -0.19418187650E+03  0.19418187650E+03  0.00000000000E+00 0. -1.
         23    2    1    2    0    0 -0.97404507096E+02 -0.67522454080E+02 -0.15834077817E+03  0.21802565694E+03  0.91741295205E+02 0.  0.
         11    1    3    3    0    0 -0.10603131460E+03 -0.35904751176E+02 -0.14362838316E+03  0.18210135442E+03  0.00000000000E+00 0. -1.
        -11    1    3    3    0    0  0.86268075063E+01 -0.31617702905E+02 -0.14712395015E+02  0.35924302524E+02  0.00000000000E+00 0.  1.
         22    1    1    2    0    0  0.97404507096E+02  0.67522454080E+02  0.57942051284E+03  0.59141783074E+03  0.00000000000E+00 0.  1.
<mgrwt>
<rscale>  0 0.69129633E+03</rscale>
<asrwt>0</asrwt>
<pdfrwt beam="1">  1        2 0.29874135E-01 0.69129633E+03</pdfrwt>
<pdfrwt beam="2">  1       -2 0.94655631E-01 0.69129633E+03</pdfrwt>
<totfact> 0.16983225E+02</totfact>
</mgrwt>
</event>
<event>
 6    1  0.1001928E-005  0.5117147E+04  0.7818608E-02  0.7810686E-01
          2   -1    0    0  501    0  0.00000000000E+00  0.00000000000E+00  0.56438477975E+04  0.56438477975E+04  0.00000000000E+00 0. -1.
         -2   -1    0    0    0  501 -0.00000000000E+00 -0.00000000000E+00 -0.11599000177E+04  0.11599000177E+04  0.00000000000E+00 0.  1.
         23    2    1    2    0    0  0.31292547364E+03 -0.16815099246E+04  0.47712447409E+04  0.50694071559E+04  0.93351785908E+02 0.  0.
         13    1    3    3    0    0  0.74619485060E+02 -0.34789425666E+03  0.11047888947E+04  0.11606709194E+04  0.00000000000E+00 0. -1.
        -13    1    3    3    0    0  0.23830598858E+03 -0.13336156679E+04  0.36664558462E+04  0.39087362365E+04  0.00000000000E+00 0.  1.
         22    1    1    2    0    0 -0.31292547364E+03  0.16815099246E+04 -0.28729696115E+03  0.17343406593E+04  0.00000000000E+00 0.  1.
<mgrwt>
<rscale>  0 0.51171473E+04</rscale>
<asrwt>0</asrwt>
<pdfrwt beam="1">  1        2 0.86828426E+00 0.51171473E+04</pdfrwt>
<pdfrwt beam="2">  1       -2 0.17844616E+00 0.51171473E+04</pdfrwt>
<totfact> 0.40194612E-04</totfact>
</mgrwt>
</event>
<event>
 6    1  0.1001928E-005  0.1609353E+04  0.7818608E-02  0.8814823E-01
          1   -1    0    0  501    0  0.00000000000E+00  0.00000000000E+00  0.21785919352E+04  0.21785919352E+04  0.00000000000E+00 0. -1.
         -1   -1    0    0    0  501 -0.00000000000E+00 -0.00000000000E+00 -0.29721224916E+03  0.29721224916E+03  0.00000000000E+00 0.  1.
         23    2    1    2    0    0  0.61908483921E+03 -0.26857762826E+03  0.16106119210E+04  0.17486761604E+04  0.91638274999E+02 0.  0.
         13    1    3    3    0    0  0.15138935714E+03 -0.10800194606E+03  0.47261029172E+03  0.50788152718E+03  0.00000000000E+00 0. -1.
        -13    1    3    3    0    0  0.46769548208E+03 -0.16057568220E+03  0.11380016293E+04  0.12407946333E+04  0.00000000000E+00 0.  1.
         22    1    1    2    0    0 -0.61908483921E+03  0.26857762826E+03  0.27076776499E+03  0.72712802387E+03  0.00000000000E+00 0. -1.
<mgrwt>
<rscale>  0 0.16093529E+04</rscale>
<asrwt>0</asrwt>
<pdfrwt beam="1">  1        1 0.33516798E+00 0.16093529E+04</pdfrwt>
<pdfrwt beam="2">  1       -1 0.45724963E-01 0.16093529E+04</pdfrwt>
<totfact> 0.10275969E+01</totfact>
</mgrwt>
</event>
<event>
 6    1  0.1001928E-005  0.1469013E+04  0.7818608E-02  0.8905324E-01
         -2   -1    0    0    0  501 -0.00000000000E+00  0.00000000000E+00  0.20132200579E+03  0.20132200579E+03  0.00000000000E+00 0. -1.
          2   -1    0    0  501    0  0.00000000000E+00 -0.00000000000E+00 -0.26797852613E+04  0.26797852613E+04  0.00000000000E+00 0.  1.
         23    2    1    2    0    0 -0.32990695202E+03 -0.38596025887E+03 -0.22773831978E+04  0.23349963735E+04  0.89050078271E+02 0.  0.
         13    1    3    3    0    0 -0.23057350849E+03 -0.27149457994E+03 -0.17689668999E+04  0.18044714857E+04  0.00000000000E+00 0. -1.
        -13    1    3    3    0    0 -0.99333443532E+02 -0.11446567893E+03 -0.50841629784E+03  0.53052488779E+03  0.00000000000E+00 0.  1.
         22    1    1    2    0    0  0.32990695202E+03  0.38596025887E+03 -0.20108005769E+03  0.54611089352E+03  0.00000000000E+00 0. -1.
<mgrwt>
<rscale>  0 0.14690129E+04</rscale>
<asrwt>0</asrwt>
<pdfrwt beam="1">  1        2 0.41227461E+00 0.14690129E+04</pdfrwt>
<pdfrwt beam="2">  1       -2 0.30972620E-01 0.14690129E+04</pdfrwt>
<totfact> 0.25654905E+01</totfact>
</mgrwt>
</event>
<event>
 6    1  0.1001928E-005  0.1489728E+04  0.7818608E-02  0.8891312E-01
          2   -1    0    0  501    0  0.00000000000E+00  0.00000000000E+00  0.14562995298E+04  0.14562995298E+04  0.00000000000E+00 0. -1.
         -2   -1    0    0    0  501 -0.00000000000E+00 -0.00000000000E+00 -0.38098100577E+03  0.38098100577E+03  0.00000000000E+00 0.  1.
         23    2    1    2    0    0 -0.33271808061E+03 -0.12866566050E+02  0.13576093358E+04  0.14007545088E+04  0.90239766976E+02 0.  0.
         11    1    3    3    0    0 -0.30095540995E+03  0.54721703029E+01  0.10958433980E+04  0.11364316330E+04  0.00000000000E+00 0.  1.
        -11    1    3    3    0    0 -0.31762670662E+02 -0.18338736353E+02  0.26176593778E+03  0.26432287582E+03  0.00000000000E+00 0. -1.
         22    1    1    2    0    0  0.33271808061E+03  0.12866566050E+02 -0.28229081174E+03  0.43652602681E+03  0.00000000000E+00 0.  1.
<mgrwt>
<rscale>  0 0.14897281E+04</rscale>
<asrwt>0</asrwt>
<pdfrwt beam="1">  1        2 0.22404608E+00 0.14897281E+04</pdfrwt>
<pdfrwt beam="2">  1       -2 0.58612463E-01 0.14897281E+04</pdfrwt>
<totfact> 0.35355042E+01</totfact>
</mgrwt>
</event>
<event>
 6    1  0.1001928E-005  0.5346205E+04  0.7818608E-02  0.7777213E-01
         -1   -1    0    0    0  501 -0.00000000000E+00  0.00000000000E+00  0.29504685966E+04  0.29504685966E+04  0.00000000000E+00 0.  1.
          1   -1    0    0  501    0  0.00000000000E+00 -0.00000000000E+00 -0.24218105677E+04  0.24218105677E+04  0.00000000000E+00 0. -1.
         23    2    1    2    0    0  0.14388318569E+02 -0.25832910317E+04 -0.42262835865E+03  0.26193633703E+04  0.94075277092E+02 0.  0.
         11    1    3    3    0    0 -0.11817411176E+02 -0.93019437229E+03 -0.19463755602E+03  0.95041306791E+03  0.00000000000E+00 0.  1.
        -11    1    3    3    0    0  0.26205729745E+02 -0.16530966594E+04 -0.22799080263E+03  0.16689503024E+04  0.00000000000E+00 0. -1.
         22    1    1    2    0    0 -0.14388318569E+02  0.25832910317E+04  0.95128638756E+03  0.27529157941E+04  0.00000000000E+00 0.  1.
<mgrwt>
<rscale>  0 0.53462046E+04</rscale>
<asrwt>0</asrwt>
<pdfrwt beam="1">  1        1 0.37258624E+00 0.53462046E+04</pdfrwt>
<pdfrwt beam="2">  1       -1 0.45391824E+00 0.53462046E+04</pdfrwt>
<totfact> 0.32893349E-03</totfact>
</mgrwt>
</event>
<event>
 6    1  0.1001928E-005  0.2239732E+04  0.7818608E-02  0.8502070E-01
         -1   -1    0    0    0  501 -0.00000000000E+00  0.00000000000E+00  0.74715651845E+03  0.74715651845E+03  0.00000000000E+00 0.  1.
          1   -1    0    0  501    0  0.00000000000E+00 -0.00000000000E+00 -0.16784971695E+04  0.16784971695E+04  0.00000000000E+00 0. -1.
         23    2    1    2    0    0  0.61730878669E+03 -0.54892005411E+03 -0.12823898588E+04  0.15280909268E+04  0.90303746994E+02 0.  0.
         11    1    3    3    0    0  0.39374211338E+03 -0.40487554663E+03 -0.85348996058E+03  0.10234266818E+04  0.00000000000E+00 0. -1.
        -11    1    3    3    0    0  0.22356667331E+03 -0.14404450748E+03 -0.42889989819E+03  0.50466424503E+03  0.00000000000E+00 0.  1.
         22    1    1    2    0    0 -0.61730878669E+03  0.54892005411E+03  0.35104920774E+03  0.89756276114E+03  0.00000000000E+00 0.  1.
<mgrwt>
<rscale>  0 0.22397322E+04</rscale>
<asrwt>0</asrwt>
<pdfrwt beam="1">  1        1 0.25823033E+00 0.22397322E+04</pdfrwt>
<pdfrwt beam="2">  1       -1 0.11494716E+00 0.22397322E+04</pdfrwt>
<totfact> 0.30777783E+00</totfact>
</mgrwt>
</event>
<event>
 6    1  0.1001928E-005  0.2555171E+04  0.7818608E-02  0.8383590E-01
          2   -1    0    0  501    0  0.00000000000E+00  0.00000000000E+00  0.79722698045E+03  0.79722698045E+03  0.00000000000E+00 0. -1.
         -2   -1    0    0    0  501 -0.00000000000E+00 -0.00000000000E+00 -0.20473777963E+04  0.20473777963E+04  0.00000000000E+00 0.  1.
         23    2    1    2    0    0  0.36152039255E+03 -0.25004272635E+03  0.70679545869E+03  0.83889864657E+03  0.10475094064E+03 0.  0.
         13    1    3    3    0    0  0.22083253595E+03 -0.13183506140E+03  0.49991005236E+03  0.56218996149E+03  0.00000000000E+00 0.  1.
        -13    1    3    3    0    0  0.14068785660E+03 -0.11820766496E+03  0.20688540633E+03  0.27670868509E+03  0.00000000000E+00 0. -1.
         22    1    1    2    0    0 -0.36152039255E+03  0.25004272635E+03 -0.19569462745E+04  0.20057061302E+04  0.00000000000E+00 0.  1.
<mgrwt>
<rscale>  0 0.25551711E+04</rscale>
<asrwt>0</asrwt>
<pdfrwt beam="1">  1        2 0.12265031E+00 0.25551711E+04</pdfrwt>
<pdfrwt beam="2">  1       -2 0.31498120E+00 0.25551711E+04</pdfrwt>
<totfact> 0.79022052E-01</totfact>
</mgrwt>
</event>
<event>
 6    1  0.1001928E-005  0.1349170E+04  0.7818608E-02  0.8991457E-01
         -2   -1    0    0    0  501 -0.00000000000E+00  0.00000000000E+00  0.59502461815E+03  0.59502461815E+03  0.00000000000E+00 0.  1.
          2   -1    0    0  501    0  0.00000000000E+00 -0.00000000000E+00 -0.76478280046E+03  0.76478280046E+03  0.00000000000E+00 0. -1.
         23    2    1    2    0    0 -0.38131808045E+03 -0.28668288502E+03  0.39097472505E+03  0.62359281101E+03  0.91739867452E+02 0.  0.
         13    1    3    3    0    0 -0.12567982429E+03 -0.61857588566E+02  0.73935651251E+02  0.15839273981E+03  0.00000000000E+00 0.  1.
        -13    1    3    3    0    0 -0.25563825615E+03 -0.22482529646E+03  0.31703907380E+03  0.46520007121E+03  0.00000000000E+00 0. -1.
         22    1    1    2    0    0  0.38131808045E+03  0.28668288502E+03 -0.56073290736E+03  0.73621460760E+03  0.00000000000E+00 0. -1.
<mgrwt>
<rscale>  0 0.13491695E+04</rscale>
<asrwt>0</asrwt>
<pdfrwt beam="1">  1        2 0.11765889E+00 0.13491695E+04</pdfrwt>
<pdfrwt beam="2">  1       -2 0.91542249E-01 0.13491695E+04</pdfrwt>
<totfact> 0.36296230E+01</totfact>
</mgrwt>
</event>
<event>
 6    1  0.1001928E-005  0.1827794E+04  0.7818608E-02  0.8691657E-01
          1   -1    0    0  501    0  0.00000000000E+00  0.00000000000E+00  0.18119727765E+04  0.18119727765E+04  0.00000000000E+00 0. -1.
         -1   -1    0    0    0  501 -0.00000000000E+00 -0.00000000000E+00 -0.46093853917E+03  0.46093853917E+03  0.00000000000E+00 0.  1.
         23    2    1    2    0    0 -0.74747288751E+02 -0.44989861196E+03 -0.30442919547E+03  0.55577559141E+03  0.90628112256E+02 0.  0.
         13    1    3    3    0    0 -0.29760137583E+02 -0.37902904231E+03 -0.26192602739E+03  0.46168595878E+03  0.00000000000E+00 0. -1.
        -13    1    3    3    0    0 -0.44987151168E+02 -0.70869569643E+02 -0.42503168083E+02  0.94089632632E+02  0.00000000000E+00 0.  1.
         22    1    1    2    0    0  0.74747288751E+02  0.44989861196E+03  0.16554634328E+04  0.17171357243E+04  0.00000000000E+00 0. -1.
<mgrwt>
<rscale>  0 0.18277944E+04</rscale>
<asrwt>0</asrwt>
<pdfrwt beam="1">  1        1 0.27876504E+00 0.18277944E+04</pdfrwt>
<pdfrwt beam="2">  1       -1 0.70913622E-01 0.18277944E+04</pdfrwt>
<totfact> 0.75607345E+00</totfact>
</mgrwt>
</event>
<event>
 6    1  0.1001928E-005  0.1626377E+04  0.7818608E-02  0.8804506E-01
         -1   -1    0    0    0  501 -0.00000000000E+00  0.00000000000E+00  0.23122752009E+03  0.23122752009E+03  0.00000000000E+00 0.  1.
          1   -1    0    0  501    0  0.00000000000E+00 -0.00000000000E+00 -0.28598466272E+04  0.28598466272E+04  0.00000000000E+00 0. -1.
         23    2    1    2    0    0 -0.32523459919E+03 -0.74202901261E+03 -0.14048319293E+04  0.16234094524E+04  0.74302762004E+02 0.  0.
         11    1    3    3    0    0 -0.22516748714E+03 -0.44388269202E+03 -0.90601997368E+03  0.10337332510E+04  0.00000000000E+00 0. -1.
        -11    1    3    3    0    0 -0.10006711205E+03 -0.29814632059E+03 -0.49881195564E+03  0.58967620139E+03  0.00000000000E+00 0.  1.
         22    1    1    2    0    0  0.32523459919E+03  0.74202901261E+03 -0.12237871778E+04  0.14676646949E+04  0.00000000000E+00 0.  1.
<mgrwt>
<rscale>  0 0.16263766E+04</rscale>
<asrwt>0</asrwt>
<pdfrwt beam="1">  1        1 0.43997638E+00 0.16263766E+04</pdfrwt>
<pdfrwt beam="2">  1       -1 0.35573466E-01 0.16263766E+04</pdfrwt>
<totfact> 0.54692682E+00</totfact>
</mgrwt>
</event>
<event>
 6    1  0.1001928E-005  0.5309987E+04  0.7818608E-02  0.7782390E-01
          1   -1    0    0  501    0  0.00000000000E+00  0.00000000000E+00  0.37330763209E+04  0.37330763209E+04  0.00000000000E+00 0. -1.
         -1   -1    0    0    0  501 -0.00000000000E+00 -0.00000000000E+00 -0.18882526276E+04  0.18882526276E+04  0.00000000000E+00 0.  1.
         23    2    1    2    0    0 -0.20786380640E+04  0.11735288870E+04 -0.30632346103E+03  0.24080221892E+04  0.82647148015E+02 0.  0.
         11    1    3    3    0    0 -0.20138332111E+03  0.14036591965E+03 -0.41046198118E+02  0.24888275111E+03  0.00000000000E+00 0.  1.
        -11    1    3    3    0    0 -0.18772547429E+04  0.10331629673E+04 -0.26527726292E+03  0.21591394381E+04  0.00000000000E+00 0. -1.
         22    1    1    2    0    0  0.20786380640E+04 -0.11735288870E+04  0.21511471544E+04  0.32133067593E+04  0.00000000000E+00 0. -1.
<mgrwt>
<rscale>  0 0.53099873E+04</rscale>
<asrwt>0</asrwt>
<pdfrwt beam="1">  1        1 0.57431943E+00 0.53099873E+04</pdfrwt>
<pdfrwt beam="2">  1       -1 0.29050041E+00 0.53099873E+04</pdfrwt>
<totfact> 0.43358846E-03</totfact>
</mgrwt>
</event>
<event>
 6    1  0.1001928E-005  0.3415954E+04  0.7818608E-02  0.8134002E-01
         -2   -1    0    0    0  501 -0.00000000000E+00  0.00000000000E+00  0.13566350461E+04  0.13566350461E+04  0.00000000000E+00 0. -1.
          2   -1    0    0  501    0  0.00000000000E+00 -0.00000000000E+00 -0.21503098199E+04  0.21503098199E+04  0.00000000000E+00 0.  1.
         23    2    1    2    0    0  0.17340760152E+03  0.13704063761E+04 -0.14263649408E+04  0.19876092615E+04  0.89385684194E+02 0.  0.
         11    1    3    3    0    0  0.43577033043E+02  0.55492411865E+03 -0.52448939872E+03  0.76480642298E+03  0.00000000000E+00 0.  1.
        -11    1    3    3    0    0  0.12983056848E+03  0.81548225741E+03 -0.90187554205E+03  0.12228028386E+04  0.00000000000E+00 0. -1.
         22    1    1    2    0    0 -0.17340760152E+03 -0.13704063761E+04  0.63269016694E+03  0.15193356045E+04  0.00000000000E+00 0. -1.
<mgrwt>
<rscale>  0 0.34159541E+04</rscale>
<asrwt>0</asrwt>
<pdfrwt beam="1">  1        2 0.33081689E+00 0.34159541E+04</pdfrwt>
<pdfrwt beam="2">  1       -2 0.20871308E+00 0.34159541E+04</pdfrwt>
<totfact> 0.53178952E-01</totfact>
</mgrwt>
</event>
<event>
 6    1  0.1001928E-005  0.2266491E+04  0.7818608E-02  0.8491251E-01
          2   -1    0    0  501    0  0.00000000000E+00  0.00000000000E+00  0.21240058476E+04  0.21240058476E+04  0.00000000000E+00 0. -1.
         -2   -1    0    0    0  501 -0.00000000000E+00 -0.00000000000E+00 -0.60463385785E+03  0.60463385785E+03  0.00000000000E+00 0.  1.
         23    2    1    2    0    0  0.29084708616E+03 -0.55086784272E+03 -0.37690737833E+03  0.73266303989E+03  0.81783558847E+02 0.  0.
         13    1    3    3    0    0  0.18796384800E+03 -0.41119564024E+03 -0.30200575650E+03  0.54370924184E+03  0.00000000000E+00 0. -1.
        -13    1    3    3    0    0  0.10288323816E+03 -0.13967220249E+03 -0.74901621832E+02  0.18895379805E+03  0.00000000000E+00 0.  1.
         22    1    1    2    0    0 -0.29084708616E+03  0.55086784272E+03  0.18962793681E+04  0.19959766656E+04  0.00000000000E+00 0. -1.
<mgrwt>
<rscale>  0 0.22664914E+04</rscale>
<asrwt>0</asrwt>
<pdfrwt beam="1">  1        2 0.32677013E+00 0.22664914E+04</pdfrwt>
<pdfrwt beam="2">  1       -2 0.93020594E-01 0.22664914E+04</pdfrwt>
<totfact> 0.50693453E+00</totfact>
</mgrwt>
</event>
<event>
 6    1  0.1001928E-005  0.2207422E+04  0.7818608E-02  0.8515345E-01
         -2   -1    0    0    0  501 -0.00000000000E+00  0.00000000000E+00  0.76786022395E+03  0.76786022395E+03  0.00000000000E+00 0. -1.
          2   -1    0    0  501    0  0.00000000000E+00 -0.00000000000E+00 -0.15864582638E+04  0.15864582638E+04  0.00000000000E+00 0.  1.
         23    2    1    2    0    0  0.30598509958E+03 -0.25467146127E+03  0.68585880834E+03  0.79808108864E+03  0.89703314948E+02 0.  0.
         13    1    3    3    0    0  0.29497777020E+03 -0.24814036625E+03  0.68401350451E+03  0.78514966766E+03  0.00000000000E+00 0. -1.
        -13    1    3    3    0    0  0.11007329374E+02 -0.65310950296E+01  0.18453038274E+01  0.12931420976E+02  0.00000000000E+00 0.  1.
         22    1    1    2    0    0 -0.30598509958E+03  0.25467146127E+03 -0.15044568481E+04  0.15562373991E+04  0.00000000000E+00 0.  1.
<mgrwt>
<rscale>  0 0.22074222E+04</rscale>
<asrwt>0</asrwt>
<pdfrwt beam="1">  1        2 0.24407050E+00 0.22074222E+04</pdfrwt>
<pdfrwt beam="2">  1       -2 0.11813234E+00 0.22074222E+04</pdfrwt>
<totfact> 0.57239223E+00</totfact>
</mgrwt>
</event>
<event>
 6    1  0.1001928E-005  0.2181316E+04  0.7818608E-02  0.8526245E-01
          1   -1    0    0  501    0  0.00000000000E+00  0.00000000000E+00  0.14620499490E+04  0.14620499490E+04  0.00000000000E+00 0. -1.
         -1   -1    0    0    0  501 -0.00000000000E+00 -0.00000000000E+00 -0.81360730000E+03  0.81360730000E+03  0.00000000000E+00 0.  1.
         23    2    1    2    0    0 -0.73896408701E+03 -0.42209743407E+02  0.11578094563E+04  0.13771562035E+04  0.90481420230E+02 0.  0.
         13    1    3    3    0    0 -0.11455369647E+03  0.49289898876E+01  0.12741311639E+03  0.17140871198E+03  0.00000000000E+00 0.  1.
        -13    1    3    3    0    0 -0.62441039055E+03 -0.47138733294E+02  0.10303963400E+04  0.12057474916E+04  0.00000000000E+00 0. -1.
         22    1    1    2    0    0  0.73896408701E+03  0.42209743407E+02 -0.50936680733E+03  0.89850104549E+03  0.00000000000E+00 0.  1.
<mgrwt>
<rscale>  0 0.21813157E+04</rscale>
<asrwt>0</asrwt>
<pdfrwt beam="1">  1        1 0.22493076E+00 0.21813157E+04</pdfrwt>
<pdfrwt beam="2">  1       -1 0.12517035E+00 0.21813157E+04</pdfrwt>
<totfact> 0.35406651E+00</totfact>
</mgrwt>
</event>
<event>
 6    1  0.1001928E-005  0.2763780E+04  0.7818608E-02  0.8314602E-01
         -2   -1    0    0    0  501 -0.00000000000E+00  0.00000000000E+00  0.12483639669E+04  0.12483639669E+04  0.00000000000E+00 0.  1.
          2   -1    0    0  501    0  0.00000000000E+00 -0.00000000000E+00 -0.15296984677E+04  0.15296984677E+04  0.00000000000E+00 0. -1.
         23    2    1    2    0    0 -0.46292241653E+03  0.84576236729E+03  0.85237900538E+03  0.12898025582E+04  0.86194689847E+02 0.  0.
         13    1    3    3    0    0 -0.17482843404E+03  0.40311061777E+03  0.40719568960E+03  0.59905882945E+03  0.00000000000E+00 0.  1.
        -13    1    3    3    0    0 -0.28809398249E+03  0.44265174951E+03  0.44518331578E+03  0.69074372870E+03  0.00000000000E+00 0. -1.
         22    1    1    2    0    0  0.46292241653E+03 -0.84576236729E+03 -0.11337135063E+04  0.14882598765E+04  0.00000000000E+00 0. -1.
<mgrwt>
<rscale>  0 0.27637803E+04</rscale>
<asrwt>0</asrwt>
<pdfrwt beam="1">  1        2 0.23533823E+00 0.27637803E+04</pdfrwt>
<pdfrwt beam="2">  1       -2 0.19205599E+00 0.27637803E+04</pdfrwt>
<totfact> 0.16007686E+00</totfact>
</mgrwt>
</event>
<event>
 6    1  0.1001928E-005  0.1576170E+04  0.7818608E-02  0.8835323E-01
          1   -1    0    0  501    0  0.00000000000E+00  0.00000000000E+00  0.17151920765E+04  0.17151920765E+04  0.00000000000E+00 0. -1.
         -1   -1    0    0    0  501 -0.00000000000E+00 -0.00000000000E+00 -0.36210396531E+03  0.36210396531E+03  0.00000000000E+00 0.  1.
         23    2    1    2    0    0  0.55901252371E+02 -0.47220973905E+03  0.15015641678E+04  0.15791473421E+04  0.11359749228E+03 0.  0.
         13    1    3    3    0    0  0.34338157463E+02 -0.68672034131E+02  0.36195206020E+03  0.37000574483E+03  0.00000000000E+00 0. -1.
        -13    1    3    3    0    0  0.21563094908E+02 -0.40353770492E+03  0.11396121076E+04  0.12091415972E+04  0.00000000000E+00 0.  1.
         22    1    1    2    0    0 -0.55901252371E+02  0.47220973905E+03 -0.14847605661E+03  0.49814869974E+03  0.00000000000E+00 0.  1.
<mgrwt>
<rscale>  0 0.15761699E+04</rscale>
<asrwt>0</asrwt>
<pdfrwt beam="1">  1        1 0.26387570E+00 0.15761699E+04</pdfrwt>
<pdfrwt beam="2">  1       -1 0.55708303E-01 0.15761699E+04</pdfrwt>
<totfact> 0.14580705E+01</totfact>
</mgrwt>
</event>
<event>
 6    1  0.1001928E-005  0.4497171E+04  0.7818608E-02  0.7911132E-01
         -1   -1    0    0    0  501 -0.00000000000E+00  0.00000000000E+00  0.25871591026E+04  0.25871591026E+04  0.00000000000E+00 0.  1.
          1   -1    0    0  501    0  0.00000000000E+00 -0.00000000000E+00 -0.19543203768E+04  0.19543203768E+04  0.00000000000E+00 0. -1.
         23    2    1    2    0    0 -0.14453635806E+04 -0.17094006638E+04  0.11233717620E+03  0.22432087442E+04  0.90770694799E+02 0.  0.
         11    1    3    3    0    0 -0.97192073400E+03 -0.11331621833E+04  0.33360701286E+02  0.14932512793E+04  0.00000000000E+00 0.  1.
        -11    1    3    3    0    0 -0.47344284661E+03 -0.57623848052E+03  0.78976474916E+02  0.74995746481E+03  0.00000000000E+00 0. -1.
         22    1    1    2    0    0  0.14453635806E+04  0.17094006638E+04  0.52050154957E+03  0.22982707353E+04  0.00000000000E+00 0. -1.
<mgrwt>
<rscale>  0 0.44971714E+04</rscale>
<asrwt>0</asrwt>
<pdfrwt beam="1">  1        1 0.30066467E+00 0.44971714E+04</pdfrwt>
<pdfrwt beam="2">  1       -1 0.39802448E+00 0.44971714E+04</pdfrwt>
<totfact> 0.17748936E-02</totfact>
</mgrwt>
</event>
<event>
 6    1  0.1001928E-005  0.2279246E+04  0.7818608E-02  0.8486149E-01
         -1   -1    0    0    0  501 -0.00000000000E+00  0.00000000000E+00  0.13564963757E+04  0.13564963757E+04  0.00000000000E+00 0.  1.
          1   -1    0    0  501    0  0.00000000000E+00 -0.00000000000E+00 -0.95742249226E+03  0.95742249226E+03  0.00000000000E+00 0. -1.
         23    2    1    2    0    0  0.30651121554E+03 -0.70173584109E+03 -0.65462930155E+03  0.10113549663E+04  0.88977690600E+02 0.  0.
         11    1    3    3    0    0  0.75817931731E+01 -0.43720530016E+02 -0.64544631838E+02  0.78326099301E+02  0.00000000000E+00 0.  1.
        -11    1    3    3    0    0  0.29892942237E+03 -0.65801531107E+03 -0.59008466972E+03  0.93302886697E+03  0.00000000000E+00 0. -1.
         22    1    1    2    0    0 -0.30651121554E+03  0.70173584109E+03  0.10537031850E+04  0.13025639017E+04  0.00000000000E+00 0.  1.
<mgrwt>
<rscale>  0 0.22792456E+04</rscale>
<asrwt>0</asrwt>
<pdfrwt beam="1">  1        1 0.14729577E+00 0.22792456E+04</pdfrwt>
<pdfrwt beam="2">  1       -1 0.20869175E+00 0.22792456E+04</pdfrwt>
<totfact> 0.19425754E+00</totfact>
</mgrwt>
</event>
<event>
 6    1  0.1001928E-005  0.2472015E+04  0.7818608E-02  0.8413024E-01
         -1   -1    0    0    0  501 -0.00000000000E+00  0.00000000000E+00  0.89730732303E+03  0.89730732303E+03  0.00000000000E+00 0.  1.
          1   -1    0    0  501    0  0.00000000000E+00 -0.00000000000E+00 -0.17025542114E+04  0.17025542114E+04  0.00000000000E+00 0. -1.
         23    2    1    2    0    0  0.52681478898E+03  0.12525881237E+02 -0.15774209559E+04  0.16650120758E+04  0.79483462454E+02 0.  0.
         13    1    3    3    0    0  0.27533839719E+03 -0.17529025298E+02 -0.92062701249E+03  0.96107887076E+03  0.00000000000E+00 0. -1.
        -13    1    3    3    0    0  0.25147639179E+03  0.30054906535E+02 -0.65679394342E+03  0.70393320504E+03  0.00000000000E+00 0.  1.
         22    1    1    2    0    0 -0.52681478898E+03 -0.12525881237E+02  0.77217406758E+03  0.93484945859E+03  0.00000000000E+00 0.  1.
<mgrwt>
<rscale>  0 0.24720149E+04</rscale>
<asrwt>0</asrwt>
<pdfrwt beam="1">  1        1 0.26193141E+00 0.24720149E+04</pdfrwt>
<pdfrwt beam="2">  1       -1 0.13804728E+00 0.24720149E+04</pdfrwt>
<totfact> 0.18380980E+00</totfact>
</mgrwt>
</event>
<event>
 6    1  0.1001928E-005  0.1384839E+04  0.7818608E-02  0.8964866E-01
          1   -1    0    0  501    0  0.00000000000E+00  0.00000000000E+00  0.11805477835E+04  0.11805477835E+04  0.00000000000E+00 0. -1.
         -1   -1    0    0    0  501 -0.00000000000E+00 -0.00000000000E+00 -0.40612074202E+03  0.40612074202E+03  0.00000000000E+00 0.  1.
         23    2    1    2    0    0  0.40199335871E+03  0.15526792229E+02  0.10303976551E+04  0.11098449766E+04  0.90536196269E+02 0.  0.
         13    1    3    3    0    0  0.18757046351E+03 -0.31966547448E+02  0.53912884610E+03  0.57172060627E+03  0.00000000000E+00 0. -1.
        -13    1    3    3    0    0  0.21442289520E+03  0.47493339677E+02  0.49126880900E+03  0.53812437038E+03  0.00000000000E+00 0.  1.
         22    1    1    2    0    0 -0.40199335871E+03 -0.15526792229E+02 -0.25597061361E+03  0.47682354887E+03  0.00000000000E+00 0.  1.
<mgrwt>
<rscale>  0 0.13848393E+04</rscale>
<asrwt>0</asrwt>
<pdfrwt beam="1">  1        1 0.18162273E+00 0.13848393E+04</pdfrwt>
<pdfrwt beam="2">  1       -1 0.62480115E-01 0.13848393E+04</pdfrwt>
<totfact> 0.28009228E+01</totfact>
</mgrwt>
</event>
<event>
 6    1  0.1001928E-005  0.5134848E+04  0.7818608E-02  0.7808036E-01
         -2   -1    0    0    0  501 -0.00000000000E+00  0.00000000000E+00  0.22199966900E+04  0.22199966900E+04  0.00000000000E+00 0.  1.
          2   -1    0    0  501    0  0.00000000000E+00 -0.00000000000E+00 -0.29692233831E+04  0.29692233831E+04  0.00000000000E+00 0. -1.
         23    2    1    2    0    0 -0.17018922736E+04 -0.19034393655E+04 -0.11120579202E+03  0.25573786267E+04  0.91104244204E+02 0.  0.
         11    1    3    3    0    0 -0.85851228412E+03 -0.92735372266E+03 -0.95019847279E+02  0.12673030578E+04  0.00000000000E+00 0.  1.
        -11    1    3    3    0    0 -0.84337998945E+03 -0.97608564283E+03 -0.16185944738E+02  0.12900755689E+04  0.00000000000E+00 0. -1.
         22    1    1    2    0    0  0.17018922736E+04  0.19034393655E+04 -0.63802090106E+03  0.26318414464E+04  0.00000000000E+00 0. -1.
<mgrwt>
<rscale>  0 0.51348480E+04</rscale>
<asrwt>0</asrwt>
<pdfrwt beam="1">  1        2 0.45680360E+00 0.51348480E+04</pdfrwt>
<pdfrwt beam="2">  1       -2 0.34153795E+00 0.51348480E+04</pdfrwt>
<totfact> 0.23046809E-02</totfact>
</mgrwt>
</event>
<event>
 6    1  0.1001928E-005  0.1973354E+04  0.7818608E-02  0.8619181E-01
          1   -1    0    0  501    0  0.00000000000E+00  0.00000000000E+00  0.19581524651E+04  0.19581524651E+04  0.00000000000E+00 0. -1.
         -1   -1    0    0    0  501 -0.00000000000E+00 -0.00000000000E+00 -0.49716848215E+03  0.49716848215E+03  0.00000000000E+00 0.  1.
         23    2    1    2    0    0  0.78153319514E+03 -0.58680649396E+03  0.88151124079E+03  0.13191322942E+04  0.88949117231E+02 0.  0.
         13    1    3    3    0    0  0.16885810175E+03 -0.12678915669E+03  0.14321348643E+03  0.25514437379E+03  0.00000000000E+00 0.  1.
        -13    1    3    3    0    0  0.61267509339E+03 -0.46001733726E+03  0.73829775436E+03  0.10639879204E+04  0.00000000000E+00 0. -1.
         22    1    1    2    0    0 -0.78153319514E+03  0.58680649396E+03  0.57947274218E+03  0.11361886531E+04  0.00000000000E+00 0.  1.
<mgrwt>
<rscale>  0 0.19733542E+04</rscale>
<asrwt>0</asrwt>
<pdfrwt beam="1">  1        1 0.30125422E+00 0.19733542E+04</pdfrwt>
<pdfrwt beam="2">  1       -1 0.76487460E-01 0.19733542E+04</pdfrwt>
<totfact> 0.50745177E+00</totfact>
</mgrwt>
</event>
<event>
 6    1  0.1001928E-005  0.4798131E+04  0.7818608E-02  0.7860425E-01
          2   -1    0    0  501    0  0.00000000000E+00  0.00000000000E+00  0.15563825088E+04  0.15563825088E+04  0.00000000000E+00 0. -1.
         -2   -1    0    0    0  501 -0.00000000000E+00 -0.00000000000E+00 -0.36980087830E+04  0.36980087830E+04  0.00000000000E+00 0.  1.
         23    2    1    2    0    0 -0.12588162461E+04 -0.20345364994E+04 -0.88940018577E+03  0.25540158946E+04  0.89484023508E+02 0.  0.
         11    1    3    3    0    0 -0.66382610149E+03 -0.10484421648E+04 -0.41558516189E+03  0.13086661503E+04  0.00000000000E+00 0. -1.
        -11    1    3    3    0    0 -0.59499014466E+03 -0.98609433455E+03 -0.47381502387E+03  0.12453497443E+04  0.00000000000E+00 0.  1.
         22    1    1    2    0    0  0.12588162461E+04  0.20345364994E+04 -0.12522260885E+04  0.27003753972E+04  0.00000000000E+00 0.  1.
<mgrwt>
<rscale>  0 0.47981314E+04</rscale>
<asrwt>0</asrwt>
<pdfrwt beam="1">  1        2 0.23944346E+00 0.47981314E+04</pdfrwt>
<pdfrwt beam="2">  1       -2 0.56892442E+00 0.47981314E+04</pdfrwt>
<totfact> 0.60694485E-03</totfact>
</mgrwt>
</event>
<event>
 6    1  0.1001928E-005  0.1209036E+04  0.7818608E-02  0.9104984E-01
         -4   -1    0    0    0  501 -0.00000000000E+00  0.00000000000E+00  0.78584528684E+03  0.78584528684E+03  0.00000000000E+00 0.  1.
          4   -1    0    0  501    0  0.00000000000E+00 -0.00000000000E+00 -0.46503084677E+03  0.46503084677E+03  0.00000000000E+00 0. -1.
         23    2    1    2    0    0 -0.39590804211E+02  0.21272236822E+03  0.74146088200E+03  0.77784160334E+03  0.91951523248E+02 0.  0.
         11    1    3    3    0    0  0.17126716891E+02  0.10921940369E+03  0.45021946240E+03  0.46359439912E+03  0.00000000000E+00 0.  1.
        -11    1    3    3    0    0 -0.56717521102E+02  0.10350296453E+03  0.29124141960E+03  0.31424720421E+03  0.00000000000E+00 0. -1.
         22    1    1    2    0    0  0.39590804211E+02 -0.21272236822E+03 -0.42064644194E+03  0.47303453027E+03  0.00000000000E+00 0. -1.
<mgrwt>
<rscale>  0 0.12090365E+04</rscale>
<asrwt>0</asrwt>
<pdfrwt beam="1">  1        4 0.71543207E-01 0.12090365E+04</pdfrwt>
<pdfrwt beam="2">  1       -4 0.12089927E+00 0.12090365E+04</pdfrwt>
<totfact> 0.18229908E+00</totfact>
</mgrwt>
</event>
<event>
 6    1  0.1001928E-005  0.5264018E+04  0.7818608E-02  0.7789022E-01
         -2   -1    0    0    0  501 -0.00000000000E+00  0.00000000000E+00  0.18663074031E+04  0.18663074031E+04  0.00000000000E+00 0.  1.
          2   -1    0    0  501    0  0.00000000000E+00 -0.00000000000E+00 -0.37118603410E+04  0.37118603410E+04  0.00000000000E+00 0. -1.
         23    2    1    2    0    0 -0.30494122225E+02  0.19143818560E+04  0.98959291661E+03  0.21570802272E+04  0.88956078315E+02 0.  0.
         11    1    3    3    0    0  0.17244595328E+01  0.16853181176E+03  0.59970943957E+02  0.17889231245E+03  0.00000000000E+00 0. -1.
        -11    1    3    3    0    0 -0.32218581758E+02  0.17458500442E+04  0.92962197265E+03  0.19781879147E+04  0.00000000000E+00 0.  1.
         22    1    1    2    0    0  0.30494122225E+02 -0.19143818560E+04 -0.28351458545E+04  0.34210875169E+04  0.00000000000E+00 0. -1.
<mgrwt>
<rscale>  0 0.52640184E+04</rscale>
<asrwt>0</asrwt>
<pdfrwt beam="1">  1        2 0.57105543E+00 0.52640184E+04</pdfrwt>
<pdfrwt beam="2">  1       -2 0.28712422E+00 0.52640184E+04</pdfrwt>
<totfact> 0.15490961E-02</totfact>
</mgrwt>
</event>
<event>
 6    1  0.1001928E-005  0.3129295E+04  0.7818608E-02  0.8207744E-01
         -1   -1    0    0    0  501 -0.00000000000E+00  0.00000000000E+00  0.12779757715E+04  0.12779757715E+04  0.00000000000E+00 0.  1.
          1   -1    0    0  501    0  0.00000000000E+00 -0.00000000000E+00 -0.19156244397E+04  0.19156244397E+04  0.00000000000E+00 0. -1.
         23    2    1    2    0    0 -0.13786100326E+04 -0.71269206195E+03 -0.12613481932E+03  0.15595432920E+04  0.88145844159E+02 0.  0.
         13    1    3    3    0    0 -0.55982255476E+03 -0.30898725454E+03 -0.91864070464E+02  0.64599800598E+03  0.00000000000E+00 0. -1.
        -13    1    3    3    0    0 -0.81878747788E+03 -0.40370480741E+03 -0.34270748855E+02  0.91354528606E+03  0.00000000000E+00 0.  1.
         22    1    1    2    0    0  0.13786100326E+04  0.71269206195E+03 -0.51151384888E+03  0.16340569191E+04  0.00000000000E+00 0.  1.
<mgrwt>
<rscale>  0 0.31292949E+04</rscale>
<asrwt>0</asrwt>
<pdfrwt beam="1">  1        1 0.29471145E+00 0.31292949E+04</pdfrwt>
<pdfrwt beam="2">  1       -1 0.19661166E+00 0.31292949E+04</pdfrwt>
<totfact> 0.45466279E-01</totfact>
</mgrwt>
</event>
<event>
 6    1  0.1001928E-005  0.2488943E+04  0.7818608E-02  0.8406935E-01
          1   -1    0    0  501    0  0.00000000000E+00  0.00000000000E+00  0.21623299003E+04  0.21623299003E+04  0.00000000000E+00 0. -1.
         -1   -1    0    0    0  501 -0.00000000000E+00 -0.00000000000E+00 -0.71622256471E+03  0.71622256471E+03  0.00000000000E+00 0.  1.
         23    2    1    2    0    0  0.11410348752E+04 -0.45445872411E+03  0.50474435146E+03  0.13310843437E+04  0.92332829554E+02 0.  0.
         13    1    3    3    0    0  0.86346189256E+03 -0.38526683752E+03  0.39435712345E+03  0.10244581577E+04  0.00000000000E+00 0. -1.
        -13    1    3    3    0    0  0.27757298267E+03 -0.69191886584E+02  0.11038722801E+03  0.30662618607E+03  0.00000000000E+00 0.  1.
         22    1    1    2    0    0 -0.11410348752E+04  0.45445872411E+03  0.94136298409E+03  0.15474681212E+04  0.00000000000E+00 0. -1.
<mgrwt>
<rscale>  0 0.24889431E+04</rscale>
<asrwt>0</asrwt>
<pdfrwt beam="1">  1        1 0.33266614E+00 0.24889431E+04</pdfrwt>
<pdfrwt beam="2">  1       -1 0.11018809E+00 0.24889431E+04</pdfrwt>
<totfact> 0.15618319E+00</totfact>
</mgrwt>
</event>
<event>
 6    1  0.1001928E-005  0.2131625E+04  0.7818608E-02  0.8547439E-01
         -1   -1    0    0    0  501 -0.00000000000E+00  0.00000000000E+00  0.82959628759E+03  0.82959628759E+03  0.00000000000E+00 0.  1.
          1   -1    0    0  501    0  0.00000000000E+00 -0.00000000000E+00 -0.13692880986E+04  0.13692880986E+04  0.00000000000E+00 0. -1.
         23    2    1    2    0    0 -0.22170114320E+03  0.53757978941E+03  0.64867688618E+03  0.87587131471E+03  0.90694158537E+02 0.  0.
         11    1    3    3    0    0 -0.65194264168E+02  0.16730645055E+03  0.26547188236E+03  0.32049502461E+03  0.00000000000E+00 0.  1.
        -11    1    3    3    0    0 -0.15650687903E+03  0.37027333886E+03  0.38320500382E+03  0.55537629010E+03  0.00000000000E+00 0. -1.
         22    1    1    2    0    0  0.22170114320E+03 -0.53757978941E+03 -0.11883686972E+04  0.13230130715E+04  0.00000000000E+00 0.  1.
<mgrwt>
<rscale>  0 0.21316250E+04</rscale>
<asrwt>0</asrwt>
<pdfrwt beam="1">  1        1 0.21065971E+00 0.21316250E+04</pdfrwt>
<pdfrwt beam="2">  1       -1 0.12763020E+00 0.21316250E+04</pdfrwt>
<totfact> 0.39346801E+00</totfact>
</mgrwt>
</event>
<event>
 6    1  0.1001928E-005  0.9186467E+03  0.7818608E-02  0.9402568E-01
         -2   -1    0    0    0  501 -0.00000000000E+00  0.00000000000E+00  0.20913012600E+03  0.20913012600E+03  0.00000000000E+00 0.  1.
          2   -1    0    0  501    0  0.00000000000E+00 -0.00000000000E+00 -0.10088357794E+04  0.10088357794E+04  0.00000000000E+00 0. -1.
         23    2    1    2    0    0  0.26227421908E+03 -0.30357083429E+02 -0.89480693044E+03  0.93733523814E+03  0.90601254899E+02 0.  0.
         11    1    3    3    0    0  0.25666742545E+03 -0.15786915774E+02 -0.77579364588E+03  0.81730237672E+03  0.00000000000E+00 0.  1.
        -11    1    3    3    0    0  0.56067936304E+01 -0.14570167655E+02 -0.11901328456E+03  0.12003286143E+03  0.00000000000E+00 0. -1.
         22    1    1    2    0    0 -0.26227421908E+03  0.30357083429E+02  0.95101277049E+02  0.28063066726E+03  0.00000000000E+00 0.  1.
<mgrwt>
<rscale>  0 0.91864673E+03</rscale>
<asrwt>0</asrwt>
<pdfrwt beam="1">  1        2 0.15520550E+00 0.91864673E+03</pdfrwt>
<pdfrwt beam="2">  1       -2 0.32173866E-01 0.91864673E+03</pdfrwt>
<totfact> 0.22366761E+02</totfact>
</mgrwt>
</event>
<event>
 6    1  0.1012313E-005  0.3426406E+04  0.7818608E-02  0.8131456E-01
         -2   -1    0    0    0  501 -0.00000000000E+00  0.00000000000E+00  0.10555307854E+04  0.10555307854E+04  0.00000000000E+00 0. -1.
          2   -1    0    0  501    0  0.00000000000E+00 -0.00000000000E+00 -0.27806525043E+04  0.27806525043E+04  0.00000000000E+00 0.  1.
         23    2    1    2    0    0  0.74992034600E+03  0.83512966415E+03 -0.23104314271E+04  0.25703201313E+04  0.92898421843E+02 0.  0.
         11    1    3    3    0    0  0.29950582529E+03  0.40172104226E+03 -0.10451081197E+04  0.11590230874E+04  0.00000000000E+00 0.  1.
        -11    1    3    3    0    0  0.45041452072E+03  0.43340862190E+03 -0.12653233074E+04  0.14112970439E+04  0.00000000000E+00 0. -1.
         22    1    1    2    0    0 -0.74992034600E+03 -0.83512966415E+03  0.58530970812E+03  0.12658631584E+04  0.00000000000E+00 0. -1.
<mgrwt>
<rscale>  0 0.34264059E+04</rscale>
<asrwt>0</asrwt>
<pdfrwt beam="1">  1        2 0.42779268E+00 0.34264059E+04</pdfrwt>
<pdfrwt beam="2">  1       -2 0.16238936E+00 0.34264059E+04</pdfrwt>
<totfact> 0.47481653E-01</totfact>
</mgrwt>
</event>
<event>
 6    1  0.1001928E-005  0.1702818E+04  0.7818608E-02  0.8759759E-01
         -2   -1    0    0    0  501 -0.00000000000E+00  0.00000000000E+00  0.89132315527E+03  0.89132315527E+03  0.00000000000E+00 0.  1.
          2   -1    0    0  501    0  0.00000000000E+00 -0.00000000000E+00 -0.81328192661E+03  0.81328192661E+03  0.00000000000E+00 0. -1.
         23    2    1    2    0    0 -0.37026283425E+03 -0.67479556488E+02 -0.72242626439E+03  0.82007341800E+03  0.94724054220E+02 0.  0.
         13    1    3    3    0    0 -0.22658611781E+03 -0.35589428678E+02 -0.33834671422E+03  0.40876200317E+03  0.00000000000E+00 0.  1.
        -13    1    3    3    0    0 -0.14367671644E+03 -0.31890127809E+02 -0.38407955018E+03  0.41131141482E+03  0.00000000000E+00 0. -1.
         22    1    1    2    0    0  0.37026283425E+03  0.67479556488E+02  0.80046749306E+03  0.88453166388E+03  0.00000000000E+00 0.  1.
<mgrwt>
<rscale>  0 0.17028177E+04</rscale>
<asrwt>0</asrwt>
<pdfrwt beam="1">  1        2 0.12512030E+00 0.17028177E+04</pdfrwt>
<pdfrwt beam="2">  1       -2 0.13712664E+00 0.17028177E+04</pdfrwt>
<totfact> 0.12146256E+01</totfact>
</mgrwt>
</event>
<event>
 6    1  0.1001928E-005  0.4691805E+04  0.7818608E-02  0.7877892E-01
          2   -1    0    0  501    0  0.00000000000E+00  0.00000000000E+00  0.32615060335E+04  0.32615060335E+04  0.00000000000E+00 0.  1.
         -2   -1    0    0    0  501 -0.00000000000E+00 -0.00000000000E+00 -0.16873368891E+04  0.16873368891E+04  0.00000000000E+00 0. -1.
         23    2    1    2    0    0  0.14264233761E+04 -0.18565779429E+04  0.92655920409E+03  0.25196529464E+04  0.92594305401E+02 0.  0.
         11    1    3    3    0    0  0.87131140162E+03 -0.10747066917E+04  0.57696126350E+03  0.14990204573E+04  0.00000000000E+00 0. -1.
        -11    1    3    3    0    0  0.55511197451E+03 -0.78187125117E+03  0.34959794059E+03  0.10206324891E+04  0.00000000000E+00 0.  1.
         22    1    1    2    0    0 -0.14264233761E+04  0.18565779429E+04  0.64760994032E+03  0.24291899763E+04  0.00000000000E+00 0.  1.
<mgrwt>
<rscale>  0 0.46918054E+04</rscale>
<asrwt>0</asrwt>
<pdfrwt beam="1">  1        2 0.50177016E+00 0.46918054E+04</pdfrwt>
<pdfrwt beam="2">  1       -2 0.25959029E+00 0.46918054E+04</pdfrwt>
<totfact> 0.49406931E-02</totfact>
</mgrwt>
</event>
<event>
 6    1  0.1001928E-005  0.1228818E+04  0.7818608E-02  0.9088000E-01
          1   -1    0    0  501    0  0.00000000000E+00  0.00000000000E+00  0.21194207100E+03  0.21194207100E+03  0.00000000000E+00 0. -1.
         -1   -1    0    0    0  501 -0.00000000000E+00 -0.00000000000E+00 -0.17811382239E+04  0.17811382239E+04  0.00000000000E+00 0.  1.
         23    2    1    2    0    0 -0.40486651674E+03  0.21585552320E+03 -0.14434897370E+04  0.15173570494E+04  0.90549938939E+02 0.  0.
         13    1    3    3    0    0 -0.21634165032E+03  0.13617794863E+03 -0.93243233177E+03  0.96683928173E+03  0.00000000000E+00 0.  1.
        -13    1    3    3    0    0 -0.18852486642E+03  0.79677574573E+02 -0.51105740518E+03  0.55051776769E+03  0.00000000000E+00 0. -1.
         22    1    1    2    0    0  0.40486651674E+03 -0.21585552320E+03 -0.12570641594E+03  0.47572324547E+03  0.00000000000E+00 0. -1.
<mgrwt>
<rscale>  0 0.12288175E+04</rscale>
<asrwt>0</asrwt>
<pdfrwt beam="1">  1        1 0.32606471E-01 0.12288175E+04</pdfrwt>
<pdfrwt beam="2">  1       -1 0.27402128E+00 0.12288175E+04</pdfrwt>
<totfact> 0.66538522E+00</totfact>
</mgrwt>
</event>
<event>
 6    1  0.1001928E-005  0.1745282E+04  0.7818608E-02  0.8735951E-01
         -1   -1    0    0    0  501 -0.00000000000E+00  0.00000000000E+00  0.23876275741E+03  0.23876275741E+03  0.00000000000E+00 0.  1.
          1   -1    0    0  501    0  0.00000000000E+00 -0.00000000000E+00 -0.31893690892E+04  0.31893690892E+04  0.00000000000E+00 0. -1.
         23    2    1    2    0    0  0.37374147235E+02  0.77658989134E+03 -0.70632227107E+03  0.10529898232E+04  0.73537275780E+02 0.  0.
         11    1    3    3    0    0  0.20104444420E+02  0.20471008101E+03 -0.14657227964E+03  0.25257442291E+03  0.00000000000E+00 0.  1.
        -11    1    3    3    0    0  0.17269702815E+02  0.57187981033E+03 -0.55974999143E+03  0.80041540028E+03  0.00000000000E+00 0. -1.
         22    1    1    2    0    0 -0.37374147235E+02 -0.77658989134E+03 -0.22442840608E+04  0.23751420235E+04  0.00000000000E+00 0. -1.
<mgrwt>
<rscale>  0 0.17452823E+04</rscale>
<asrwt>0</asrwt>
<pdfrwt beam="1">  1        1 0.49067212E+00 0.17452823E+04</pdfrwt>
<pdfrwt beam="2">  1       -1 0.36732735E-01 0.17452823E+04</pdfrwt>
<totfact> 0.29335257E+00</totfact>
</mgrwt>
</event>
<event>
 6    1  0.1001928E-005  0.2464748E+04  0.7818608E-02  0.8415653E-01
          2   -1    0    0  501    0  0.00000000000E+00  0.00000000000E+00  0.17506752039E+04  0.17506752039E+04  0.00000000000E+00 0. -1.
         -2   -1    0    0    0  501 -0.00000000000E+00 -0.00000000000E+00 -0.86751978905E+03  0.86751978905E+03  0.00000000000E+00 0.  1.
         23    2    1    2    0    0  0.58378694766E+03  0.59675481431E+02 -0.70527368884E+03  0.92483284008E+03  0.11634621851E+03 0.  0.
         11    1    3    3    0    0  0.26560768654E+03 -0.26722812119E+02 -0.28211619957E+03  0.38839554825E+03  0.00000000000E+00 0. -1.
        -11    1    3    3    0    0  0.31817926112E+03  0.86398293550E+02 -0.42315748928E+03  0.53643729183E+03  0.00000000000E+00 0.  1.
         22    1    1    2    0    0 -0.58378694766E+03 -0.59675481431E+02  0.15884291037E+04  0.16933621529E+04  0.00000000000E+00 0. -1.
<mgrwt>
<rscale>  0 0.24647478E+04</rscale>
<asrwt>0</asrwt>
<pdfrwt beam="1">  1        2 0.26933465E+00 0.24647478E+04</pdfrwt>
<pdfrwt beam="2">  1       -2 0.13346458E+00 0.24647478E+04</pdfrwt>
<totfact> 0.33397794E+00</totfact>
</mgrwt>
</event>
<event>
 6    1  0.1001928E-005  0.1582273E+04  0.7818608E-02  0.8831513E-01
          2   -1    0    0  501    0  0.00000000000E+00  0.00000000000E+00  0.17804798058E+04  0.17804798058E+04  0.00000000000E+00 0.  1.
         -2   -1    0    0    0  501 -0.00000000000E+00 -0.00000000000E+00 -0.35153261798E+03  0.35153261798E+03  0.00000000000E+00 0. -1.
         23    2    1    2    0    0  0.38826427506E+03  0.21002047899E+03  0.15974810422E+04  0.16595069647E+04  0.84616409985E+02 0.  0.
         11    1    3    3    0    0  0.21264400459E+03  0.68646426978E+02  0.75374521019E+03  0.78616896816E+03  0.00000000000E+00 0.  1.
        -11    1    3    3    0    0  0.17562027047E+03  0.14137405201E+03  0.84373583198E+03  0.87333799651E+03  0.00000000000E+00 0. -1.
         22    1    1    2    0    0 -0.38826427506E+03 -0.21002047899E+03 -0.16853385430E+03  0.47250545915E+03  0.00000000000E+00 0. -1.
<mgrwt>
<rscale>  0 0.15822727E+04</rscale>
<asrwt>0</asrwt>
<pdfrwt beam="1">  1        2 0.27391997E+00 0.15822727E+04</pdfrwt>
<pdfrwt beam="2">  1       -2 0.54081942E-01 0.15822727E+04</pdfrwt>
<totfact> 0.27349054E+01</totfact>
</mgrwt>
</event>
<event>
 6    1  0.1001928E-005  0.6339769E+04  0.7818608E-02  0.7649645E-01
         -2   -1    0    0    0  501 -0.00000000000E+00  0.00000000000E+00  0.26925987306E+04  0.26925987306E+04  0.00000000000E+00 0.  1.
          2   -1    0    0  501    0  0.00000000000E+00 -0.00000000000E+00 -0.37317727781E+04  0.37317727781E+04  0.00000000000E+00 0. -1.
         23    2    1    2    0    0  0.82464916411E+03  0.22272878031E+04 -0.26460875493E+04  0.35567892163E+04  0.90072241361E+02 0.  0.
         11    1    3    3    0    0  0.61783324798E+03  0.16137565348E+04 -0.18713957616E+04  0.25471651247E+04  0.00000000000E+00 0. -1.
        -11    1    3    3    0    0  0.20681591613E+03  0.61353126828E+03 -0.77469178774E+03  0.10096240916E+04  0.00000000000E+00 0.  1.
         22    1    1    2    0    0 -0.82464916411E+03 -0.22272878031E+04  0.16069135018E+04  0.28675822924E+04  0.00000000000E+00 0.  1.
<mgrwt>
<rscale>  0 0.63397687E+04</rscale>
<asrwt>0</asrwt>
<pdfrwt beam="1">  1        2 0.57411889E+00 0.63397687E+04</pdfrwt>
<pdfrwt beam="2">  1       -2 0.41424596E+00 0.63397687E+04</pdfrwt>
<totfact> 0.21665009E-03</totfact>
</mgrwt>
</event>
<event>
 6    1  0.1001928E-005  0.1601583E+04  0.7818608E-02  0.8819576E-01
          2   -1    0    0  501    0  0.00000000000E+00  0.00000000000E+00  0.37933822157E+03  0.37933822157E+03  0.00000000000E+00 0. -1.
         -2   -1    0    0    0  501 -0.00000000000E+00 -0.00000000000E+00 -0.16904888275E+04  0.16904888275E+04  0.00000000000E+00 0.  1.
         23    2    1    2    0    0  0.39041478508E+03 -0.67710247626E+03 -0.86660660815E+03  0.11706547443E+04  0.92379917755E+02 0.  0.
         11    1    3    3    0    0  0.25934950442E+03 -0.39839502002E+03 -0.46982504911E+03  0.66836841203E+03  0.00000000000E+00 0. -1.
        -11    1    3    3    0    0  0.13106528066E+03 -0.27870745624E+03 -0.39678155904E+03  0.50228633223E+03  0.00000000000E+00 0.  1.
         22    1    1    2    0    0 -0.39041478508E+03  0.67710247626E+03 -0.44454399777E+03  0.89917230480E+03  0.00000000000E+00 0.  1.
<mgrwt>
<rscale>  0 0.16015830E+04</rscale>
<asrwt>0</asrwt>
<pdfrwt beam="1">  1        2 0.58359726E-01 0.16015830E+04</pdfrwt>
<pdfrwt beam="2">  1       -2 0.26007521E+00 0.16015830E+04</pdfrwt>
<totfact> 0.45145763E+00</totfact>
</mgrwt>
</event>
<event>
 6    1  0.1001928E-005  0.3366710E+04  0.7818608E-02  0.8146125E-01
         -2   -1    0    0    0  501 -0.00000000000E+00  0.00000000000E+00  0.14170750362E+04  0.14170750362E+04  0.00000000000E+00 0.  1.
          2   -1    0    0  501    0  0.00000000000E+00 -0.00000000000E+00 -0.19996708342E+04  0.19996708342E+04  0.00000000000E+00 0. -1.
         23    2    1    2    0    0 -0.73919742751E+03  0.10617455248E+04 -0.13826074560E+04  0.18956492104E+04  0.90366780425E+02 0.  0.
         11    1    3    3    0    0 -0.36195307413E+03  0.55688587890E+03 -0.76770868986E+03  0.10151396665E+04  0.00000000000E+00 0.  1.
        -11    1    3    3    0    0 -0.37724435338E+03  0.50485964589E+03 -0.61489876617E+03  0.88050954387E+03  0.00000000000E+00 0. -1.
         22    1    1    2    0    0  0.73919742751E+03 -0.10617455248E+04  0.80001165804E+03  0.15210966601E+04  0.00000000000E+00 0.  1.
<mgrwt>
<rscale>  0 0.33667097E+04</rscale>
<asrwt>0</asrwt>
<pdfrwt beam="1">  1        2 0.30764167E+00 0.33667097E+04</pdfrwt>
<pdfrwt beam="2">  1       -2 0.21801154E+00 0.33667097E+04</pdfrwt>
<totfact> 0.56499466E-01</totfact>
</mgrwt>
</event>
<event>
 6    1  0.1001928E-005  0.4129290E+04  0.7818608E-02  0.7978961E-01
          1   -1    0    0  501    0  0.00000000000E+00  0.00000000000E+00  0.26648270148E+04  0.26648270148E+04  0.00000000000E+00 0. -1.
         -1   -1    0    0    0  501 -0.00000000000E+00 -0.00000000000E+00 -0.15996384209E+04  0.15996384209E+04  0.00000000000E+00 0.  1.
         23    2    1    2    0    0  0.38582405776E+02 -0.88957422660E+03 -0.13897653578E+04  0.16530233415E+04  0.90595315986E+02 0.  0.
         11    1    3    3    0    0  0.67312332490E+02 -0.68624413622E+03 -0.10593624255E+04  0.12640058201E+04  0.00000000000E+00 0. -1.
        -11    1    3    3    0    0 -0.28729926714E+02 -0.20333009037E+03 -0.33040293230E+03  0.38901752147E+03  0.00000000000E+00 0.  1.
         22    1    1    2    0    0 -0.38582405776E+02  0.88957422660E+03  0.24549539516E+04  0.26114420942E+04  0.00000000000E+00 0. -1.
<mgrwt>
<rscale>  0 0.41292903E+04</rscale>
<asrwt>0</asrwt>
<pdfrwt beam="1">  1        1 0.40997339E+00 0.41292903E+04</pdfrwt>
<pdfrwt beam="2">  1       -1 0.24609822E+00 0.41292903E+04</pdfrwt>
<totfact> 0.59495499E-02</totfact>
</mgrwt>
</event>
<event>
 6    1  0.1001928E-005  0.1281379E+04  0.7818608E-02  0.9044464E-01
          1   -1    0    0  501    0  0.00000000000E+00  0.00000000000E+00  0.86733600766E+03  0.86733600766E+03  0.00000000000E+00 0. -1.
         -1   -1    0    0    0  501 -0.00000000000E+00 -0.00000000000E+00 -0.47326871710E+03  0.47326871710E+03  0.00000000000E+00 0.  1.
         23    2    1    2    0    0  0.51199405843E+03  0.11006921423E+03 -0.18370906156E+03  0.56081073859E+03  0.80662986725E+02 0.  0.
         13    1    3    3    0    0  0.30346841807E+02  0.27975273447E+02 -0.14441733962E+02  0.43727684731E+02  0.00000000000E+00 0. -1.
        -13    1    3    3    0    0  0.48164721663E+03  0.82093940783E+02 -0.16926732760E+03  0.51708305386E+03  0.00000000000E+00 0.  1.
         22    1    1    2    0    0 -0.51199405843E+03 -0.11006921423E+03  0.57777635213E+03  0.77979398617E+03  0.00000000000E+00 0. -1.
<mgrwt>
<rscale>  0 0.12813789E+04</rscale>
<asrwt>0</asrwt>
<pdfrwt beam="1">  1        1 0.13343631E+00 0.12813789E+04</pdfrwt>
<pdfrwt beam="2">  1       -1 0.72810572E-01 0.12813789E+04</pdfrwt>
<totfact> 0.36251470E+01</totfact>
</mgrwt>
</event>
<event>
 6    1  0.1001928E-005  0.3184804E+04  0.7818608E-02  0.8192842E-01
          1   -1    0    0  501    0  0.00000000000E+00  0.00000000000E+00  0.22343672229E+04  0.22343672229E+04  0.00000000000E+00 0. -1.
         -1   -1    0    0    0  501 -0.00000000000E+00 -0.00000000000E+00 -0.11348823096E+04  0.11348823096E+04  0.00000000000E+00 0.  1.
         23    2    1    2    0    0 -0.13878799438E+04 -0.66597282365E+03  0.97561278515E+03  0.18248807797E+04  0.92946291689E+02 0.  0.
         11    1    3    3    0    0 -0.95914317354E+03 -0.45459135448E+03  0.72255644762E+03  0.12840158671E+04  0.00000000000E+00 0. -1.
        -11    1    3    3    0    0 -0.42873677029E+03 -0.21138146917E+03  0.25305633752E+03  0.54086491259E+03  0.00000000000E+00 0.  1.
         22    1    1    2    0    0  0.13878799438E+04  0.66597282365E+03  0.12387212815E+03  0.15443687527E+04  0.00000000000E+00 0. -1.
<mgrwt>
<rscale>  0 0.31848038E+04</rscale>
<asrwt>0</asrwt>
<pdfrwt beam="1">  1        1 0.34374880E+00 0.31848038E+04</pdfrwt>
<pdfrwt beam="2">  1       -1 0.17459728E+00 0.31848038E+04</pdfrwt>
<totfact> 0.39370288E-01</totfact>
</mgrwt>
</event>
<event>
 6    1  0.1001928E-005  0.1295514E+04  0.7818608E-02  0.9033130E-01
          2   -1    0    0  501    0  0.00000000000E+00  0.00000000000E+00  0.24830615220E+04  0.24830615220E+04  0.00000000000E+00 0. -1.
         -2   -1    0    0    0  501 -0.00000000000E+00 -0.00000000000E+00 -0.16898067762E+03  0.16898067762E+03  0.00000000000E+00 0.  1.
         23    2    1    2    0    0  0.50699704509E+03 -0.30192327970E+03  0.63178700661E+03  0.86925891858E+03  0.90843685828E+02 0.  0.
         13    1    3    3    0    0  0.37162226924E+03 -0.26465602557E+03  0.46940451300E+03  0.65458881727E+03  0.00000000000E+00 0.  1.
        -13    1    3    3    0    0  0.13537477586E+03 -0.37267254129E+02  0.16238249360E+03  0.21467010131E+03  0.00000000000E+00 0. -1.
         22    1    1    2    0    0 -0.50699704509E+03  0.30192327970E+03  0.16822938377E+04  0.17827832810E+04  0.00000000000E+00 0. -1.
<mgrwt>
<rscale>  0 0.12955144E+04</rscale>
<asrwt>0</asrwt>
<pdfrwt beam="1">  1        2 0.38200944E+00 0.12955144E+04</pdfrwt>
<pdfrwt beam="2">  1       -2 0.25997029E-01 0.12955144E+04</pdfrwt>
<totfact> 0.46860024E+01</totfact>
</mgrwt>
</event>
<event>
 6    1  0.1001928E-005  0.1753270E+04  0.7818608E-02  0.8731552E-01
          2   -1    0    0  501    0  0.00000000000E+00  0.00000000000E+00  0.71295237127E+03  0.71295237127E+03  0.00000000000E+00 0. -1.
         -2   -1    0    0    0  501 -0.00000000000E+00 -0.00000000000E+00 -0.10778965666E+04  0.10778965666E+04  0.00000000000E+00 0.  1.
         23    2    1    2    0    0  0.38237676086E+03 -0.75372914772E+03 -0.41150047436E+03  0.94439332624E+03  0.90700048879E+02 0.  0.
         11    1    3    3    0    0  0.19110078233E+03 -0.43460932629E+03 -0.18985078542E+03  0.51131995485E+03  0.00000000000E+00 0. -1.
        -11    1    3    3    0    0  0.19127597852E+03 -0.31911982143E+03 -0.22164968894E+03  0.43307337138E+03  0.00000000000E+00 0.  1.
         22    1    1    2    0    0 -0.38237676086E+03  0.75372914772E+03  0.46556279022E+02  0.84645561165E+03  0.00000000000E+00 0.  1.
<mgrwt>
<rscale>  0 0.17532700E+04</rscale>
<asrwt>0</asrwt>
<pdfrwt beam="1">  1        2 0.10968498E+00 0.17532700E+04</pdfrwt>
<pdfrwt beam="2">  1       -2 0.16583024E+00 0.17532700E+04</pdfrwt>
<totfact> 0.86550041E+00</totfact>
</mgrwt>
</event>
<event>
 6    1  0.1001928E-005  0.9328028E+03  0.7818608E-02  0.9385480E-01
          1   -1    0    0  501    0  0.00000000000E+00  0.00000000000E+00  0.68319154744E+03  0.68319154744E+03  0.00000000000E+00 0. -1.
         -1   -1    0    0    0  501 -0.00000000000E+00 -0.00000000000E+00 -0.31840300933E+03  0.31840300933E+03  0.00000000000E+00 0.  1.
         23    2    1    2    0    0 -0.16130512864E+03  0.42979450388E+03  0.13355696976E+03  0.48758025902E+03  0.95678548918E+02 0.  0.
         11    1    3    3    0    0 -0.76477954641E+02  0.24163019370E+03  0.12086595092E+03  0.28078925575E+03  0.00000000000E+00 0. -1.
        -11    1    3    3    0    0 -0.84827173999E+02  0.18816431018E+03  0.12691018846E+02  0.20679100327E+03  0.00000000000E+00 0.  1.
         22    1    1    2    0    0  0.16130512864E+03 -0.42979450388E+03  0.23123156834E+03  0.51401429775E+03  0.00000000000E+00 0. -1.
<mgrwt>
<rscale>  0 0.93280275E+03</rscale>
<asrwt>0</asrwt>
<pdfrwt beam="1">  1        1 0.10510639E+00 0.93280275E+03</pdfrwt>
<pdfrwt beam="2">  1       -1 0.48985078E-01 0.93280275E+03</pdfrwt>
<totfact> 0.11866871E+02</totfact>
</mgrwt>
</event>
<event>
 6    1  0.1001928E-005  0.2607347E+04  0.7818608E-02  0.8365710E-01
          1   -1    0    0  501    0  0.00000000000E+00  0.00000000000E+00  0.28415689138E+04  0.28415689138E+04  0.00000000000E+00 0. -1.
         -1   -1    0    0    0  501 -0.00000000000E+00 -0.00000000000E+00 -0.59810788778E+03  0.59810788778E+03  0.00000000000E+00 0.  1.
         23    2    1    2    0    0 -0.34004604652E+03  0.33033254986E+03  0.27228603737E+04  0.27654552937E+04  0.94991891902E+02 0.  0.
         11    1    3    3    0    0 -0.20422700081E+03  0.25859009625E+03  0.18047300755E+04  0.18345648397E+04  0.00000000000E+00 0.  1.
        -11    1    3    3    0    0 -0.13581904571E+03  0.71742453613E+02  0.91813029815E+03  0.93089045393E+03  0.00000000000E+00 0. -1.
         22    1    1    2    0    0  0.34004604652E+03 -0.33033254986E+03 -0.47939934763E+03  0.67422150793E+03  0.00000000000E+00 0.  1.
<mgrwt>
<rscale>  0 0.26073471E+04</rscale>
<asrwt>0</asrwt>
<pdfrwt beam="1">  1        1 0.43716444E+00 0.26073471E+04</pdfrwt>
<pdfrwt beam="2">  1       -1 0.92016600E-01 0.26073471E+04</pdfrwt>
<totfact> 0.78746926E-01</totfact>
</mgrwt>
</event>
<event>
 6    1  0.1001928E-005  0.3578456E+04  0.7818608E-02  0.8095445E-01
          1   -1    0    0  501    0  0.00000000000E+00  0.00000000000E+00  0.30314910812E+04  0.30314910812E+04  0.00000000000E+00 0. -1.
         -1   -1    0    0    0  501 -0.00000000000E+00 -0.00000000000E+00 -0.10560268890E+04  0.10560268890E+04  0.00000000000E+00 0.  1.
         23    2    1    2    0    0 -0.57846597375E+03  0.40776786250E+03 -0.88726800680E+03  0.11385972938E+04  0.90894273658E+02 0.  0.
         11    1    3    3    0    0 -0.25663452509E+02  0.97915102697E+01 -0.66806760609E+02  0.72233162267E+02  0.00000000000E+00 0.  1.
        -11    1    3    3    0    0 -0.55280252124E+03  0.39797635223E+03 -0.82046124620E+03  0.10663641315E+04  0.00000000000E+00 0. -1.
         22    1    1    2    0    0  0.57846597375E+03 -0.40776786250E+03  0.28627321990E+04  0.29489206764E+04  0.00000000000E+00 0. -1.
<mgrwt>
<rscale>  0 0.35784556E+04</rscale>
<asrwt>0</asrwt>
<pdfrwt beam="1">  1        1 0.46638324E+00 0.35784556E+04</pdfrwt>
<pdfrwt beam="2">  1       -1 0.16246568E+00 0.35784556E+04</pdfrwt>
<totfact> 0.12852929E-01</totfact>
</mgrwt>
</event>
<event>
 6    1  0.1001928E-005  0.2384760E+04  0.7818608E-02  0.8445231E-01
          2   -1    0    0  501    0  0.00000000000E+00  0.00000000000E+00  0.98196388246E+03  0.98196388246E+03  0.00000000000E+00 0. -1.
         -2   -1    0    0    0  501 -0.00000000000E+00 -0.00000000000E+00 -0.14478846457E+04  0.14478846457E+04  0.00000000000E+00 0.  1.
         23    2    1    2    0    0  0.27913276049E+03 -0.11234042452E+04 -0.51677332188E+03  0.12711690303E+04  0.94147976060E+02 0.  0.
         11    1    3    3    0    0  0.11899756674E+03 -0.64671802994E+03 -0.26736225603E+03  0.70985013002E+03  0.00000000000E+00 0. -1.
        -11    1    3    3    0    0  0.16013519375E+03 -0.47668621522E+03 -0.24941106585E+03  0.56131890029E+03  0.00000000000E+00 0.  1.
         22    1    1    2    0    0 -0.27913276049E+03  0.11234042452E+04  0.50852558643E+02  0.11586794979E+04  0.00000000000E+00 0. -1.
<mgrwt>
<rscale>  0 0.23847603E+04</rscale>
<asrwt>0</asrwt>
<pdfrwt beam="1">  1        2 0.15107137E+00 0.23847603E+04</pdfrwt>
<pdfrwt beam="2">  1       -2 0.22275148E+00 0.23847603E+04</pdfrwt>
<totfact> 0.22114934E+00</totfact>
</mgrwt>
</event>
<event>
 6    1  0.1001928E-005  0.1730103E+04  0.7818608E-02  0.8744379E-01
         -2   -1    0    0    0  501 -0.00000000000E+00  0.00000000000E+00  0.25935366846E+03  0.25935366846E+03  0.00000000000E+00 0. -1.
          2   -1    0    0  501    0  0.00000000000E+00 -0.00000000000E+00 -0.28853029432E+04  0.28853029432E+04  0.00000000000E+00 0.  1.
         23    2    1    2    0    0  0.80312456021E+03  0.29349484298E+03 -0.15231797531E+04  0.17492180068E+04  0.92405589758E+02 0.  0.
         13    1    3    3    0    0  0.33198514042E+03  0.11964194308E+03 -0.53765333530E+03  0.64311696989E+03  0.00000000000E+00 0.  1.
        -13    1    3    3    0    0  0.47113941978E+03  0.17385289990E+03 -0.98552641781E+03  0.11061010369E+04  0.00000000000E+00 0. -1.
         22    1    1    2    0    0 -0.80312456021E+03 -0.29349484298E+03 -0.11027695216E+04  0.13954386049E+04  0.00000000000E+00 0. -1.
<mgrwt>
<rscale>  0 0.17301028E+04</rscale>
<asrwt>0</asrwt>
<pdfrwt beam="1">  1        2 0.44389273E+00 0.17301028E+04</pdfrwt>
<pdfrwt beam="2">  1       -2 0.39900567E-01 0.17301028E+04</pdfrwt>
<totfact> 0.11616175E+01</totfact>
</mgrwt>
</event>
<event>
 6    1  0.1001928E-005  0.2552204E+04  0.7818608E-02  0.8384620E-01
         -2   -1    0    0    0  501 -0.00000000000E+00  0.00000000000E+00  0.92141866802E+03  0.92141866802E+03  0.00000000000E+00 0.  1.
          2   -1    0    0  501    0  0.00000000000E+00 -0.00000000000E+00 -0.17673136905E+04  0.17673136905E+04  0.00000000000E+00 0. -1.
         23    2    1    2    0    0  0.11950994623E+04 -0.84559137875E+02 -0.88220250832E+03  0.14900951297E+04  0.81787879791E+02 0.  0.
         13    1    3    3    0    0  0.60043556947E+03 -0.22108041620E+02 -0.48619917276E+03  0.77291737863E+03  0.00000000000E+00 0. -1.
        -13    1    3    3    0    0  0.59466389287E+03 -0.62451096255E+02 -0.39600333555E+03  0.71717775110E+03  0.00000000000E+00 0.  1.
         22    1    1    2    0    0 -0.11950994623E+04  0.84559137875E+02  0.36307485849E+02  0.11986372288E+04  0.00000000000E+00 0.  1.
<mgrwt>
<rscale>  0 0.25522036E+04</rscale>
<asrwt>0</asrwt>
<pdfrwt beam="1">  1        2 0.27189441E+00 0.25522036E+04</pdfrwt>
<pdfrwt beam="2">  1       -2 0.14175672E+00 0.25522036E+04</pdfrwt>
<totfact> 0.27782964E+00</totfact>
</mgrwt>
</event>
<event>
 6    1  0.1001928E-005  0.9967827E+03  0.7818608E-02  0.9312081E-01
          2   -1    0    0  501    0  0.00000000000E+00  0.00000000000E+00  0.71134834751E+03  0.71134834751E+03  0.00000000000E+00 0. -1.
         -2   -1    0    0    0  501 -0.00000000000E+00 -0.00000000000E+00 -0.34918745017E+03  0.34918745017E+03  0.00000000000E+00 0.  1.
         23    2    1    2    0    0 -0.27157525082E+03 -0.12066064931E+03  0.60269656899E+03  0.67821457346E+03  0.91759164289E+02 0.  0.
         13    1    3    3    0    0 -0.85216884395E+02 -0.42933400275E+02  0.10925342937E+03  0.14505690633E+03  0.00000000000E+00 0.  1.
        -13    1    3    3    0    0 -0.18635836642E+03 -0.77727249035E+02  0.49344313963E+03  0.53315766713E+03  0.00000000000E+00 0. -1.
         22    1    1    2    0    0  0.27157525082E+03  0.12066064931E+03 -0.24053567166E+03  0.38232122422E+03  0.00000000000E+00 0.  1.
<mgrwt>
<rscale>  0 0.99678266E+03</rscale>
<asrwt>0</asrwt>
<pdfrwt beam="1">  1        2 0.10943821E+00 0.99678266E+03</pdfrwt>
<pdfrwt beam="2">  1       -2 0.53721146E-01 0.99678266E+03</pdfrwt>
<totfact> 0.13090153E+02</totfact>
</mgrwt>
</event>
<event>
 6    1  0.1001928E-005  0.1156598E+04  0.7818608E-02  0.9151718E-01
         -1   -1    0    0    0  501 -0.00000000000E+00  0.00000000000E+00  0.28929871854E+03  0.28929871854E+03  0.00000000000E+00 0. -1.
          1   -1    0    0  501    0  0.00000000000E+00 -0.00000000000E+00 -0.11560017209E+04  0.11560017209E+04  0.00000000000E+00 0.  1.
         23    2    1    2    0    0  0.40425855563E+03  0.54181308206E+02  0.70002272551E+02  0.42364620927E+03  0.90637732247E+02 0.  0.
         11    1    3    3    0    0  0.27396348263E+03  0.77106722781E+02  0.34659804186E+02  0.28671019958E+03  0.00000000000E+00 0.  1.
        -11    1    3    3    0    0  0.13029507300E+03 -0.22925414575E+02  0.35342468365E+02  0.13693600970E+03  0.00000000000E+00 0. -1.
         22    1    1    2    0    0 -0.40425855563E+03 -0.54181308206E+02 -0.93670527491E+03  0.10216542302E+04  0.00000000000E+00 0.  1.
<mgrwt>
<rscale>  0 0.11565981E+04</rscale>
<asrwt>0</asrwt>
<pdfrwt beam="1">  1        1 0.17784642E+00 0.11565981E+04</pdfrwt>
<pdfrwt beam="2">  1       -1 0.44507496E-01 0.11565981E+04</pdfrwt>
<totfact> 0.57111972E+01</totfact>
</mgrwt>
</event>
<event>
 6    1  0.1001928E-005  0.9586701E+03  0.7818608E-02  0.9355074E-01
         -1   -1    0    0    0  501 -0.00000000000E+00  0.00000000000E+00  0.16364440923E+03  0.16364440923E+03  0.00000000000E+00 0.  1.
          1   -1    0    0  501    0  0.00000000000E+00 -0.00000000000E+00 -0.14040326143E+04  0.14040326143E+04  0.00000000000E+00 0. -1.
         23    2    1    2    0    0  0.44507198527E+03  0.51159120511E+02 -0.88366187203E+03  0.99499909975E+03  0.91970520964E+02 0.  0.
         11    1    3    3    0    0  0.13027050039E+03  0.57088555311E+02 -0.29061771816E+03  0.32355550456E+03  0.00000000000E+00 0. -1.
        -11    1    3    3    0    0  0.31480148488E+03 -0.59294348007E+01 -0.59304415387E+03  0.67144359519E+03  0.00000000000E+00 0.  1.
         22    1    1    2    0    0 -0.44507198527E+03 -0.51159120511E+02 -0.35672633299E+03  0.57267792373E+03  0.00000000000E+00 0.  1.
<mgrwt>
<rscale>  0 0.95867009E+03</rscale>
<asrwt>0</asrwt>
<pdfrwt beam="1">  1        1 0.21600501E+00 0.95867009E+03</pdfrwt>
<pdfrwt beam="2">  1       -1 0.25176063E-01 0.95867009E+03</pdfrwt>
<totfact> 0.10611221E+02</totfact>
</mgrwt>
</event>
<event>
 6    1  0.1001928E-005  0.1940802E+04  0.7818608E-02  0.8634809E-01
          1   -1    0    0  501    0  0.00000000000E+00  0.00000000000E+00  0.17063513539E+04  0.17063513539E+04  0.00000000000E+00 0. -1.
         -1   -1    0    0    0  501 -0.00000000000E+00 -0.00000000000E+00 -0.55186657579E+03  0.55186657579E+03  0.00000000000E+00 0.  1.
         23    2    1    2    0    0  0.23273023698E+03  0.35053412220E+03  0.15931488205E+04  0.16503826920E+04  0.92748755609E+02 0.  0.
         11    1    3    3    0    0  0.17087817678E+03  0.31439688368E+03  0.12744647163E+04  0.13237466014E+04  0.00000000000E+00 0.  1.
        -11    1    3    3    0    0  0.61852060202E+02  0.36137238526E+02  0.31868410424E+03  0.32663609056E+03  0.00000000000E+00 0. -1.
         22    1    1    2    0    0 -0.23273023698E+03 -0.35053412220E+03 -0.43866404243E+03  0.60783523767E+03  0.00000000000E+00 0.  1.
<mgrwt>
<rscale>  0 0.19408022E+04</rscale>
<asrwt>0</asrwt>
<pdfrwt beam="1">  1        1 0.26251559E+00 0.19408022E+04</pdfrwt>
<pdfrwt beam="2">  1       -1 0.84902551E-01 0.19408022E+04</pdfrwt>
<totfact> 0.60377653E+00</totfact>
</mgrwt>
</event>
<event>
 6    1  0.1001928E-005  0.5762362E+03  0.7818608E-02  0.9955973E-01
         -4   -1    0    0    0  501 -0.00000000000E+00  0.00000000000E+00  0.19604157721E+03  0.19604157721E+03  0.00000000000E+00 0.  1.
          4   -1    0    0  501    0  0.00000000000E+00 -0.00000000000E+00 -0.42344104299E+03  0.42344104299E+03  0.00000000000E+00 0. -1.
         23    2    1    2    0    0  0.22893219440E+03  0.79344912538E+02 -0.26867074646E+03  0.37370043332E+03  0.93608114432E+02 0.  0.
         13    1    3    3    0    0  0.13081303049E+03  0.13950615981E+02 -0.89143730889E+02  0.15891278548E+03  0.00000000000E+00 0. -1.
        -13    1    3    3    0    0  0.98119163909E+02  0.65394296558E+02 -0.17952701557E+03  0.21478764784E+03  0.00000000000E+00 0.  1.
         22    1    1    2    0    0 -0.22893219440E+03 -0.79344912538E+02  0.41271280673E+02  0.24578218687E+03  0.00000000000E+00 0.  1.
<mgrwt>
<rscale>  0 0.57623624E+03</rscale>
<asrwt>0</asrwt>
<pdfrwt beam="1">  1        4 0.65144775E-01 0.57623624E+03</pdfrwt>
<pdfrwt beam="2">  1       -4 0.30160243E-01 0.57623624E+03</pdfrwt>
<totfact> 0.45923378E+01</totfact>
</mgrwt>
</event>
<event>
 6    1  0.1001928E-005  0.2725364E+04  0.7818608E-02  0.8326822E-01
         -2   -1    0    0    0  501 -0.00000000000E+00  0.00000000000E+00  0.18206172911E+04  0.18206172911E+04  0.00000000000E+00 0.  1.
          2   -1    0    0  501    0  0.00000000000E+00 -0.00000000000E+00 -0.10199301160E+04  0.10199301160E+04  0.00000000000E+00 0. -1.
         23    2    1    2    0    0 -0.33654159696E+03 -0.19716947513E+03 -0.95853312095E+03  0.10386062043E+04  0.88210289302E+02 0.  0.
         11    1    3    3    0    0 -0.17483763642E+03 -0.57688673086E+02 -0.49890174165E+03  0.53178861396E+03  0.00000000000E+00 0.  1.
        -11    1    3    3    0    0 -0.16170396053E+03 -0.13948080205E+03 -0.45963137930E+03  0.50681759029E+03  0.00000000000E+00 0. -1.
         22    1    1    2    0    0  0.33654159696E+03  0.19716947513E+03  0.17592202961E+04  0.18019412029E+04  0.00000000000E+00 0.  1.
<mgrwt>
<rscale>  0 0.27253641E+04</rscale>
<asrwt>0</asrwt>
<pdfrwt beam="1">  1        2 0.15691233E+00 0.27253641E+04</pdfrwt>
<pdfrwt beam="2">  1       -2 0.28009497E+00 0.27253641E+04</pdfrwt>
<totfact> 0.90053208E-01</totfact>
</mgrwt>
</event>
<event>
 6    1  0.1001928E-005  0.1454817E+04  0.7818608E-02  0.8915068E-01
          2   -1    0    0  501    0  0.00000000000E+00  0.00000000000E+00  0.12852805929E+04  0.12852805929E+04  0.00000000000E+00 0. -1.
         -2   -1    0    0    0  501 -0.00000000000E+00 -0.00000000000E+00 -0.41167880960E+03  0.41167880960E+03  0.00000000000E+00 0.  1.
         23    2    1    2    0    0  0.14160572467E+03  0.44789297421E+03 -0.20458496043E+03  0.52088672110E+03  0.93849201315E+02 0.  0.
         13    1    3    3    0    0  0.40401522244E+02  0.27764518596E+03 -0.10939203447E+03  0.30114074698E+03  0.00000000000E+00 0.  1.
        -13    1    3    3    0    0  0.10120420243E+03  0.17024778825E+03 -0.95192925955E+02  0.21974597412E+03  0.00000000000E+00 0. -1.
         22    1    1    2    0    0 -0.14160572467E+03 -0.44789297421E+03  0.10781867437E+04  0.11760726814E+04  0.00000000000E+00 0. -1.
<mgrwt>
<rscale>  0 0.14548165E+04</rscale>
<asrwt>0</asrwt>
<pdfrwt beam="1">  1        2 0.19773547E+00 0.14548165E+04</pdfrwt>
<pdfrwt beam="2">  1       -2 0.63335202E-01 0.14548165E+04</pdfrwt>
<totfact> 0.37731240E+01</totfact>
</mgrwt>
</event>
<event>
 6    1  0.1001928E-005  0.1386558E+04  0.7818608E-02  0.8963607E-01
         -1   -1    0    0    0  501 -0.00000000000E+00  0.00000000000E+00  0.47793791885E+03  0.47793791885E+03  0.00000000000E+00 0.  1.
          1   -1    0    0  501    0  0.00000000000E+00 -0.00000000000E+00 -0.10056445552E+04  0.10056445552E+04  0.00000000000E+00 0. -1.
         23    2    1    2    0    0  0.68967599750E+03 -0.53546616888E-01 -0.23689176182E+03  0.73509982521E+03  0.92741909662E+02 0.  0.
         13    1    3    3    0    0  0.14223765549E+03 -0.44012003146E+01 -0.10539740835E+02  0.14269550568E+03  0.00000000000E+00 0. -1.
        -13    1    3    3    0    0  0.54743834201E+03  0.43476536978E+01 -0.22635202098E+03  0.59240431953E+03  0.00000000000E+00 0.  1.
         22    1    1    2    0    0 -0.68967599750E+03  0.53546616888E-01 -0.29081487458E+03  0.74848264888E+03  0.00000000000E+00 0. -1.
<mgrwt>
<rscale>  0 0.13865578E+04</rscale>
<asrwt>0</asrwt>
<pdfrwt beam="1">  1        1 0.15471454E+00 0.13865578E+04</pdfrwt>
<pdfrwt beam="2">  1       -1 0.73528912E-01 0.13865578E+04</pdfrwt>
<totfact> 0.27248629E+01</totfact>
</mgrwt>
</event>
<event>
 6    1  0.1001928E-005  0.1104758E+04  0.7818608E-02  0.9200567E-01
         -1   -1    0    0    0  501 -0.00000000000E+00  0.00000000000E+00  0.33932963333E+03  0.33932963333E+03  0.00000000000E+00 0.  1.
          1   -1    0    0  501    0  0.00000000000E+00 -0.00000000000E+00 -0.89919151869E+03  0.89919151869E+03  0.00000000000E+00 0. -1.
         23    2    1    2    0    0 -0.38346877264E+03 -0.26216979842E+03  0.45598372477E+02  0.47539375333E+03  0.90214778937E+02 0.  0.
         11    1    3    3    0    0 -0.21418042052E+03 -0.12119624063E+03 -0.16093818599E+02  0.24661871841E+03  0.00000000000E+00 0.  1.
        -11    1    3    3    0    0 -0.16928835213E+03 -0.14097355779E+03  0.61692191076E+02  0.22877503492E+03  0.00000000000E+00 0. -1.
         22    1    1    2    0    0  0.38346877264E+03  0.26216979842E+03 -0.60546025784E+03  0.76312739868E+03  0.00000000000E+00 0. -1.
<mgrwt>
<rscale>  0 0.11047576E+04</rscale>
<asrwt>0</asrwt>
<pdfrwt beam="1">  1        1 0.13833715E+00 0.11047576E+04</pdfrwt>
<pdfrwt beam="2">  1       -1 0.52204560E-01 0.11047576E+04</pdfrwt>
<totfact> 0.67075894E+01</totfact>
</mgrwt>
</event>
<event>
 6    1  0.1001928E-005  0.2037509E+04  0.7818608E-02  0.8589282E-01
          1   -1    0    0  501    0  0.00000000000E+00  0.00000000000E+00  0.18275947814E+04  0.18275947814E+04  0.00000000000E+00 0. -1.
         -1   -1    0    0    0  501 -0.00000000000E+00 -0.00000000000E+00 -0.56788343938E+03  0.56788343938E+03  0.00000000000E+00 0.  1.
         23    2    1    2    0    0  0.87544392462E+03 -0.27825501448E+03  0.11441639329E+04  0.14696385360E+04  0.83056624391E+02 0.  0.
         13    1    3    3    0    0  0.47715654484E+03 -0.16422933663E+03  0.56488103964E+03  0.75745642266E+03  0.00000000000E+00 0. -1.
        -13    1    3    3    0    0  0.39828737978E+03 -0.11402567785E+03  0.57928289328E+03  0.71218211333E+03  0.00000000000E+00 0.  1.
         22    1    1    2    0    0 -0.87544392462E+03  0.27825501448E+03  0.11554740915E+03  0.92583968483E+03  0.00000000000E+00 0.  1.
<mgrwt>
<rscale>  0 0.20375091E+04</rscale>
<asrwt>0</asrwt>
<pdfrwt beam="1">  1        1 0.28116842E+00 0.20375091E+04</pdfrwt>
<pdfrwt beam="2">  1       -1 0.87366684E-01 0.20375091E+04</pdfrwt>
<totfact> 0.46517352E+00</totfact>
</mgrwt>
</event>
<event>
 6    1  0.1001928E-005  0.5338965E+04  0.7818608E-02  0.7778245E-01
         -1   -1    0    0    0  501 -0.00000000000E+00  0.00000000000E+00  0.16959851141E+04  0.16959851141E+04  0.00000000000E+00 0.  1.
          1   -1    0    0  501    0  0.00000000000E+00 -0.00000000000E+00 -0.42017687828E+04  0.42017687828E+04  0.00000000000E+00 0. -1.
         23    2    1    2    0    0 -0.25924788378E+03  0.26282480753E+04 -0.16773735468E+04  0.31298737079E+04  0.87349880074E+02 0.  0.
         11    1    3    3    0    0 -0.20763502252E+03  0.23364893116E+04 -0.14705754174E+04  0.27685531717E+04  0.00000000000E+00 0.  1.
        -11    1    3    3    0    0 -0.51612861260E+02  0.29175876368E+03 -0.20679812935E+03  0.36132053627E+03  0.00000000000E+00 0. -1.
         22    1    1    2    0    0  0.25924788378E+03 -0.26282480753E+04 -0.82841012187E+03  0.27678801890E+04  0.00000000000E+00 0. -1.
<mgrwt>
<rscale>  0 0.53389652E+04</rscale>
<asrwt>0</asrwt>
<pdfrwt beam="1">  1        1 0.64642597E+00 0.53389652E+04</pdfrwt>
<pdfrwt beam="2">  1       -1 0.26092079E+00 0.53389652E+04</pdfrwt>
<totfact> 0.26080511E-03</totfact>
</mgrwt>
</event>
<event>
 6    1  0.1175382E-005  0.2275362E+04  0.7818608E-02  0.8487699E-01
         -2   -1    0    0    0  501 -0.00000000000E+00  0.00000000000E+00  0.17170298018E+04  0.17170298018E+04  0.00000000000E+00 0.  1.
          2   -1    0    0  501    0  0.00000000000E+00 -0.00000000000E+00 -0.75381198894E+03  0.75381198894E+03  0.00000000000E+00 0. -1.
         23    2    1    2    0    0 -0.22817691755E+03 -0.61747491924E+02  0.16887964304E+04  0.17077285694E+04  0.91793381622E+02 0.  0.
         11    1    3    3    0    0 -0.46087789594E+02 -0.25782400438E+01  0.63535468474E+03  0.63702928276E+03  0.00000000000E+00 0.  1.
        -11    1    3    3    0    0 -0.18208912795E+03 -0.59169251880E+02  0.10534417456E+04  0.10706992866E+04  0.00000000000E+00 0. -1.
         22    1    1    2    0    0  0.22817691755E+03  0.61747491924E+02 -0.72557861751E+03  0.76311322138E+03  0.00000000000E+00 0. -1.
<mgrwt>
<rscale>  0 0.22753616E+04</rscale>
<asrwt>0</asrwt>
<pdfrwt beam="1">  1        2 0.11597108E+00 0.22753616E+04</pdfrwt>
<pdfrwt beam="2">  1       -2 0.26415843E+00 0.22753616E+04</pdfrwt>
<totfact> 0.17806722E+00</totfact>
</mgrwt>
</event>
<event>
 6    1  0.1001928E-005  0.2844371E+04  0.7818608E-02  0.8289624E-01
          1   -1    0    0  501    0  0.00000000000E+00  0.00000000000E+00  0.16284700384E+04  0.16284700384E+04  0.00000000000E+00 0. -1.
         -1   -1    0    0    0  501 -0.00000000000E+00 -0.00000000000E+00 -0.12420319533E+04  0.12420319533E+04  0.00000000000E+00 0.  1.
         23    2    1    2    0    0 -0.94396217037E+03 -0.91663842549E+03 -0.34748066641E+03  0.13638741957E+04  0.90107857150E+02 0.  0.
         13    1    3    3    0    0 -0.23025839599E+03 -0.17187407489E+03 -0.77724320275E+02  0.29765869129E+03  0.00000000000E+00 0. -1.
        -13    1    3    3    0    0 -0.71370377438E+03 -0.74476435061E+03 -0.26975634613E+03  0.10662155044E+04  0.00000000000E+00 0.  1.
         22    1    1    2    0    0  0.94396217037E+03  0.91663842549E+03  0.73391875152E+03  0.15066277961E+04  0.00000000000E+00 0. -1.
<mgrwt>
<rscale>  0 0.28443712E+04</rscale>
<asrwt>0</asrwt>
<pdfrwt beam="1">  1        1 0.25053385E+00 0.28443712E+04</pdfrwt>
<pdfrwt beam="2">  1       -1 0.19108184E+00 0.28443712E+04</pdfrwt>
<totfact> 0.79890580E-01</totfact>
</mgrwt>
</event>
<event>
 6    1  0.1001928E-005  0.6885230E+03  0.7818608E-02  0.9737063E-01
         -1   -1    0    0    0  501 -0.00000000000E+00  0.00000000000E+00  0.14530602128E+03  0.14530602128E+03  0.00000000000E+00 0.  1.
          1   -1    0    0  501    0  0.00000000000E+00 -0.00000000000E+00 -0.81563018230E+03  0.81563018230E+03  0.00000000000E+00 0. -1.
         23    2    1    2    0    0  0.32756134633E+03  0.56551883992E+01 -0.45687290752E+03  0.56992488101E+03  0.93558001245E+02 0.  0.
         11    1    3    3    0    0  0.26662832117E+03  0.34602180716E+02 -0.39848812525E+03  0.48070860043E+03  0.00000000000E+00 0.  1.
        -11    1    3    3    0    0  0.60933025158E+02 -0.28946992317E+02 -0.58384782274E+02  0.89216280579E+02  0.00000000000E+00 0. -1.
         22    1    1    2    0    0 -0.32756134633E+03 -0.56551883992E+01 -0.21345125350E+03  0.39101132258E+03  0.00000000000E+00 0.  1.
<mgrwt>
<rscale>  0 0.68852299E+03</rscale>
<asrwt>0</asrwt>
<pdfrwt beam="1">  1        1 0.12548157E+00 0.68852299E+03</pdfrwt>
<pdfrwt beam="2">  1       -1 0.22354772E-01 0.68852299E+03</pdfrwt>
<totfact> 0.36737648E+02</totfact>
</mgrwt>
</event>
<event>
 6    1  0.1001928E-005  0.1475889E+04  0.7818608E-02  0.8900647E-01
         -2   -1    0    0    0  501 -0.00000000000E+00  0.00000000000E+00  0.33265024454E+03  0.33265024454E+03  0.00000000000E+00 0.  1.
          2   -1    0    0  501    0  0.00000000000E+00 -0.00000000000E+00 -0.16370403417E+04  0.16370403417E+04  0.00000000000E+00 0. -1.
         23    2    1    2    0    0  0.71242173103E+03  0.15084564719E+03 -0.50501946017E+03  0.88835227312E+03  0.61854457402E+02 0.  0.
         11    1    3    3    0    0  0.57643673573E+03  0.13892993677E+03 -0.43129704337E+03  0.73321073182E+03  0.00000000000E+00 0.  1.
        -11    1    3    3    0    0  0.13598499530E+03  0.11915710419E+02 -0.73722416792E+02  0.15514154130E+03  0.00000000000E+00 0. -1.
         22    1    1    2    0    0 -0.71242173103E+03 -0.15084564719E+03 -0.79937063696E+03  0.10813383131E+04  0.00000000000E+00 0. -1.
<mgrwt>
<rscale>  0 0.14758887E+04</rscale>
<asrwt>0</asrwt>
<pdfrwt beam="1">  1        2 0.25185236E+00 0.14758887E+04</pdfrwt>
<pdfrwt beam="2">  1       -2 0.51176961E-01 0.14758887E+04</pdfrwt>
<totfact> 0.37127641E+01</totfact>
</mgrwt>
</event>
<event>
 6    1  0.1001928E-005  0.3181322E+04  0.7818608E-02  0.8193767E-01
         -2   -1    0    0    0  501 -0.00000000000E+00  0.00000000000E+00  0.76715356242E+03  0.76715356242E+03  0.00000000000E+00 0.  1.
          2   -1    0    0  501    0  0.00000000000E+00 -0.00000000000E+00 -0.32981696906E+04  0.32981696906E+04  0.00000000000E+00 0. -1.
         23    2    1    2    0    0  0.44938633042E+03 -0.28364425567E+03 -0.31806632916E+04  0.32260118838E+04  0.90175173182E+02 0.  0.
         11    1    3    3    0    0  0.91710060541E+02 -0.10044174340E+03 -0.71659521890E+03  0.72938877615E+03  0.00000000000E+00 0. -1.
        -11    1    3    3    0    0  0.35767626988E+03 -0.18320251227E+03 -0.24640680727E+04  0.24966231076E+04  0.00000000000E+00 0.  1.
         22    1    1    2    0    0 -0.44938633042E+03  0.28364425567E+03  0.64964716339E+03  0.83931136930E+03  0.00000000000E+00 0.  1.
<mgrwt>
<rscale>  0 0.31813221E+04</rscale>
<asrwt>0</asrwt>
<pdfrwt beam="1">  1        2 0.50741072E+00 0.31813221E+04</pdfrwt>
<pdfrwt beam="2">  1       -2 0.11802362E+00 0.31813221E+04</pdfrwt>
<totfact> 0.52070572E-01</totfact>
</mgrwt>
</event>
<event>
 6    1  0.1001928E-005  0.4264132E+04  0.7818608E-02  0.7953284E-01
         -2   -1    0    0    0  501 -0.00000000000E+00  0.00000000000E+00  0.24450951627E+04  0.24450951627E+04  0.00000000000E+00 0.  1.
          2   -1    0    0  501    0  0.00000000000E+00 -0.00000000000E+00 -0.18591120406E+04  0.18591120406E+04  0.00000000000E+00 0. -1.
         23    2    1    2    0    0 -0.12267051772E+04 -0.10394796968E+04  0.17049003471E+04  0.23453046054E+04  0.91895956402E+02 0.  0.
         13    1    3    3    0    0 -0.10185473912E+04 -0.83061732821E+03  0.14287081762E+04  0.19412807594E+04  0.00000000000E+00 0.  1.
        -13    1    3    3    0    0 -0.20815778597E+03 -0.20886236857E+03  0.27619217082E+03  0.40402384594E+03  0.00000000000E+00 0. -1.
         22    1    1    2    0    0  0.12267051772E+04  0.10394796968E+04 -0.11189172250E+04  0.19589025979E+04  0.00000000000E+00 0. -1.
<mgrwt>
<rscale>  0 0.42641322E+04</rscale>
<asrwt>0</asrwt>
<pdfrwt beam="1">  1        2 0.28601724E+00 0.42641322E+04</pdfrwt>
<pdfrwt beam="2">  1       -2 0.37616849E+00 0.42641322E+04</pdfrwt>
<totfact> 0.65470086E-02</totfact>
</mgrwt>
</event>
<event>
 6    1  0.1091926E-005  0.2792375E+04  0.7818608E-02  0.8305640E-01
         -1   -1    0    0    0  501 -0.00000000000E+00  0.00000000000E+00  0.15005689766E+04  0.15005689766E+04  0.00000000000E+00 0.  1.
          1   -1    0    0  501    0  0.00000000000E+00 -0.00000000000E+00 -0.12990667029E+04  0.12990667029E+04  0.00000000000E+00 0. -1.
         23    2    1    2    0    0 -0.11016839422E+04  0.84914769808E+02  0.95455230508E+03  0.14624736189E+04  0.82103327585E+02 0.  0.
         13    1    3    3    0    0 -0.29288327818E+03  0.48868022466E+02  0.29002264262E+03  0.41506846603E+03  0.00000000000E+00 0.  1.
        -13    1    3    3    0    0 -0.80880066399E+03  0.36046747342E+02  0.66452966245E+03  0.10474051529E+04  0.00000000000E+00 0. -1.
         22    1    1    2    0    0  0.11016839422E+04 -0.84914769808E+02 -0.75305003133E+03  0.13371620606E+04  0.00000000000E+00 0. -1.
<mgrwt>
<rscale>  0 0.27923748E+04</rscale>
<asrwt>0</asrwt>
<pdfrwt beam="1">  1        1 0.19985641E+00 0.27923748E+04</pdfrwt>
<pdfrwt beam="2">  1       -1 0.23085677E+00 0.27923748E+04</pdfrwt>
<totfact> 0.73117730E-01</totfact>
</mgrwt>
</event>
<event>
 6    1  0.1001928E-005  0.1497449E+04  0.7818608E-02  0.8886151E-01
          1   -1    0    0  501    0  0.00000000000E+00  0.00000000000E+00  0.62861198462E+03  0.62861198462E+03  0.00000000000E+00 0. -1.
         -1   -1    0    0    0  501 -0.00000000000E+00 -0.00000000000E+00 -0.89178767957E+03  0.89178767957E+03  0.00000000000E+00 0.  1.
         23    2    1    2    0    0  0.25068778448E+03  0.26755412852E+03 -0.79154710147E+03  0.87727765383E+03  0.92949938600E+02 0.  0.
         11    1    3    3    0    0  0.98215341646E+02  0.46303758989E+02 -0.25698911173E+03  0.27898690826E+03  0.00000000000E+00 0.  1.
        -11    1    3    3    0    0  0.15247244283E+03  0.22125036953E+03 -0.53455798975E+03  0.59829074558E+03  0.00000000000E+00 0. -1.
         22    1    1    2    0    0 -0.25068778448E+03 -0.26755412852E+03  0.52837140653E+03  0.64312201036E+03  0.00000000000E+00 0. -1.
<mgrwt>
<rscale>  0 0.14974491E+04</rscale>
<asrwt>0</asrwt>
<pdfrwt beam="1">  1        1 0.96709537E-01 0.14974491E+04</pdfrwt>
<pdfrwt beam="2">  1       -1 0.13719810E+00 0.14974491E+04</pdfrwt>
<totfact> 0.13682509E+01</totfact>
</mgrwt>
</event>
<event>
 6    1  0.1001928E-005  0.1489265E+04  0.7818608E-02  0.8891623E-01
          1   -1    0    0  501    0  0.00000000000E+00  0.00000000000E+00  0.16954540195E+04  0.16954540195E+04  0.00000000000E+00 0. -1.
         -1   -1    0    0    0  501 -0.00000000000E+00 -0.00000000000E+00 -0.32703785887E+03  0.32703785887E+03  0.00000000000E+00 0.  1.
         23    2    1    2    0    0 -0.69065639325E+03  0.25413172465E+03  0.57032614450E+03  0.93688750253E+03  0.10438914826E+03 0.  0.
         13    1    3    3    0    0 -0.44706040452E+03  0.20858652230E+03  0.34547270879E+03  0.60226467196E+03  0.00000000000E+00 0.  1.
        -13    1    3    3    0    0 -0.24359598873E+03  0.45545202351E+02  0.22485343571E+03  0.33462283056E+03  0.00000000000E+00 0. -1.
         22    1    1    2    0    0  0.69065639325E+03 -0.25413172465E+03  0.79809001612E+03  0.10856043758E+04  0.00000000000E+00 0. -1.
<mgrwt>
<rscale>  0 0.14892651E+04</rscale>
<asrwt>0</asrwt>
<pdfrwt beam="1">  1        1 0.26083908E+00 0.14892651E+04</pdfrwt>
<pdfrwt beam="2">  1       -1 0.50313518E-01 0.14892651E+04</pdfrwt>
<totfact> 0.18434551E+01</totfact>
</mgrwt>
</event>
<event>
 6    1  0.1001928E-005  0.3843265E+04  0.7818608E-02  0.8036934E-01
         -1   -1    0    0    0  501 -0.00000000000E+00  0.00000000000E+00  0.11454531470E+04  0.11454531470E+04  0.00000000000E+00 0.  1.
          1   -1    0    0  501    0  0.00000000000E+00 -0.00000000000E+00 -0.32237642102E+04  0.32237642102E+04  0.00000000000E+00 0. -1.
         23    2    1    2    0    0 -0.13634690088E+04 -0.24906539653E+03 -0.25510906604E+04  0.29047714357E+04  0.92478248559E+02 0.  0.
         13    1    3    3    0    0 -0.47536953655E+03 -0.44424205667E+02 -0.90584143287E+03  0.10239621125E+04  0.00000000000E+00 0.  1.
        -13    1    3    3    0    0 -0.88809947220E+03 -0.20464119086E+03 -0.16452492276E+04  0.18808093232E+04  0.00000000000E+00 0. -1.
         22    1    1    2    0    0  0.13634690088E+04  0.24906539653E+03  0.47277959717E+03  0.14644459215E+04  0.00000000000E+00 0.  1.
<mgrwt>
<rscale>  0 0.38432647E+04</rscale>
<asrwt>0</asrwt>
<pdfrwt beam="1">  1        1 0.49596372E+00 0.38432647E+04</pdfrwt>
<pdfrwt beam="2">  1       -1 0.17622356E+00 0.38432647E+04</pdfrwt>
<totfact> 0.71598530E-02</totfact>
</mgrwt>
</event>
<event>
 6    1  0.1001928E-005  0.4338437E+04  0.7818608E-02  0.7939549E-01
          2   -1    0    0  501    0  0.00000000000E+00  0.00000000000E+00  0.40257492864E+04  0.40257492864E+04  0.00000000000E+00 0. -1.
         -2   -1    0    0    0  501 -0.00000000000E+00 -0.00000000000E+00 -0.11688529232E+04  0.11688529232E+04  0.00000000000E+00 0.  1.
         23    2    1    2    0    0 -0.54204793537E+03  0.60587246529E+03  0.38358427735E+04  0.39221111555E+04  0.91480730916E+02 0.  0.
         13    1    3    3    0    0 -0.13768047071E+03  0.14382250990E+03  0.11373611324E+04  0.11546563003E+04  0.00000000000E+00 0. -1.
        -13    1    3    3    0    0 -0.40436746466E+03  0.46204995539E+03  0.26984816411E+04  0.27674548551E+04  0.00000000000E+00 0.  1.
         22    1    1    2    0    0  0.54204793537E+03 -0.60587246529E+03 -0.97894641037E+03  0.12724910541E+04  0.00000000000E+00 0.  1.
<mgrwt>
<rscale>  0 0.43384370E+04</rscale>
<asrwt>0</asrwt>
<pdfrwt beam="1">  1        2 0.61934604E+00 0.43384370E+04</pdfrwt>
<pdfrwt beam="2">  1       -2 0.17982353E+00 0.43384370E+04</pdfrwt>
<totfact> 0.45315403E-02</totfact>
</mgrwt>
</event>
<event>
 6    1  0.1001928E-005  0.1754628E+04  0.7818608E-02  0.8730807E-01
         -2   -1    0    0    0  501 -0.00000000000E+00  0.00000000000E+00  0.25220428718E+03  0.25220428718E+03  0.00000000000E+00 0.  1.
          2   -1    0    0  501    0  0.00000000000E+00 -0.00000000000E+00 -0.30518106307E+04  0.30518106307E+04  0.00000000000E+00 0. -1.
         23    2    1    2    0    0 -0.23968465095E+03 -0.57018723489E+03 -0.23884346923E+03  0.66961390187E+03  0.93671554182E+02 0.  0.
         11    1    3    3    0    0 -0.10382488983E+03 -0.23976794279E+03 -0.15075433943E+03  0.30165401537E+03  0.00000000000E+00 0.  1.
        -11    1    3    3    0    0 -0.13585976112E+03 -0.33041929210E+03 -0.88089129800E+02  0.36795988650E+03  0.00000000000E+00 0. -1.
         22    1    1    2    0    0  0.23968465095E+03  0.57018723489E+03 -0.25607628743E+04  0.26344010160E+04  0.00000000000E+00 0. -1.
<mgrwt>
<rscale>  0 0.17546279E+04</rscale>
<asrwt>0</asrwt>
<pdfrwt beam="1">  1        2 0.46950934E+00 0.17546279E+04</pdfrwt>
<pdfrwt beam="2">  1       -2 0.38800659E-01 0.17546279E+04</pdfrwt>
<totfact> 0.96500222E+00</totfact>
</mgrwt>
</event>
<event>
 6    1  0.1001928E-005  0.3634221E+04  0.7818608E-02  0.8082698E-01
          2   -1    0    0  501    0  0.00000000000E+00  0.00000000000E+00  0.14957062632E+04  0.14957062632E+04  0.00000000000E+00 0. -1.
         -2   -1    0    0    0  501 -0.00000000000E+00 -0.00000000000E+00 -0.22075789749E+04  0.22075789749E+04  0.00000000000E+00 0.  1.
         23    2    1    2    0    0 -0.11292968497E+04  0.21694701142E+03  0.10762303220E+04  0.15773290203E+04  0.85543860099E+02 0.  0.
         11    1    3    3    0    0 -0.86423042921E+03  0.15918317569E+03  0.77197598869E+03  0.11696924576E+04  0.00000000000E+00 0. -1.
        -11    1    3    3    0    0 -0.26506642048E+03  0.57763835733E+02  0.30425433328E+03  0.40763656276E+03  0.00000000000E+00 0.  1.
         22    1    1    2    0    0  0.11292968497E+04 -0.21694701142E+03 -0.17881030337E+04  0.21259562177E+04  0.00000000000E+00 0.  1.
<mgrwt>
<rscale>  0 0.36342205E+04</rscale>
<asrwt>0</asrwt>
<pdfrwt beam="1">  1        2 0.23010866E+00 0.36342205E+04</pdfrwt>
<pdfrwt beam="2">  1       -2 0.33962753E+00 0.36342205E+04</pdfrwt>
<totfact> 0.18749270E-01</totfact>
</mgrwt>
</event>
<event>
 6    1  0.1001928E-005  0.2924430E+04  0.7818608E-02  0.8265646E-01
          2   -1    0    0  501    0  0.00000000000E+00  0.00000000000E+00  0.18912565569E+04  0.18912565569E+04  0.00000000000E+00 0. -1.
         -2   -1    0    0    0  501 -0.00000000000E+00 -0.00000000000E+00 -0.11305036390E+04  0.11305036390E+04  0.00000000000E+00 0.  1.
         23    2    1    2    0    0  0.81834787490E+03 -0.57127746354E+03 -0.72151513753E+03  0.12348159402E+04  0.90194943076E+02 0.  0.
         13    1    3    3    0    0  0.61023113858E+03 -0.40352159496E+03 -0.57105081938E+03  0.92806829404E+03  0.00000000000E+00 0. -1.
        -13    1    3    3    0    0  0.20811673632E+03 -0.16775586859E+03 -0.15046431815E+03  0.30674764615E+03  0.00000000000E+00 0.  1.
         22    1    1    2    0    0 -0.81834787490E+03  0.57127746354E+03  0.14822680555E+04  0.17869442557E+04  0.00000000000E+00 0. -1.
<mgrwt>
<rscale>  0 0.29244298E+04</rscale>
<asrwt>0</asrwt>
<pdfrwt beam="1">  1        2 0.29096255E+00 0.29244298E+04</pdfrwt>
<pdfrwt beam="2">  1       -2 0.17392364E+00 0.29244298E+04</pdfrwt>
<totfact> 0.13225431E+00</totfact>
</mgrwt>
</event>
<event>
 6    1  0.1001928E-005  0.3932083E+04  0.7818608E-02  0.8018390E-01
          1   -1    0    0  501    0  0.00000000000E+00  0.00000000000E+00  0.31146699499E+04  0.31146699499E+04  0.00000000000E+00 0. -1.
         -1   -1    0    0    0  501 -0.00000000000E+00 -0.00000000000E+00 -0.12410042533E+04  0.12410042533E+04  0.00000000000E+00 0.  1.
         23    2    1    2    0    0  0.43798338169E+03 -0.80068730954E+03  0.28649837658E+04  0.30082169220E+04  0.91145278413E+02 0.  0.
         13    1    3    3    0    0  0.32591393414E+03 -0.61503400350E+03  0.20536261280E+04  0.21683788856E+04  0.00000000000E+00 0. -1.
        -13    1    3    3    0    0  0.11206944755E+03 -0.18565330604E+03  0.81135763780E+03  0.83983803649E+03  0.00000000000E+00 0.  1.
         22    1    1    2    0    0 -0.43798338169E+03  0.80068730954E+03 -0.99131806919E+03  0.13474572812E+04  0.00000000000E+00 0.  1.
<mgrwt>
<rscale>  0 0.39320827E+04</rscale>
<asrwt>0</asrwt>
<pdfrwt beam="1">  1        1 0.47917999E+00 0.39320827E+04</pdfrwt>
<pdfrwt beam="2">  1       -1 0.19092373E+00 0.39320827E+04</pdfrwt>
<totfact> 0.67379809E-02</totfact>
</mgrwt>
</event>
<event>
 6    1  0.1001928E-005  0.1572507E+04  0.7818608E-02  0.8837618E-01
         -2   -1    0    0    0  501 -0.00000000000E+00  0.00000000000E+00  0.36327353447E+03  0.36327353447E+03  0.00000000000E+00 0.  1.
          2   -1    0    0  501    0  0.00000000000E+00 -0.00000000000E+00 -0.17017325823E+04  0.17017325823E+04  0.00000000000E+00 0. -1.
         23    2    1    2    0    0 -0.16199107753E+03  0.76488073201E+03 -0.60169133212E+03  0.99071085460E+03  0.90509087206E+02 0.  0.
         11    1    3    3    0    0 -0.73235345557E+02  0.17099218922E+03 -0.15853235348E+03  0.24440591587E+03  0.00000000000E+00 0.  1.
        -11    1    3    3    0    0 -0.88755731975E+02  0.59388854280E+03 -0.44315897864E+03  0.74630493873E+03  0.00000000000E+00 0. -1.
         22    1    1    2    0    0  0.16199107753E+03 -0.76488073201E+03 -0.73676771569E+03  0.10742952622E+04  0.00000000000E+00 0. -1.
<mgrwt>
<rscale>  0 0.15725068E+04</rscale>
<asrwt>0</asrwt>
<pdfrwt beam="1">  1        2 0.26180501E+00 0.15725068E+04</pdfrwt>
<pdfrwt beam="2">  1       -2 0.55888237E-01 0.15725068E+04</pdfrwt>
<totfact> 0.28269776E+01</totfact>
</mgrwt>
</event>
<event>
 6    1  0.1001928E-005  0.5714087E+03  0.7818608E-02  0.9966566E-01
          2   -1    0    0  501    0  0.00000000000E+00  0.00000000000E+00  0.15717486529E+04  0.15717486529E+04  0.00000000000E+00 0. -1.
         -2   -1    0    0    0  501 -0.00000000000E+00 -0.00000000000E+00 -0.51933860191E+02  0.51933860191E+02  0.00000000000E+00 0.  1.
         23    2    1    2    0    0  0.62180590219E+02  0.13203406872E+03  0.14531064512E+04  0.14632162427E+04  0.90465426236E+02 0.  0.
         13    1    3    3    0    0  0.45406149866E+02  0.90879944311E+01  0.48055127463E+03  0.48277721325E+03  0.00000000000E+00 0.  1.
        -13    1    3    3    0    0  0.16774440353E+02  0.12294607428E+03  0.97255517652E+03  0.98043902942E+03  0.00000000000E+00 0. -1.
         22    1    1    2    0    0 -0.62180590219E+02 -0.13203406872E+03  0.66708341523E+02  0.16046627038E+03  0.00000000000E+00 0.  1.
<mgrwt>
<rscale>  0 0.57140870E+03</rscale>
<asrwt>0</asrwt>
<pdfrwt beam="1">  1        2 0.24180745E+00 0.57140870E+03</pdfrwt>
<pdfrwt beam="2">  1       -2 0.79898258E-02 0.57140870E+03</pdfrwt>
<totfact> 0.11646248E+03</totfact>
</mgrwt>
</event>
<event>
 6    1  0.1001928E-005  0.4033816E+04  0.7818608E-02  0.7997759E-01
          1   -1    0    0  501    0  0.00000000000E+00  0.00000000000E+00  0.18736740302E+04  0.18736740302E+04  0.00000000000E+00 0. -1.
         -1   -1    0    0    0  501 -0.00000000000E+00 -0.00000000000E+00 -0.21710912398E+04  0.21710912398E+04  0.00000000000E+00 0.  1.
         23    2    1    2    0    0 -0.17087904541E+03  0.55445379874E+03  0.17870055691E+04  0.18811024072E+04  0.92405081713E+02 0.  0.
         11    1    3    3    0    0 -0.13565355595E+03  0.50580377207E+03  0.16593249124E+04  0.17399995713E+04  0.00000000000E+00 0. -1.
        -11    1    3    3    0    0 -0.35225489456E+02  0.48650026676E+02  0.12768065670E+03  0.14110283590E+03  0.00000000000E+00 0.  1.
         22    1    1    2    0    0  0.17087904541E+03 -0.55445379874E+03 -0.20844227788E+04  0.21636628628E+04  0.00000000000E+00 0.  1.
<mgrwt>
<rscale>  0 0.40338157E+04</rscale>
<asrwt>0</asrwt>
<pdfrwt beam="1">  1        1 0.28825754E+00 0.40338157E+04</pdfrwt>
<pdfrwt beam="2">  1       -1 0.33401404E+00 0.40338157E+04</pdfrwt>
<totfact> 0.56126125E-02</totfact>
</mgrwt>
</event>
<event>
 6    1  0.1001928E-005  0.2023058E+04  0.7818608E-02  0.8595916E-01
          1   -1    0    0  501    0  0.00000000000E+00  0.00000000000E+00  0.25884120436E+04  0.25884120436E+04  0.00000000000E+00 0. -1.
         -1   -1    0    0    0  501 -0.00000000000E+00 -0.00000000000E+00 -0.39529666615E+03  0.39529666615E+03  0.00000000000E+00 0.  1.
         23    2    1    2    0    0  0.16290011094E+03  0.90768575647E+03  0.17041438840E+04  0.19399065254E+04  0.93279533271E+02 0.  0.
         11    1    3    3    0    0  0.95655118495E+02  0.39903394102E+03  0.84139634121E+03  0.93612274344E+03  0.00000000000E+00 0. -1.
        -11    1    3    3    0    0  0.67244992449E+02  0.50865181545E+03  0.86274754281E+03  0.10037837820E+04  0.00000000000E+00 0.  1.
         22    1    1    2    0    0 -0.16290011094E+03 -0.90768575647E+03  0.48897149347E+03  0.10438021844E+04  0.00000000000E+00 0.  1.
<mgrwt>
<rscale>  0 0.20230577E+04</rscale>
<asrwt>0</asrwt>
<pdfrwt beam="1">  1        1 0.39821723E+00 0.20230577E+04</pdfrwt>
<pdfrwt beam="2">  1       -1 0.60814873E-01 0.20230577E+04</pdfrwt>
<totfact> 0.29861879E+00</totfact>
</mgrwt>
</event>
<event>
 6    1  0.1001928E-005  0.3863008E+04  0.7818608E-02  0.8032767E-01
          4   -1    0    0  501    0  0.00000000000E+00  0.00000000000E+00  0.18767774769E+04  0.18767774769E+04  0.00000000000E+00 0. -1.
         -4   -1    0    0    0  501 -0.00000000000E+00 -0.00000000000E+00 -0.19878266471E+04  0.19878266471E+04  0.00000000000E+00 0.  1.
         23    2    1    2    0    0  0.67800786523E+03 -0.10783812950E+04  0.13955252396E+04  0.18916957797E+04  0.91767890502E+02 0.  0.
         11    1    3    3    0    0  0.19562451103E+03 -0.34224397298E+03  0.49073660319E+03  0.62946191312E+03  0.00000000000E+00 0. -1.
        -11    1    3    3    0    0  0.48238335420E+03 -0.73613732206E+03  0.90478863639E+03  0.12622338666E+04  0.00000000000E+00 0.  1.
         22    1    1    2    0    0 -0.67800786523E+03  0.10783812950E+04 -0.15065744098E+04  0.19729083443E+04  0.00000000000E+00 0.  1.
<mgrwt>
<rscale>  0 0.38630083E+04</rscale>
<asrwt>0</asrwt>
<pdfrwt beam="1">  1        4 0.28873500E+00 0.38630083E+04</pdfrwt>
<pdfrwt beam="2">  1       -4 0.30581948E+00 0.38630083E+04</pdfrwt>
<totfact> 0.16133806E-03</totfact>
</mgrwt>
</event>
<event>
 6    1  0.1001928E-005  0.1351762E+04  0.7818608E-02  0.8989495E-01
          1   -1    0    0  501    0  0.00000000000E+00  0.00000000000E+00  0.99168578745E+03  0.99168578745E+03  0.00000000000E+00 0. -1.
         -1   -1    0    0    0  501 -0.00000000000E+00 -0.00000000000E+00 -0.46064522291E+03  0.46064522291E+03  0.00000000000E+00 0.  1.
         23    2    1    2    0    0 -0.49674603765E+02  0.22795861349E+03  0.94446458540E+03  0.97761834279E+03  0.96392818011E+02 0.  0.
         11    1    3    3    0    0 -0.64876977181E+02  0.15095611848E+03  0.50081151954E+03  0.52707584841E+03  0.00000000000E+00 0. -1.
        -11    1    3    3    0    0  0.15202373416E+02  0.77002495012E+02  0.44365306586E+03  0.45054249438E+03  0.00000000000E+00 0.  1.
         22    1    1    2    0    0  0.49674603765E+02 -0.22795861349E+03 -0.41342402086E+03  0.47471266757E+03  0.00000000000E+00 0.  1.
<mgrwt>
<rscale>  0 0.13517623E+04</rscale>
<asrwt>0</asrwt>
<pdfrwt beam="1">  1        1 0.15256704E+00 0.13517623E+04</pdfrwt>
<pdfrwt beam="2">  1       -1 0.70868496E-01 0.13517623E+04</pdfrwt>
<totfact> 0.30243244E+01</totfact>
</mgrwt>
</event>
<event>
 6    1  0.1001928E-005  0.7174073E+03  0.7818608E-02  0.9687918E-01
         -3   -1    0    0    0  501 -0.00000000000E+00  0.00000000000E+00  0.32041583406E+03  0.32041583406E+03  0.00000000000E+00 0.  1.
          3   -1    0    0  501    0  0.00000000000E+00 -0.00000000000E+00 -0.40156666131E+03  0.40156666131E+03  0.00000000000E+00 0. -1.
         23    2    1    2    0    0  0.26093339000E+03 -0.79582839763E+02  0.18424931958E+03  0.34138178553E+03  0.90410449195E+02 0.  0.
         11    1    3    3    0    0  0.13793156968E+03 -0.63066273554E+02  0.52777855455E+02  0.16058634687E+03  0.00000000000E+00 0.  1.
        -11    1    3    3    0    0  0.12300182032E+03 -0.16516566209E+02  0.13147146412E+03  0.18079543866E+03  0.00000000000E+00 0. -1.
         22    1    1    2    0    0 -0.26093339000E+03  0.79582839763E+02 -0.26540014683E+03  0.38060070985E+03  0.00000000000E+00 0. -1.
<mgrwt>
<rscale>  0 0.71740732E+03</rscale>
<asrwt>0</asrwt>
<pdfrwt beam="1">  1        3 0.61779487E-01 0.71740732E+03</pdfrwt>
<pdfrwt beam="2">  1       -3 0.49294744E-01 0.71740732E+03</pdfrwt>
<totfact> 0.27482610E+01</totfact>
</mgrwt>
</event>
<event>
 6    1  0.1001928E-005  0.1332217E+04  0.7818608E-02  0.9004400E-01
         -1   -1    0    0    0  501 -0.00000000000E+00  0.00000000000E+00  0.23117908320E+03  0.23117908320E+03  0.00000000000E+00 0.  1.
          1   -1    0    0  501    0  0.00000000000E+00 -0.00000000000E+00 -0.19192926842E+04  0.19192926842E+04  0.00000000000E+00 0. -1.
         23    2    1    2    0    0  0.57469576612E+03 -0.13323437912E+03 -0.36009498144E+03  0.69731655296E+03  0.92495167385E+02 0.  0.
         11    1    3    3    0    0  0.54407312196E+02 -0.42407566785E+02 -0.40620757378E+02  0.80053752386E+02  0.00000000000E+00 0.  1.
        -11    1    3    3    0    0  0.52028845393E+03 -0.90826812334E+02 -0.31947422406E+03  0.61726280057E+03  0.00000000000E+00 0. -1.
         22    1    1    2    0    0 -0.57469576612E+03  0.13323437912E+03 -0.13280186196E+04  0.14531552145E+04  0.00000000000E+00 0. -1.
<mgrwt>
<rscale>  0 0.13322167E+04</rscale>
<asrwt>0</asrwt>
<pdfrwt beam="1">  1        1 0.29527579E+00 0.13322167E+04</pdfrwt>
<pdfrwt beam="2">  1       -1 0.35566014E-01 0.13322167E+04</pdfrwt>
<totfact> 0.25002155E+01</totfact>
</mgrwt>
</event>
<event>
 6    1  0.1001928E-005  0.5835415E+04  0.7818608E-02  0.7711150E-01
         -2   -1    0    0    0  501 -0.00000000000E+00  0.00000000000E+00  0.30993703252E+04  0.30993703252E+04  0.00000000000E+00 0.  1.
          2   -1    0    0  501    0  0.00000000000E+00 -0.00000000000E+00 -0.27466921299E+04  0.27466921299E+04  0.00000000000E+00 0. -1.
         23    2    1    2    0    0  0.33326890761E+03 -0.28754669080E+04  0.53693384275E+03  0.29454886761E+04  0.90705489786E+02 0.  0.
         13    1    3    3    0    0  0.12930318459E+03 -0.12171818619E+04  0.27106785268E+03  0.12536860769E+04  0.00000000000E+00 0. -1.
        -13    1    3    3    0    0  0.20396572303E+03 -0.16582850460E+04  0.26586599007E+03  0.16918025992E+04  0.00000000000E+00 0.  1.
         22    1    1    2    0    0 -0.33326890761E+03  0.28754669080E+04 -0.18425564744E+03  0.29005737790E+04  0.00000000000E+00 0.  1.
<mgrwt>
<rscale>  0 0.58354147E+04</rscale>
<asrwt>0</asrwt>
<pdfrwt beam="1">  1        2 0.42256802E+00 0.58354147E+04</pdfrwt>
<pdfrwt beam="2">  1       -2 0.47682620E+00 0.58354147E+04</pdfrwt>
<totfact> 0.39591617E-03</totfact>
</mgrwt>
</event>
<event>
 6    1  0.1001928E-005  0.1385165E+04  0.7818608E-02  0.8964627E-01
         -1   -1    0    0    0  501 -0.00000000000E+00  0.00000000000E+00  0.81166359862E+03  0.81166359862E+03  0.00000000000E+00 0.  1.
          1   -1    0    0  501    0  0.00000000000E+00 -0.00000000000E+00 -0.59097211600E+03  0.59097211600E+03  0.00000000000E+00 0. -1.
         23    2    1    2    0    0 -0.47633960549E+03 -0.25481416359E+03 -0.32351495008E+03  0.63583044656E+03  0.88253929769E+02 0.  0.
         11    1    3    3    0    0 -0.21330966267E+02 -0.32630365006E+01 -0.35301473081E+02  0.41374527560E+02  0.00000000000E+00 0. -1.
        -11    1    3    3    0    0 -0.45500863923E+03 -0.25155112709E+03 -0.28821347700E+03  0.59445591900E+03  0.00000000000E+00 0.  1.
         22    1    1    2    0    0  0.47633960549E+03  0.25481416359E+03  0.54420643270E+03  0.76680526806E+03  0.00000000000E+00 0. -1.
<mgrwt>
<rscale>  0 0.13851651E+04</rscale>
<asrwt>0</asrwt>
<pdfrwt beam="1">  1        1 0.90918788E-01 0.13851651E+04</pdfrwt>
<pdfrwt beam="2">  1       -1 0.12487132E+00 0.13851651E+04</pdfrwt>
<totfact> 0.19179821E+01</totfact>
</mgrwt>
</event>
<event>
 6    1  0.1001928E-005  0.2927257E+04  0.7818608E-02  0.8264814E-01
         -2   -1    0    0    0  501 -0.00000000000E+00  0.00000000000E+00  0.82705773307E+03  0.82705773307E+03  0.00000000000E+00 0.  1.
          2   -1    0    0  501    0  0.00000000000E+00 -0.00000000000E+00 -0.25901551788E+04  0.25901551788E+04  0.00000000000E+00 0. -1.
         23    2    1    2    0    0  0.84346956030E+03 -0.61381511273E+03  0.31373365961E+03  0.10931136601E+04  0.90877791869E+02 0.  0.
         11    1    3    3    0    0  0.58280917418E+03 -0.42412217764E+03  0.26019437625E+03  0.76632060426E+03  0.00000000000E+00 0.  1.
        -11    1    3    3    0    0  0.26066038612E+03 -0.18969293509E+03  0.53539283364E+02  0.32679305589E+03  0.00000000000E+00 0. -1.
         22    1    1    2    0    0 -0.84346956030E+03  0.61381511273E+03 -0.20768311054E+04  0.23240992518E+04  0.00000000000E+00 0. -1.
<mgrwt>
<rscale>  0 0.29272566E+04</rscale>
<asrwt>0</asrwt>
<pdfrwt beam="1">  1        2 0.39848540E+00 0.29272566E+04</pdfrwt>
<pdfrwt beam="2">  1       -2 0.12723965E+00 0.29272566E+04</pdfrwt>
<totfact> 0.12173747E+00</totfact>
</mgrwt>
</event>
<event>
 6    1  0.1001928E-005  0.4131983E+04  0.7818608E-02  0.7978438E-01
         -1   -1    0    0    0  501 -0.00000000000E+00  0.00000000000E+00  0.16230636999E+04  0.16230636999E+04  0.00000000000E+00 0.  1.
          1   -1    0    0  501    0  0.00000000000E+00 -0.00000000000E+00 -0.26297931634E+04  0.26297931634E+04  0.00000000000E+00 0. -1.
         23    2    1    2    0    0  0.16590726662E+04 -0.19792033376E+01 -0.17690588740E+04  0.24270222160E+04  0.91331856249E+02 0.  0.
         13    1    3    3    0    0  0.52004709066E+03  0.95504523481E+01 -0.61559919553E+03  0.80591721485E+03  0.00000000000E+00 0. -1.
        -13    1    3    3    0    0  0.11390255756E+04 -0.11529655686E+02 -0.11534596785E+04  0.16211050011E+04  0.00000000000E+00 0.  1.
         22    1    1    2    0    0 -0.16590726662E+04  0.19792033376E+01  0.76232941058E+03  0.18258346473E+04  0.00000000000E+00 0.  1.
<mgrwt>
<rscale>  0 0.41319835E+04</rscale>
<asrwt>0</asrwt>
<pdfrwt beam="1">  1        1 0.40458356E+00 0.41319835E+04</pdfrwt>
<pdfrwt beam="2">  1       -1 0.24970211E+00 0.41319835E+04</pdfrwt>
<totfact> 0.59626794E-02</totfact>
</mgrwt>
</event>
<event>
 6    1  0.1001928E-005  0.2455114E+04  0.7818608E-02  0.8419153E-01
          1   -1    0    0  501    0  0.00000000000E+00  0.00000000000E+00  0.11208607313E+04  0.11208607313E+04  0.00000000000E+00 0.  1.
         -1   -1    0    0    0  501 -0.00000000000E+00 -0.00000000000E+00 -0.13444097076E+04  0.13444097076E+04  0.00000000000E+00 0. -1.
         23    2    1    2    0    0  0.28461247575E+03 -0.16767191691E+03 -0.12974553701E+04  0.13417077678E+04  0.87585180123E+02 0.  0.
         11    1    3    3    0    0  0.19224275204E+02 -0.45217269843E+02 -0.16681987132E+03  0.17390527225E+03  0.00000000000E+00 0. -1.
        -11    1    3    3    0    0  0.26538820054E+03 -0.12245464706E+03 -0.11306354988E+04  0.11678024956E+04  0.00000000000E+00 0.  1.
         22    1    1    2    0    0 -0.28461247575E+03  0.16767191691E+03  0.10739063939E+04  0.11235626711E+04  0.00000000000E+00 0.  1.
<mgrwt>
<rscale>  0 0.24551139E+04</rscale>
<asrwt>0</asrwt>
<pdfrwt beam="1">  1        1 0.17244011E+00 0.24551139E+04</pdfrwt>
<pdfrwt beam="2">  1       -1 0.20683226E+00 0.24551139E+04</pdfrwt>
<totfact> 0.14735179E+00</totfact>
</mgrwt>
</event>
<event>
 6    1  0.1001928E-005  0.3206233E+04  0.7818608E-02  0.8187173E-01
          2   -1    0    0  501    0  0.00000000000E+00  0.00000000000E+00  0.18117978074E+04  0.18117978074E+04  0.00000000000E+00 0. -1.
         -2   -1    0    0    0  501 -0.00000000000E+00 -0.00000000000E+00 -0.14184707317E+04  0.14184707317E+04  0.00000000000E+00 0.  1.
         23    2    1    2    0    0  0.71972620349E+03  0.14119736313E+04  0.43137685734E+03  0.16449852428E+04  0.90637256750E+02 0.  0.
         13    1    3    3    0    0  0.23334718156E+03  0.55043574355E+03  0.14947160716E+03  0.61625658314E+03  0.00000000000E+00 0. -1.
        -13    1    3    3    0    0  0.48637902194E+03  0.86153788780E+03  0.28190525018E+03  0.10287286596E+04  0.00000000000E+00 0.  1.
         22    1    1    2    0    0 -0.71972620349E+03 -0.14119736313E+04 -0.38049781584E+02  0.15852832963E+04  0.00000000000E+00 0.  1.
<mgrwt>
<rscale>  0 0.32062328E+04</rscale>
<asrwt>0</asrwt>
<pdfrwt beam="1">  1        2 0.27873813E+00 0.32062328E+04</pdfrwt>
<pdfrwt beam="2">  1       -2 0.21822627E+00 0.32062328E+04</pdfrwt>
<totfact> 0.72565728E-01</totfact>
</mgrwt>
</event>
<event>
 6    1  0.1001928E-005  0.2425562E+04  0.7818608E-02  0.8429995E-01
          2   -1    0    0  501    0  0.00000000000E+00  0.00000000000E+00  0.51603632408E+03  0.51603632408E+03  0.00000000000E+00 0. -1.
         -2   -1    0    0    0  501 -0.00000000000E+00 -0.00000000000E+00 -0.28502589906E+04  0.28502589906E+04  0.00000000000E+00 0.  1.
         23    2    1    2    0    0  0.94440229791E+03  0.58700174208E+03 -0.50233190898E+03  0.12233322975E+04  0.87964866860E+02 0.  0.
         13    1    3    3    0    0  0.68845682988E+03  0.40236741962E+03 -0.32301595579E+03  0.86035553969E+03  0.00000000000E+00 0.  1.
        -13    1    3    3    0    0  0.25594546804E+03  0.18463432247E+03 -0.17931595319E+03  0.36297675781E+03  0.00000000000E+00 0. -1.
         22    1    1    2    0    0 -0.94440229791E+03 -0.58700174208E+03 -0.18318907576E+04  0.21429630172E+04  0.00000000000E+00 0. -1.
<mgrwt>
<rscale>  0 0.24255615E+04</rscale>
<asrwt>0</asrwt>
<pdfrwt beam="1">  1        2 0.79390202E-01 0.24255615E+04</pdfrwt>
<pdfrwt beam="2">  1       -2 0.43850139E+00 0.24255615E+04</pdfrwt>
<totfact> 0.22021477E-01</totfact>
</mgrwt>
</event>
<event>
 6    1  0.1001928E-005  0.1880300E+04  0.7818608E-02  0.8664725E-01
         -2   -1    0    0    0  501 -0.00000000000E+00  0.00000000000E+00  0.10722254531E+04  0.10722254531E+04  0.00000000000E+00 0.  1.
          2   -1    0    0  501    0  0.00000000000E+00 -0.00000000000E+00 -0.82434347824E+03  0.82434347824E+03  0.00000000000E+00 0. -1.
         23    2    1    2    0    0  0.21004141189E+03  0.33349514796E+03  0.98270818292E+03  0.10627188462E+04  0.91211649209E+02 0.  0.
         13    1    3    3    0    0  0.98050460977E+02  0.23631306404E+03  0.59855986882E+03  0.65094675181E+03  0.00000000000E+00 0.  1.
        -13    1    3    3    0    0  0.11199095092E+03  0.97182083919E+02  0.38414831410E+03  0.41177209443E+03  0.00000000000E+00 0. -1.
         22    1    1    2    0    0 -0.21004141189E+03 -0.33349514796E+03 -0.73482620804E+03  0.83385008512E+03  0.00000000000E+00 0. -1.
<mgrwt>
<rscale>  0 0.18803000E+04</rscale>
<asrwt>0</asrwt>
<pdfrwt beam="1">  1        2 0.12682207E+00 0.18803000E+04</pdfrwt>
<pdfrwt beam="2">  1       -2 0.16495776E+00 0.18803000E+04</pdfrwt>
<totfact> 0.71878737E+00</totfact>
</mgrwt>
</event>
<event>
 6    1  0.1001928E-005  0.2193630E+04  0.7818608E-02  0.8521084E-01
         -2   -1    0    0    0  501 -0.00000000000E+00  0.00000000000E+00  0.19689558963E+04  0.19689558963E+04  0.00000000000E+00 0.  1.
          2   -1    0    0  501    0  0.00000000000E+00 -0.00000000000E+00 -0.61098509170E+03  0.61098509170E+03  0.00000000000E+00 0. -1.
         23    2    1    2    0    0 -0.14958193702E+02  0.50459655495E+03 -0.46250567341E+03  0.69076761380E+03  0.91689516932E+02 0.  0.
         13    1    3    3    0    0 -0.43417340542E+01  0.42099747432E+03 -0.42595529329E+03  0.59891204356E+03  0.00000000000E+00 0.  1.
        -13    1    3    3    0    0 -0.10616459647E+02  0.83599080635E+02 -0.36550380120E+02  0.91855570247E+02  0.00000000000E+00 0. -1.
         22    1    1    2    0    0  0.14958193702E+02 -0.50459655495E+03  0.18204764780E+04  0.18891733742E+04  0.00000000000E+00 0.  1.
<mgrwt>
<rscale>  0 0.21936296E+04</rscale>
<asrwt>0</asrwt>
<pdfrwt beam="1">  1        2 0.93997708E-01 0.21936296E+04</pdfrwt>
<pdfrwt beam="2">  1       -2 0.30291629E+00 0.21936296E+04</pdfrwt>
<totfact> 0.13541759E+00</totfact>
</mgrwt>
</event>
<event>
 6    1  0.1001928E-005  0.1484044E+04  0.7818608E-02  0.8895133E-01
         -2   -1    0    0    0  501 -0.00000000000E+00  0.00000000000E+00  0.45520212000E+03  0.45520212000E+03  0.00000000000E+00 0.  1.
          2   -1    0    0  501    0  0.00000000000E+00 -0.00000000000E+00 -0.12095651816E+04  0.12095651816E+04  0.00000000000E+00 0. -1.
         23    2    1    2    0    0 -0.30428114633E+03 -0.42667673037E+03 -0.96336676939E+03  0.11005664525E+04  0.92363065015E+02 0.  0.
         13    1    3    3    0    0 -0.14037641566E+03 -0.12866603730E+03 -0.30560387179E+03  0.36007528891E+03  0.00000000000E+00 0.  1.
        -13    1    3    3    0    0 -0.16390473067E+03 -0.29801069306E+03 -0.65776289760E+03  0.74049116361E+03  0.00000000000E+00 0. -1.
         22    1    1    2    0    0  0.30428114633E+03  0.42667673037E+03  0.20900370779E+03  0.56420084909E+03  0.00000000000E+00 0.  1.
<mgrwt>
<rscale>  0 0.14840440E+04</rscale>
<asrwt>0</asrwt>
<pdfrwt beam="1">  1        2 0.18608695E+00 0.14840440E+04</pdfrwt>
<pdfrwt beam="2">  1       -2 0.70031096E-01 0.14840440E+04</pdfrwt>
<totfact> 0.33584239E+01</totfact>
</mgrwt>
</event>
<event>
 6    1  0.1001928E-005  0.1254970E+04  0.7818608E-02  0.9066057E-01
          1   -1    0    0  501    0  0.00000000000E+00  0.00000000000E+00  0.16211426941E+03  0.16211426941E+03  0.00000000000E+00 0. -1.
         -1   -1    0    0    0  501 -0.00000000000E+00 -0.00000000000E+00 -0.24287639809E+04  0.24287639809E+04  0.00000000000E+00 0.  1.
         23    2    1    2    0    0  0.44636651557E+03  0.30795258867E+03 -0.50138327481E+03  0.74419380094E+03  0.91440483401E+02 0.  0.
         13    1    3    3    0    0  0.28826909559E+03  0.18959097031E+03 -0.25834174161E+03  0.43102698633E+03  0.00000000000E+00 0. -1.
        -13    1    3    3    0    0  0.15809741998E+03  0.11836161836E+03 -0.24304153320E+03  0.31316681460E+03  0.00000000000E+00 0.  1.
         22    1    1    2    0    0 -0.44636651557E+03 -0.30795258867E+03 -0.17652664366E+04  0.18466844493E+04  0.00000000000E+00 0.  1.
<mgrwt>
<rscale>  0 0.12549698E+04</rscale>
<asrwt>0</asrwt>
<pdfrwt beam="1">  1        1 0.24940655E-01 0.12549698E+04</pdfrwt>
<pdfrwt beam="2">  1       -1 0.37365602E+00 0.12549698E+04</pdfrwt>
<totfact> 0.21099324E+00</totfact>
</mgrwt>
</event>
<event>
 6    1  0.1001928E-005  0.1766303E+04  0.7818608E-02  0.8724427E-01
         -2   -1    0    0    0  501 -0.00000000000E+00  0.00000000000E+00  0.43125051215E+03  0.43125051215E+03  0.00000000000E+00 0.  1.
          2   -1    0    0  501    0  0.00000000000E+00 -0.00000000000E+00 -0.18085926394E+04  0.18085926394E+04  0.00000000000E+00 0. -1.
         23    2    1    2    0    0  0.20346157427E+03 -0.53247006835E+03  0.16096176296E+03  0.59932498813E+03  0.91437226366E+02 0.  0.
         11    1    3    3    0    0  0.13873500120E+03 -0.28653946659E+03  0.12702585243E+03  0.34276498313E+03  0.00000000000E+00 0.  1.
        -11    1    3    3    0    0  0.64726573069E+02 -0.24593060176E+03  0.33935910534E+02  0.25656000500E+03  0.00000000000E+00 0. -1.
         22    1    1    2    0    0 -0.20346157427E+03  0.53247006835E+03 -0.15383038902E+04  0.16405181634E+04  0.00000000000E+00 0. -1.
<mgrwt>
<rscale>  0 0.17663029E+04</rscale>
<asrwt>0</asrwt>
<pdfrwt beam="1">  1        2 0.27824502E+00 0.17663029E+04</pdfrwt>
<pdfrwt beam="2">  1       -2 0.66346233E-01 0.17663029E+04</pdfrwt>
<totfact> 0.16872566E+01</totfact>
</mgrwt>
</event>
<event>
 6    1  0.1001928E-005  0.1070287E+04  0.7818608E-02  0.9234646E-01
         -1   -1    0    0    0  501 -0.00000000000E+00  0.00000000000E+00  0.15262404645E+03  0.15262404645E+03  0.00000000000E+00 0.  1.
          1   -1    0    0  501    0  0.00000000000E+00 -0.00000000000E+00 -0.18763672114E+04  0.18763672114E+04  0.00000000000E+00 0. -1.
         23    2    1    2    0    0  0.29385752258E+02 -0.51156263935E+03 -0.11342006988E+04  0.12478893594E+04  0.90866779885E+02 0.  0.
         11    1    3    3    0    0  0.47636330654E+02 -0.13557689793E+03 -0.29565141712E+03  0.32872492405E+03  0.00000000000E+00 0.  1.
        -11    1    3    3    0    0 -0.18250578396E+02 -0.37598574142E+03 -0.83854928166E+03  0.91916443531E+03  0.00000000000E+00 0. -1.
         22    1    1    2    0    0 -0.29385752258E+02  0.51156263935E+03 -0.58954246620E+03  0.78110189852E+03  0.00000000000E+00 0.  1.
<mgrwt>
<rscale>  0 0.10702874E+04</rscale>
<asrwt>0</asrwt>
<pdfrwt beam="1">  1        1 0.28867190E+00 0.10702874E+04</pdfrwt>
<pdfrwt beam="2">  1       -1 0.23480621E-01 0.10702874E+04</pdfrwt>
<totfact> 0.56408759E+01</totfact>
</mgrwt>
</event>
<event>
 6    1  0.1001928E-005  0.9725115E+03  0.7818608E-02  0.9339218E-01
         -1   -1    0    0    0  501 -0.00000000000E+00  0.00000000000E+00  0.14199812440E+03  0.14199812440E+03  0.00000000000E+00 0.  1.
          1   -1    0    0  501    0  0.00000000000E+00 -0.00000000000E+00 -0.16651250969E+04  0.16651250969E+04  0.00000000000E+00 0. -1.
         23    2    1    2    0    0  0.30879319217E+03  0.12376879158E+03 -0.14163650659E+04  0.14577379698E+04  0.90763644672E+02 0.  0.
         13    1    3    3    0    0  0.22469508165E+03  0.63448343423E+02 -0.82575649047E+03  0.85813014954E+03  0.00000000000E+00 0.  1.
        -13    1    3    3    0    0  0.84098110520E+02  0.60320448162E+02 -0.59060857547E+03  0.59960782022E+03  0.00000000000E+00 0. -1.
         22    1    1    2    0    0 -0.30879319217E+03 -0.12376879158E+03 -0.10676190658E+03  0.34938525154E+03  0.00000000000E+00 0.  1.
<mgrwt>
<rscale>  0 0.97251147E+03</rscale>
<asrwt>0</asrwt>
<pdfrwt beam="1">  1        1 0.25617307E+00 0.97251147E+03</pdfrwt>
<pdfrwt beam="2">  1       -1 0.21845867E-01 0.97251147E+03</pdfrwt>
<totfact> 0.89262238E+01</totfact>
</mgrwt>
</event>
<event>
 6    1  0.1039591E-005  0.2846592E+04  0.7818608E-02  0.8288948E-01
         -1   -1    0    0    0  501 -0.00000000000E+00  0.00000000000E+00  0.11278510500E+04  0.11278510500E+04  0.00000000000E+00 0.  1.
          1   -1    0    0  501    0  0.00000000000E+00 -0.00000000000E+00 -0.17961342088E+04  0.17961342088E+04  0.00000000000E+00 0. -1.
         23    2    1    2    0    0  0.52154808817E+03 -0.40896757304E+03 -0.16266203058E+04  0.17587912957E+04  0.90478276133E+02 0.  0.
         13    1    3    3    0    0  0.26430017933E+03 -0.25074930282E+03 -0.81181470353E+03  0.88981622289E+03  0.00000000000E+00 0.  1.
        -13    1    3    3    0    0  0.25724790884E+03 -0.15821827022E+03 -0.81480560230E+03  0.86897507282E+03  0.00000000000E+00 0. -1.
         22    1    1    2    0    0 -0.52154808817E+03  0.40896757304E+03  0.95833714702E+03  0.11651939630E+04  0.00000000000E+00 0.  1.
<mgrwt>
<rscale>  0 0.28465922E+04</rscale>
<asrwt>0</asrwt>
<pdfrwt beam="1">  1        1 0.27632834E+00 0.28465922E+04</pdfrwt>
<pdfrwt beam="2">  1       -1 0.17351555E+00 0.28465922E+04</pdfrwt>
<totfact> 0.81961715E-01</totfact>
</mgrwt>
</event>
<event>
 6    1  0.1001928E-005  0.1784613E+04  0.7818608E-02  0.8714525E-01
          2   -1    0    0  501    0  0.00000000000E+00  0.00000000000E+00  0.11028099700E+04  0.11028099700E+04  0.00000000000E+00 0. -1.
         -2   -1    0    0    0  501 -0.00000000000E+00 -0.00000000000E+00 -0.72198401426E+03  0.72198401426E+03  0.00000000000E+00 0.  1.
         23    2    1    2    0    0 -0.68801436035E+03 -0.18573020653E+03  0.73601432239E+03  0.10285413576E+04  0.91218265350E+02 0.  0.
         11    1    3    3    0    0 -0.22204403330E+03 -0.53247295035E+02  0.17756801729E+03  0.28925633601E+03  0.00000000000E+00 0. -1.
        -11    1    3    3    0    0 -0.46597032705E+03 -0.13248291149E+03  0.55844630510E+03  0.73928502163E+03  0.00000000000E+00 0.  1.
         22    1    1    2    0    0  0.68801436035E+03  0.18573020653E+03 -0.35518836663E+03  0.79625262665E+03  0.00000000000E+00 0.  1.
<mgrwt>
<rscale>  0 0.17846133E+04</rscale>
<asrwt>0</asrwt>
<pdfrwt beam="1">  1        2 0.16966307E+00 0.17846133E+04</pdfrwt>
<pdfrwt beam="2">  1       -2 0.11107446E+00 0.17846133E+04</pdfrwt>
<totfact> 0.13163890E+01</totfact>
</mgrwt>
</event>
<event>
 6    1  0.1001928E-005  0.1474166E+04  0.7818608E-02  0.8901816E-01
          2   -1    0    0  501    0  0.00000000000E+00  0.00000000000E+00  0.31039280913E+04  0.31039280913E+04  0.00000000000E+00 0. -1.
         -2   -1    0    0    0  501 -0.00000000000E+00 -0.00000000000E+00 -0.17503356291E+03  0.17503356291E+03  0.00000000000E+00 0.  1.
         23    2    1    2    0    0 -0.63477260454E+03  0.28996990183E+03  0.19781959275E+04  0.20996200441E+04  0.90146540964E+02 0.  0.
         11    1    3    3    0    0 -0.24751029016E+03  0.11737443804E+03  0.91077944559E+03  0.95108217361E+03  0.00000000000E+00 0.  1.
        -11    1    3    3    0    0 -0.38726231439E+03  0.17259546378E+03  0.10674164819E+04  0.11485378705E+04  0.00000000000E+00 0. -1.
         22    1    1    2    0    0  0.63477260454E+03 -0.28996990183E+03  0.95069860090E+03  0.11793416101E+04  0.00000000000E+00 0.  1.
<mgrwt>
<rscale>  0 0.14741663E+04</rscale>
<asrwt>0</asrwt>
<pdfrwt beam="1">  1        2 0.47752736E+00 0.14741663E+04</pdfrwt>
<pdfrwt beam="2">  1       -2 0.26928243E-01 0.14741663E+04</pdfrwt>
<totfact> 0.18307545E+01</totfact>
</mgrwt>
</event>
<event>
 6    1  0.1001928E-005  0.1663474E+04  0.7818608E-02  0.8782475E-01
         -1   -1    0    0    0  501 -0.00000000000E+00  0.00000000000E+00  0.82915174386E+03  0.82915174386E+03  0.00000000000E+00 0.  1.
          1   -1    0    0  501    0  0.00000000000E+00 -0.00000000000E+00 -0.83432997913E+03  0.83432997913E+03  0.00000000000E+00 0. -1.
         23    2    1    2    0    0 -0.16755752856E+03  0.74161884157E+03  0.32857134461E+03  0.83314274785E+03  0.89964872294E+02 0.  0.
         11    1    3    3    0    0 -0.14656951143E+03  0.63897258498E+03  0.24774304630E+03  0.70081752477E+03  0.00000000000E+00 0. -1.
        -11    1    3    3    0    0 -0.20988017131E+02  0.10264625659E+03  0.80828298311E+02  0.13232522308E+03  0.00000000000E+00 0.  1.
         22    1    1    2    0    0  0.16755752856E+03 -0.74161884157E+03 -0.33374957989E+03  0.83033897514E+03  0.00000000000E+00 0. -1.
<mgrwt>
<rscale>  0 0.16634737E+04</rscale>
<asrwt>0</asrwt>
<pdfrwt beam="1">  1        1 0.12835846E+00 0.16634737E+04</pdfrwt>
<pdfrwt beam="2">  1       -1 0.12756181E+00 0.16634737E+04</pdfrwt>
<totfact> 0.10487531E+01</totfact>
</mgrwt>
</event>
<event>
 6    1  0.1001928E-005  0.1652704E+04  0.7818608E-02  0.8788809E-01
          2   -1    0    0  501    0  0.00000000000E+00  0.00000000000E+00  0.21502436593E+04  0.21502436593E+04  0.00000000000E+00 0. -1.
         -2   -1    0    0    0  501 -0.00000000000E+00 -0.00000000000E+00 -0.31757207313E+03  0.31757207313E+03  0.00000000000E+00 0.  1.
         23    2    1    2    0    0  0.11861274990E+03 -0.64307430546E+03  0.16670353386E+04  0.17932425983E+04  0.95386841164E+02 0.  0.
         11    1    3    3    0    0  0.12154447720E+03 -0.40744284252E+03  0.10686762185E+04  0.11501528550E+04  0.00000000000E+00 0. -1.
        -11    1    3    3    0    0 -0.29317273047E+01 -0.23563146294E+03  0.59835912012E+03  0.64308974334E+03  0.00000000000E+00 0.  1.
         22    1    1    2    0    0 -0.11861274990E+03  0.64307430546E+03  0.16563624757E+03  0.67457313413E+03  0.00000000000E+00 0.  1.
<mgrwt>
<rscale>  0 0.16527036E+04</rscale>
<asrwt>0</asrwt>
<pdfrwt beam="1">  1        2 0.33080671E+00 0.16527036E+04</pdfrwt>
<pdfrwt beam="2">  1       -2 0.48857243E-01 0.16527036E+04</pdfrwt>
<totfact> 0.20874873E+01</totfact>
</mgrwt>
</event>
<event>
 6    1  0.1001928E-005  0.2073865E+04  0.7818608E-02  0.8572844E-01
          2   -1    0    0  501    0  0.00000000000E+00  0.00000000000E+00  0.41494500128E+04  0.41494500128E+04  0.00000000000E+00 0. -1.
         -2   -1    0    0    0  501 -0.00000000000E+00 -0.00000000000E+00 -0.25912571584E+03  0.25912571584E+03  0.00000000000E+00 0.  1.
         23    2    1    2    0    0 -0.67119134361E+03  0.13762384334E+03  0.35979850118E+04  0.36636593577E+04  0.86403719650E+02 0.  0.
         11    1    3    3    0    0 -0.87302860828E+02  0.86985362857E+01  0.33256555640E+03  0.34394375027E+03  0.00000000000E+00 0.  1.
        -11    1    3    3    0    0 -0.58388848278E+03  0.12892530706E+03  0.32654194554E+04  0.33197156075E+04  0.00000000000E+00 0. -1.
         22    1    1    2    0    0  0.67119134361E+03 -0.13762384334E+03  0.29233928526E+03  0.74491637095E+03  0.00000000000E+00 0.  1.
<mgrwt>
<rscale>  0 0.20738652E+04</rscale>
<asrwt>0</asrwt>
<pdfrwt beam="1">  1        2 0.63837688E+00 0.20738652E+04</pdfrwt>
<pdfrwt beam="2">  1       -2 0.39865498E-01 0.20738652E+04</pdfrwt>
<totfact> 0.14284765E+00</totfact>
</mgrwt>
</event>
<event>
 6    1  0.1001928E-005  0.3569564E+04  0.7818608E-02  0.8097499E-01
          2   -1    0    0  501    0  0.00000000000E+00  0.00000000000E+00  0.18444443296E+04  0.18444443296E+04  0.00000000000E+00 0. -1.
         -2   -1    0    0    0  501 -0.00000000000E+00 -0.00000000000E+00 -0.17270497341E+04  0.17270497341E+04  0.00000000000E+00 0.  1.
         23    2    1    2    0    0 -0.16139087404E+04  0.23354115678E+03 -0.66424454762E+03  0.17631239013E+04  0.90234018630E+02 0.  0.
         11    1    3    3    0    0 -0.79670891522E+03  0.15399670964E+03 -0.30444467276E+03  0.86668716440E+03  0.00000000000E+00 0. -1.
        -11    1    3    3    0    0 -0.81719982517E+03  0.79544447141E+02 -0.35979987487E+03  0.89643673691E+03  0.00000000000E+00 0.  1.
         22    1    1    2    0    0  0.16139087404E+04 -0.23354115678E+03  0.78163914305E+03  0.18083701624E+04  0.00000000000E+00 0. -1.
<mgrwt>
<rscale>  0 0.35695642E+04</rscale>
<asrwt>0</asrwt>
<pdfrwt beam="1">  1        2 0.28376067E+00 0.35695642E+04</pdfrwt>
<pdfrwt beam="2">  1       -2 0.26569996E+00 0.35695642E+04</pdfrwt>
<totfact> 0.34298586E-01</totfact>
</mgrwt>
</event>
<event>
 6    1  0.1001928E-005  0.4739767E+04  0.7818608E-02  0.7869954E-01
         -1   -1    0    0    0  501 -0.00000000000E+00  0.00000000000E+00  0.23338873852E+04  0.23338873852E+04  0.00000000000E+00 0.  1.
          1   -1    0    0  501    0  0.00000000000E+00 -0.00000000000E+00 -0.24064347118E+04  0.24064347118E+04  0.00000000000E+00 0. -1.
         23    2    1    2    0    0  0.11713953281E+03  0.17836862401E+04 -0.15911441880E+04  0.23948168847E+04  0.90276302709E+02 0.  0.
         11    1    3    3    0    0  0.10676459452E+03  0.13771588914E+04 -0.11826252928E+04  0.18183970617E+04  0.00000000000E+00 0. -1.
        -11    1    3    3    0    0  0.10374938288E+02  0.40652734868E+03 -0.40851889520E+03  0.57641982296E+03  0.00000000000E+00 0.  1.
         22    1    1    2    0    0 -0.11713953281E+03 -0.17836862401E+04  0.15185968614E+04  0.23455052122E+04  0.00000000000E+00 0.  1.
<mgrwt>
<rscale>  0 0.47397669E+04</rscale>
<asrwt>0</asrwt>
<pdfrwt beam="1">  1        1 0.37022072E+00 0.47397669E+04</pdfrwt>
<pdfrwt beam="2">  1       -1 0.35905960E+00 0.47397669E+04</pdfrwt>
<totfact> 0.15675703E-02</totfact>
</mgrwt>
</event>
<event>
 6    1  0.1001928E-005  0.1077344E+04  0.7818608E-02  0.9227560E-01
          2   -1    0    0  501    0  0.00000000000E+00  0.00000000000E+00  0.99553964300E+03  0.99553964300E+03  0.00000000000E+00 0. -1.
         -2   -1    0    0    0  501 -0.00000000000E+00 -0.00000000000E+00 -0.29146762435E+03  0.29146762435E+03  0.00000000000E+00 0.  1.
         23    2    1    2    0    0  0.11952812512E+03 -0.52130318099E+03  0.35698887756E+03  0.64942536200E+03  0.90929988998E+02 0.  0.
         13    1    3    3    0    0  0.46221787620E+02 -0.26750491804E+03  0.12938044546E+03  0.30072351836E+03  0.00000000000E+00 0.  1.
        -13    1    3    3    0    0  0.73306337504E+02 -0.25379826295E+03  0.22760843210E+03  0.34870184364E+03  0.00000000000E+00 0. -1.
         22    1    1    2    0    0 -0.11952812512E+03  0.52130318099E+03  0.34708314108E+03  0.63758190535E+03  0.00000000000E+00 0. -1.
<mgrwt>
<rscale>  0 0.10773441E+04</rscale>
<asrwt>0</asrwt>
<pdfrwt beam="1">  1        2 0.15315994E+00 0.10773441E+04</pdfrwt>
<pdfrwt beam="2">  1       -2 0.44841174E-01 0.10773441E+04</pdfrwt>
<totfact> 0.11883537E+02</totfact>
</mgrwt>
</event>
<event>
 6    1  0.1001928E-005  0.1275633E+04  0.7818608E-02  0.9049114E-01
         -2   -1    0    0    0  501 -0.00000000000E+00  0.00000000000E+00  0.17187667762E+03  0.17187667762E+03  0.00000000000E+00 0. -1.
          2   -1    0    0  501    0  0.00000000000E+00 -0.00000000000E+00 -0.23668719441E+04  0.23668719441E+04  0.00000000000E+00 0.  1.
         23    2    1    2    0    0 -0.16475662130E+03  0.21622252672E+02 -0.23217611321E+04  0.23297465865E+04  0.97632662677E+02 0.  0.
         13    1    3    3    0    0 -0.66471120760E+02  0.40970679401E+02 -0.14777988114E+04  0.14798602412E+04  0.00000000000E+00 0.  1.
        -13    1    3    3    0    0 -0.98285500544E+02 -0.19348426729E+02 -0.84396232070E+03  0.84988634534E+03  0.00000000000E+00 0. -1.
         22    1    1    2    0    0  0.16475662130E+03 -0.21622252672E+02  0.12676586555E+03  0.20900203526E+03  0.00000000000E+00 0. -1.
<mgrwt>
<rscale>  0 0.12756333E+04</rscale>
<asrwt>0</asrwt>
<pdfrwt beam="1">  1        2 0.36413413E+00 0.12756333E+04</pdfrwt>
<pdfrwt beam="2">  1       -2 0.26442567E-01 0.12756333E+04</pdfrwt>
<totfact> 0.53003791E+01</totfact>
</mgrwt>
</event>
<event>
 6    1  0.1001928E-005  0.1435810E+04  0.7818608E-02  0.8928298E-01
          1   -1    0    0  501    0  0.00000000000E+00  0.00000000000E+00  0.23894157332E+04  0.23894157332E+04  0.00000000000E+00 0. -1.
         -1   -1    0    0    0  501 -0.00000000000E+00 -0.00000000000E+00 -0.21569599787E+03  0.21569599787E+03  0.00000000000E+00 0.  1.
         23    2    1    2    0    0  0.54028828286E+03  0.22828664051E+03  0.34682364155E+03  0.68636850793E+03  0.82394608499E+02 0.  0.
         11    1    3    3    0    0  0.16632610890E+03  0.30717601393E+02  0.90793749492E+02  0.19196731619E+03  0.00000000000E+00 0. -1.
        -11    1    3    3    0    0  0.37396217396E+03  0.19756903912E+03  0.25602989206E+03  0.49440119174E+03  0.00000000000E+00 0.  1.
         22    1    1    2    0    0 -0.54028828286E+03 -0.22828664051E+03  0.18268960938E+04  0.19187432231E+04  0.00000000000E+00 0. -1.
<mgrwt>
<rscale>  0 0.14358098E+04</rscale>
<asrwt>0</asrwt>
<pdfrwt beam="1">  1        1 0.36760240E+00 0.14358098E+04</pdfrwt>
<pdfrwt beam="2">  1       -1 0.33184001E-01 0.14358098E+04</pdfrwt>
<totfact> 0.13442437E+01</totfact>
</mgrwt>
</event>
<event>
 6    1  0.1001928E-005  0.1095936E+04  0.7818608E-02  0.9209162E-01
          1   -1    0    0  501    0  0.00000000000E+00  0.00000000000E+00  0.53198283850E+03  0.53198283850E+03  0.00000000000E+00 0. -1.
         -1   -1    0    0    0  501 -0.00000000000E+00 -0.00000000000E+00 -0.56443301160E+03  0.56443301160E+03  0.00000000000E+00 0.  1.
         23    2    1    2    0    0 -0.18490530897E+03 -0.90271517872E+02  0.48762261649E+03  0.53711751585E+03  0.91545013473E+02 0.  0.
         11    1    3    3    0    0 -0.54845005588E+02  0.16116885262E+02  0.12106485948E+03  0.13388214530E+03  0.00000000000E+00 0.  1.
        -11    1    3    3    0    0 -0.13006030338E+03 -0.10638840313E+03  0.36655775701E+03  0.40323537055E+03  0.00000000000E+00 0. -1.
         22    1    1    2    0    0  0.18490530897E+03  0.90271517872E+02 -0.52007278959E+03  0.55929833425E+03  0.00000000000E+00 0.  1.
<mgrwt>
<rscale>  0 0.10959355E+04</rscale>
<asrwt>0</asrwt>
<pdfrwt beam="1">  1        1 0.81843514E-01 0.10959355E+04</pdfrwt>
<pdfrwt beam="2">  1       -1 0.86835848E-01 0.10959355E+04</pdfrwt>
<totfact> 0.52986691E+01</totfact>
</mgrwt>
</event>
<event>
 6    1  0.1001928E-005  0.1153139E+04  0.7818608E-02  0.9154893E-01
         -2   -1    0    0    0  501 -0.00000000000E+00  0.00000000000E+00  0.17056254690E+03  0.17056254690E+03  0.00000000000E+00 0.  1.
          2   -1    0    0  501    0  0.00000000000E+00 -0.00000000000E+00 -0.19490343364E+04  0.19490343364E+04  0.00000000000E+00 0. -1.
         23    2    1    2    0    0 -0.41045691446E+03 -0.22070357451E+03 -0.15074715486E+04  0.15804994181E+04  0.91230446146E+02 0.  0.
         11    1    3    3    0    0 -0.19354914725E+03 -0.10390287153E+03 -0.56059810803E+03  0.60210241474E+03  0.00000000000E+00 0.  1.
        -11    1    3    3    0    0 -0.21690776721E+03 -0.11680070297E+03 -0.94687344058E+03  0.97839700335E+03  0.00000000000E+00 0. -1.
         22    1    1    2    0    0  0.41045691446E+03  0.22070357451E+03 -0.27100024090E+03  0.53909746521E+03  0.00000000000E+00 0.  1.
<mgrwt>
<rscale>  0 0.11531388E+04</rscale>
<asrwt>0</asrwt>
<pdfrwt beam="1">  1        2 0.29985144E+00 0.11531388E+04</pdfrwt>
<pdfrwt beam="2">  1       -2 0.26240391E-01 0.11531388E+04</pdfrwt>
<totfact> 0.92825791E+01</totfact>
</mgrwt>
</event>
<event>
 6    1  0.1001928E-005  0.3848354E+04  0.7818608E-02  0.8035857E-01
          2   -1    0    0  501    0  0.00000000000E+00  0.00000000000E+00  0.20006691895E+04  0.20006691895E+04  0.00000000000E+00 0. -1.
         -2   -1    0    0    0  501 -0.00000000000E+00 -0.00000000000E+00 -0.18506095090E+04  0.18506095090E+04  0.00000000000E+00 0.  1.
         23    2    1    2    0    0 -0.83116804512E+03 -0.16124434877E+04 -0.56373392184E+03  0.19018388746E+04  0.91546982549E+02 0.  0.
         13    1    3    3    0    0 -0.54396766064E+03 -0.98982964777E+03 -0.38494782367E+03  0.11932511782E+04  0.00000000000E+00 0. -1.
        -13    1    3    3    0    0 -0.28720038448E+03 -0.62261383992E+03 -0.17878609817E+03  0.70858769634E+03  0.00000000000E+00 0.  1.
         22    1    1    2    0    0  0.83116804512E+03  0.16124434877E+04  0.71379360235E+03  0.19494398239E+04  0.00000000000E+00 0. -1.
<mgrwt>
<rscale>  0 0.38483542E+04</rscale>
<asrwt>0</asrwt>
<pdfrwt beam="1">  1        2 0.30779526E+00 0.38483542E+04</pdfrwt>
<pdfrwt beam="2">  1       -2 0.28470916E+00 0.38483542E+04</pdfrwt>
<totfact> 0.21015341E-01</totfact>
</mgrwt>
</event>
<event>
 6    1  0.1001928E-005  0.2452529E+04  0.7818608E-02  0.8420095E-01
         -2   -1    0    0    0  501 -0.00000000000E+00  0.00000000000E+00  0.75696410393E+03  0.75696410393E+03  0.00000000000E+00 0.  1.
          2   -1    0    0  501    0  0.00000000000E+00 -0.00000000000E+00 -0.19865201844E+04  0.19865201844E+04  0.00000000000E+00 0. -1.
         23    2    1    2    0    0  0.16670896329E+02  0.34333468687E+03 -0.19305033141E+04  0.19627899497E+04  0.86860319076E+02 0.  0.
         13    1    3    3    0    0 -0.22471795908E+02  0.27067617062E+03 -0.15191058621E+04  0.15431957722E+04  0.00000000000E+00 0. -1.
        -13    1    3    3    0    0  0.39142692237E+02  0.72658516252E+02 -0.41139745196E+03  0.41959417753E+03  0.00000000000E+00 0.  1.
         22    1    1    2    0    0 -0.16670896329E+02 -0.34333468687E+03  0.70094723363E+03  0.78069433860E+03  0.00000000000E+00 0.  1.
<mgrwt>
<rscale>  0 0.24525289E+04</rscale>
<asrwt>0</asrwt>
<pdfrwt beam="1">  1        2 0.30561849E+00 0.24525289E+04</pdfrwt>
<pdfrwt beam="2">  1       -2 0.11645602E+00 0.24525289E+04</pdfrwt>
<totfact> 0.34799977E+00</totfact>
</mgrwt>
</event>
<event>
 6    1  0.1001928E-005  0.4103248E+04  0.7818608E-02  0.7984036E-01
          2   -1    0    0  501    0  0.00000000000E+00  0.00000000000E+00  0.14639320116E+04  0.14639320116E+04  0.00000000000E+00 0. -1.
         -2   -1    0    0    0  501 -0.00000000000E+00 -0.00000000000E+00 -0.28752432324E+04  0.28752432324E+04  0.00000000000E+00 0.  1.
         23    2    1    2    0    0  0.14064120382E+04 -0.29141293972E+03 -0.22536249795E+04  0.26741200525E+04  0.95792401748E+02 0.  0.
         11    1    3    3    0    0  0.54353980702E+03 -0.82912578179E+02 -0.79516018253E+03  0.96674181316E+03  0.00000000000E+00 0.  1.
        -11    1    3    3    0    0  0.86287223119E+03 -0.20850036154E+03 -0.14584647970E+04  0.17073782393E+04  0.00000000000E+00 0. -1.
         22    1    1    2    0    0 -0.14064120382E+04  0.29141293972E+03  0.84231375877E+03  0.16650551915E+04  0.00000000000E+00 0. -1.
<mgrwt>
<rscale>  0 0.41032478E+04</rscale>
<asrwt>0</asrwt>
<pdfrwt beam="1">  1        2 0.22522031E+00 0.41032478E+04</pdfrwt>
<pdfrwt beam="2">  1       -2 0.44234511E+00 0.41032478E+04</pdfrwt>
<totfact> 0.40602168E-02</totfact>
</mgrwt>
</event>
<event>
 6    1  0.1001928E-005  0.1142586E+04  0.7818608E-02  0.9164650E-01
         -2   -1    0    0    0  501 -0.00000000000E+00  0.00000000000E+00  0.22393218554E+03  0.22393218554E+03  0.00000000000E+00 0.  1.
          2   -1    0    0  501    0  0.00000000000E+00 -0.00000000000E+00 -0.14574767745E+04  0.14574767745E+04  0.00000000000E+00 0. -1.
         23    2    1    2    0    0 -0.24379851439E+03 -0.42057744739E+03 -0.10524759740E+04  0.11626518414E+04  0.87923395485E+02 0.  0.
         11    1    3    3    0    0 -0.17532460367E+03 -0.28931852089E+03 -0.63153875739E+03  0.71643919858E+03  0.00000000000E+00 0. -1.
        -11    1    3    3    0    0 -0.68473910718E+02 -0.13125892649E+03 -0.42093721662E+03  0.44621264277E+03  0.00000000000E+00 0.  1.
         22    1    1    2    0    0  0.24379851439E+03  0.42057744739E+03 -0.18106861494E+03  0.51875711868E+03  0.00000000000E+00 0.  1.
<mgrwt>
<rscale>  0 0.11425865E+04</rscale>
<asrwt>0</asrwt>
<pdfrwt beam="1">  1        2 0.22422719E+00 0.11425865E+04</pdfrwt>
<pdfrwt beam="2">  1       -2 0.34451106E-01 0.11425865E+04</pdfrwt>
<totfact> 0.10484669E+02</totfact>
</mgrwt>
</event>
<event>
 6    1  0.1001928E-005  0.5403495E+03  0.7818608E-02  0.1003753E+00
         -2   -1    0    0    0  501 -0.00000000000E+00  0.00000000000E+00  0.23361063804E+02  0.23361063804E+02  0.00000000000E+00 0.  1.
          2   -1    0    0  501    0  0.00000000000E+00 -0.00000000000E+00 -0.31246179113E+04  0.31246179113E+04  0.00000000000E+00 0. -1.
         23    2    1    2    0    0  0.14350645317E+03 -0.19061619233E+02 -0.28703079465E+04  0.28754081727E+04  0.91361943837E+02 0.  0.
         13    1    3    3    0    0  0.10425199668E+03 -0.15001580574E+02 -0.11942141964E+04  0.11988498960E+04  0.00000000000E+00 0. -1.
        -13    1    3    3    0    0  0.39254456486E+02 -0.40600386589E+01 -0.16760937501E+04  0.16765582768E+04  0.00000000000E+00 0.  1.
         22    1    1    2    0    0 -0.14350645317E+03  0.19061619233E+02 -0.23094890107E+03  0.27257080243E+03  0.00000000000E+00 0.  1.
<mgrwt>
<rscale>  0 0.54034951E+03</rscale>
<asrwt>0</asrwt>
<pdfrwt beam="1">  1        2 0.48071018E+00 0.54034951E+03</pdfrwt>
<pdfrwt beam="2">  1       -2 0.35940118E-02 0.54034951E+03</pdfrwt>
<totfact> 0.54130906E+02</totfact>
</mgrwt>
</event>
<event>
 6    1  0.1001928E-005  0.5375626E+03  0.7818608E-02  0.1004414E+00
         -1   -1    0    0    0  501 -0.00000000000E+00  0.00000000000E+00  0.66251590565E+02  0.66251590565E+02  0.00000000000E+00 0.  1.
          1   -1    0    0  501    0  0.00000000000E+00 -0.00000000000E+00 -0.10904398757E+04  0.10904398757E+04  0.00000000000E+00 0. -1.
         23    2    1    2    0    0 -0.21245602814E+03  0.14942550800E+03 -0.58115080921E+03  0.64312769086E+03  0.91713779605E+02 0.  0.
         13    1    3    3    0    0 -0.36939563517E+02 -0.54280714104E+01 -0.47615556175E+02  0.60508152359E+02  0.00000000000E+00 0. -1.
        -13    1    3    3    0    0 -0.17551646462E+03  0.15485357941E+03 -0.53353525304E+03  0.58261953850E+03  0.00000000000E+00 0.  1.
         22    1    1    2    0    0  0.21245602814E+03 -0.14942550800E+03 -0.44303747591E+03  0.51356377539E+03  0.00000000000E+00 0.  1.
<mgrwt>
<rscale>  0 0.53756256E+03</rscale>
<asrwt>0</asrwt>
<pdfrwt beam="1">  1        1 0.16775998E+00 0.53756256E+03</pdfrwt>
<pdfrwt beam="2">  1       -1 0.10192553E-01 0.53756256E+03</pdfrwt>
<totfact> 0.80261002E+02</totfact>
</mgrwt>
</event>
<event>
 6    1  0.1001928E-005  0.2748610E+04  0.7818608E-02  0.8319403E-01
         -1   -1    0    0    0  501 -0.00000000000E+00  0.00000000000E+00  0.62891379171E+03  0.62891379171E+03  0.00000000000E+00 0.  1.
          1   -1    0    0  501    0  0.00000000000E+00 -0.00000000000E+00 -0.30031362046E+04  0.30031362046E+04  0.00000000000E+00 0. -1.
         23    2    1    2    0    0  0.45551331987E+03  0.42612538610E+03 -0.28043741160E+04  0.28743523541E+04  0.91170412577E+02 0.  0.
         13    1    3    3    0    0  0.21141790174E+03  0.24596317215E+03 -0.15805554907E+04  0.16134903378E+04  0.00000000000E+00 0. -1.
        -13    1    3    3    0    0  0.24409541814E+03  0.18016221395E+03 -0.12238186253E+04  0.12608620163E+04  0.00000000000E+00 0.  1.
         22    1    1    2    0    0 -0.45551331987E+03 -0.42612538610E+03  0.43015170310E+03  0.75769764216E+03  0.00000000000E+00 0.  1.
<mgrwt>
<rscale>  0 0.27486097E+04</rscale>
<asrwt>0</asrwt>
<pdfrwt beam="1">  1        1 0.46202097E+00 0.27486097E+04</pdfrwt>
<pdfrwt beam="2">  1       -1 0.96755966E-01 0.27486097E+04</pdfrwt>
<totfact> 0.53092019E-01</totfact>
</mgrwt>
</event>
<event>
 6    1  0.1001928E-005  0.3623628E+04  0.7818608E-02  0.8085101E-01
         -2   -1    0    0    0  501 -0.00000000000E+00  0.00000000000E+00  0.11635962191E+04  0.11635962191E+04  0.00000000000E+00 0.  1.
          2   -1    0    0  501    0  0.00000000000E+00 -0.00000000000E+00 -0.28211416010E+04  0.28211416010E+04  0.00000000000E+00 0. -1.
         23    2    1    2    0    0  0.75668473072E+03 -0.14863935530E+04 -0.16042829936E+04  0.23159734694E+04  0.89842146391E+02 0.  0.
         13    1    3    3    0    0  0.54120179186E+03 -0.97266307391E+03 -0.10545825405E+04  0.15333353090E+04  0.00000000000E+00 0.  1.
        -13    1    3    3    0    0  0.21548293886E+03 -0.51373047907E+03 -0.54970045305E+03  0.78263816042E+03  0.00000000000E+00 0. -1.
         22    1    1    2    0    0 -0.75668473072E+03  0.14863935530E+04 -0.53262388326E+02  0.16687643507E+04  0.00000000000E+00 0.  1.
<mgrwt>
<rscale>  0 0.36236279E+04</rscale>
<asrwt>0</asrwt>
<pdfrwt beam="1">  1        2 0.43402178E+00 0.36236279E+04</pdfrwt>
<pdfrwt beam="2">  1       -2 0.17901481E+00 0.36236279E+04</pdfrwt>
<totfact> 0.33626611E-01</totfact>
</mgrwt>
</event>
<event>
 6    1  0.1001928E-005  0.2064196E+04  0.7818608E-02  0.8577181E-01
          3   -1    0    0  501    0  0.00000000000E+00  0.00000000000E+00  0.80424386321E+03  0.80424386321E+03  0.00000000000E+00 0. -1.
         -3   -1    0    0    0  501 -0.00000000000E+00 -0.00000000000E+00 -0.13245064571E+04  0.13245064571E+04  0.00000000000E+00 0.  1.
         23    2    1    2    0    0 -0.71764026361E+03 -0.38563238125E+03  0.38939597252E+03  0.90760389629E+03  0.91628203813E+02 0.  0.
         11    1    3    3    0    0 -0.45137967479E+03 -0.24198614257E+03  0.29319741619E+03  0.59014034676E+03  0.00000000000E+00 0.  1.
        -11    1    3    3    0    0 -0.26626058882E+03 -0.14364623867E+03  0.96198556325E+02  0.31746354954E+03  0.00000000000E+00 0. -1.
         22    1    1    2    0    0  0.71764026361E+03  0.38563238125E+03 -0.90965856639E+03  0.12211464240E+04  0.00000000000E+00 0.  1.
<mgrwt>
<rscale>  0 0.20641959E+04</rscale>
<asrwt>0</asrwt>
<pdfrwt beam="1">  1        3 0.12372982E+00 0.20641959E+04</pdfrwt>
<pdfrwt beam="2">  1       -3 0.20377022E+00 0.20641959E+04</pdfrwt>
<totfact> 0.17586541E-01</totfact>
</mgrwt>
</event>
<event>
 6    1  0.1432184E-005  0.3409153E+04  0.7818608E-02  0.8135663E-01
         -2   -1    0    0    0  501 -0.00000000000E+00  0.00000000000E+00  0.18991007869E+04  0.18991007869E+04  0.00000000000E+00 0.  1.
          2   -1    0    0  501    0  0.00000000000E+00 -0.00000000000E+00 -0.15299776841E+04  0.15299776841E+04  0.00000000000E+00 0. -1.
         23    2    1    2    0    0 -0.54127853269E+03  0.16152907132E+04  0.20811783539E+03  0.17179182698E+04  0.76050050179E+02 0.  0.
         13    1    3    3    0    0 -0.32853996862E+03  0.10779079345E+04  0.15603054957E+03  0.11376157342E+04  0.00000000000E+00 0.  1.
        -13    1    3    3    0    0 -0.21273856407E+03  0.53738277866E+03  0.52087285817E+02  0.58030253556E+03  0.00000000000E+00 0. -1.
         22    1    1    2    0    0  0.54127853269E+03 -0.16152907132E+04  0.16100526738E+03  0.17111602012E+04  0.00000000000E+00 0. -1.
<mgrwt>
<rscale>  0 0.34091535E+04</rscale>
<asrwt>0</asrwt>
<pdfrwt beam="1">  1        2 0.23538118E+00 0.34091535E+04</pdfrwt>
<pdfrwt beam="2">  1       -2 0.29216935E+00 0.34091535E+04</pdfrwt>
<totfact> 0.35865862E-01</totfact>
</mgrwt>
</event>
<event>
 6    1  0.1001928E-005  0.3179059E+04  0.7818608E-02  0.8194370E-01
         -1   -1    0    0    0  501 -0.00000000000E+00  0.00000000000E+00  0.56977376200E+03  0.56977376200E+03  0.00000000000E+00 0.  1.
          1   -1    0    0  501    0  0.00000000000E+00 -0.00000000000E+00 -0.44343995849E+04  0.44343995849E+04  0.00000000000E+00 0. -1.
         23    2    1    2    0    0  0.32852733180E+03  0.67415130781E+03 -0.41376592880E+04  0.42060771956E+04  0.91928223317E+02 0.  0.
         11    1    3    3    0    0  0.21935032187E+03  0.53192387066E+03 -0.30657770037E+04  0.31193021983E+04  0.00000000000E+00 0.  1.
        -11    1    3    3    0    0  0.10917700994E+03  0.14222743715E+03 -0.10718822843E+04  0.10867749973E+04  0.00000000000E+00 0. -1.
         22    1    1    2    0    0 -0.32852733180E+03 -0.67415130781E+03  0.27303346514E+03  0.79809615126E+03  0.00000000000E+00 0.  1.
<mgrwt>
<rscale>  0 0.31790593E+04</rscale>
<asrwt>0</asrwt>
<pdfrwt beam="1">  1        1 0.68221533E+00 0.31790593E+04</pdfrwt>
<pdfrwt beam="2">  1       -1 0.87657501E-01 0.31790593E+04</pdfrwt>
<totfact> 0.40219023E-02</totfact>
</mgrwt>
</event>
<event>
 6    1  0.1001928E-005  0.3207659E+04  0.7818608E-02  0.8186798E-01
          2   -1    0    0  501    0  0.00000000000E+00  0.00000000000E+00  0.23199674249E+04  0.23199674249E+04  0.00000000000E+00 0. -1.
         -2   -1    0    0    0  501 -0.00000000000E+00 -0.00000000000E+00 -0.11087518991E+04  0.11087518991E+04  0.00000000000E+00 0.  1.
         23    2    1    2    0    0 -0.69271163562E+03 -0.11912315217E+04 -0.26856832404E+03  0.14066802070E+04  0.87967674223E+02 0.  0.
         11    1    3    3    0    0 -0.58472578561E+03 -0.93956708538E+03 -0.22681395511E+03  0.11296615079E+04  0.00000000000E+00 0. -1.
        -11    1    3    3    0    0 -0.10798585001E+03 -0.25166443634E+03 -0.41754368926E+02  0.27701869909E+03  0.00000000000E+00 0.  1.
         22    1    1    2    0    0  0.69271163562E+03  0.11912315217E+04  0.14797838498E+04  0.20220391170E+04  0.00000000000E+00 0.  1.
<mgrwt>
<rscale>  0 0.32076585E+04</rscale>
<asrwt>0</asrwt>
<pdfrwt beam="1">  1        2 0.35691807E+00 0.32076585E+04</pdfrwt>
<pdfrwt beam="2">  1       -2 0.17057722E+00 0.32076585E+04</pdfrwt>
<totfact> 0.78466536E-01</totfact>
</mgrwt>
</event>
<event>
 6    1  0.1001928E-005  0.1947935E+04  0.7818608E-02  0.8631357E-01
          1   -1    0    0  501    0  0.00000000000E+00  0.00000000000E+00  0.92967375129E+03  0.92967375129E+03  0.00000000000E+00 0. -1.
         -1   -1    0    0    0  501 -0.00000000000E+00 -0.00000000000E+00 -0.10203717864E+04  0.10203717864E+04  0.00000000000E+00 0.  1.
         23    2    1    2    0    0  0.71848570234E+03 -0.28200330052E+03  0.54504391079E+03  0.95008784472E+03  0.99229441327E+02 0.  0.
         13    1    3    3    0    0  0.52672043767E+02 -0.51168773369E+02  0.55253629621E+02  0.91899679809E+02  0.00000000000E+00 0. -1.
        -13    1    3    3    0    0  0.66581365857E+03 -0.23083452715E+03  0.48979028117E+03  0.85818816491E+03  0.00000000000E+00 0.  1.
         22    1    1    2    0    0 -0.71848570234E+03  0.28200330052E+03 -0.63574194592E+03  0.99995769299E+03  0.00000000000E+00 0.  1.
<mgrwt>
<rscale>  0 0.19479352E+04</rscale>
<asrwt>0</asrwt>
<pdfrwt beam="1">  1        1 0.14302673E+00 0.19479352E+04</pdfrwt>
<pdfrwt beam="2">  1       -1 0.15698027E+00 0.19479352E+04</pdfrwt>
<totfact> 0.49420056E+00</totfact>
</mgrwt>
</event>
<event>
 6    1  0.1001928E-005  0.2283096E+04  0.7818608E-02  0.8484616E-01
          1   -1    0    0  501    0  0.00000000000E+00  0.00000000000E+00  0.81597922995E+03  0.81597922995E+03  0.00000000000E+00 0. -1.
         -1   -1    0    0    0  501 -0.00000000000E+00 -0.00000000000E+00 -0.15970163974E+04  0.15970163974E+04  0.00000000000E+00 0.  1.
         23    2    1    2    0    0 -0.81947171219E+03  0.65721904118E+03 -0.85824764939E+03  0.13596997460E+04  0.93400301970E+02 0.  0.
         13    1    3    3    0    0 -0.25288765519E+03  0.15361296749E+03 -0.21938612359E+03  0.36834682183E+03  0.00000000000E+00 0. -1.
        -13    1    3    3    0    0 -0.56658405700E+03  0.50360607369E+03 -0.63886152581E+03  0.99135292417E+03  0.00000000000E+00 0.  1.
         22    1    1    2    0    0  0.81947171219E+03 -0.65721904118E+03  0.77210481948E+02  0.10532958814E+04  0.00000000000E+00 0. -1.
<mgrwt>
<rscale>  0 0.22830963E+04</rscale>
<asrwt>0</asrwt>
<pdfrwt beam="1">  1        1 0.12553527E+00 0.22830963E+04</pdfrwt>
<pdfrwt beam="2">  1       -1 0.24569483E+00 0.22830963E+04</pdfrwt>
<totfact> 0.14419194E+00</totfact>
</mgrwt>
</event>
<event>
 6    1  0.1001928E-005  0.1082087E+04  0.7818608E-02  0.9222829E-01
          2   -1    0    0  501    0  0.00000000000E+00  0.00000000000E+00  0.41107660561E+04  0.41107660561E+04  0.00000000000E+00 0. -1.
         -2   -1    0    0    0  501 -0.00000000000E+00 -0.00000000000E+00 -0.71210094722E+02  0.71210094722E+02  0.00000000000E+00 0.  1.
         23    2    1    2    0    0  0.75523254226E+02 -0.13708846965E+03  0.40202008420E+04  0.40242687284E+04  0.90702690851E+02 0.  0.
         13    1    3    3    0    0  0.44535477162E+02 -0.48486882860E+01  0.10964313660E+04  0.10973461891E+04  0.00000000000E+00 0. -1.
        -13    1    3    3    0    0  0.30987777065E+02 -0.13223978136E+03  0.29237694760E+04  0.29269225393E+04  0.00000000000E+00 0.  1.
         22    1    1    2    0    0 -0.75523254226E+02  0.13708846965E+03  0.19355119399E+02  0.15770742242E+03  0.00000000000E+00 0.  1.
<mgrwt>
<rscale>  0 0.10820869E+04</rscale>
<asrwt>0</asrwt>
<pdfrwt beam="1">  1        2 0.63242536E+00 0.10820869E+04</pdfrwt>
<pdfrwt beam="2">  1       -2 0.10955402E-01 0.10820869E+04</pdfrwt>
<totfact> 0.17229269E+01</totfact>
</mgrwt>
</event>
<event>
 6    1  0.1001928E-005  0.1053458E+04  0.7818608E-02  0.9251781E-01
         -1   -1    0    0    0  501 -0.00000000000E+00  0.00000000000E+00  0.19255905528E+03  0.19255905528E+03  0.00000000000E+00 0.  1.
          1   -1    0    0  501    0  0.00000000000E+00 -0.00000000000E+00 -0.14408218820E+04  0.14408218820E+04  0.00000000000E+00 0. -1.
         23    2    1    2    0    0  0.17676501076E+03 -0.20344616708E+03 -0.13238779069E+04  0.13534633561E+04  0.81081020827E+02 0.  0.
         11    1    3    3    0    0  0.10614854454E+03 -0.13280226434E+03 -0.63431313625E+03  0.65670169007E+03  0.00000000000E+00 0. -1.
        -11    1    3    3    0    0  0.70616466216E+02 -0.70643902741E+02 -0.68956477063E+03  0.69676166599E+03  0.00000000000E+00 0.  1.
         22    1    1    2    0    0 -0.17676501076E+03  0.20344616708E+03  0.75615080156E+02  0.27991758122E+03  0.00000000000E+00 0.  1.
<mgrwt>
<rscale>  0 0.10534577E+04</rscale>
<asrwt>0</asrwt>
<pdfrwt beam="1">  1        1 0.22166489E+00 0.10534577E+04</pdfrwt>
<pdfrwt beam="2">  1       -1 0.29624471E-01 0.10534577E+04</pdfrwt>
<totfact> 0.74961166E+01</totfact>
</mgrwt>
</event>
<event>
 6    1  0.1001928E-005  0.2086269E+04  0.7818608E-02  0.8567316E-01
          1   -1    0    0  501    0  0.00000000000E+00  0.00000000000E+00  0.28912754756E+04  0.28912754756E+04  0.00000000000E+00 0. -1.
         -1   -1    0    0    0  501 -0.00000000000E+00 -0.00000000000E+00 -0.37634945320E+03  0.37634945320E+03  0.00000000000E+00 0.  1.
         23    2    1    2    0    0 -0.24793720943E+03 -0.88511331345E+03  0.20257437104E+04  0.22263767490E+04  0.90649936321E+02 0.  0.
         13    1    3    3    0    0 -0.94601292647E+02 -0.44889300188E+03  0.10908203719E+04  0.11833610672E+04  0.00000000000E+00 0. -1.
        -13    1    3    3    0    0 -0.15333591679E+03 -0.43622031157E+03  0.93492333856E+03  0.10430156818E+04  0.00000000000E+00 0.  1.
         22    1    1    2    0    0  0.24793720943E+03  0.88511331345E+03  0.48918231200E+03  0.10412481798E+04  0.00000000000E+00 0.  1.
<mgrwt>
<rscale>  0 0.20862693E+04</rscale>
<asrwt>0</asrwt>
<pdfrwt beam="1">  1        1 0.44481160E+00 0.20862693E+04</pdfrwt>
<pdfrwt beam="2">  1       -1 0.57899918E-01 0.20862693E+04</pdfrwt>
<totfact> 0.19966489E+00</totfact>
</mgrwt>
</event>
<event>
 6    1  0.1001928E-005  0.2840404E+04  0.7818608E-02  0.8290833E-01
          2   -1    0    0  501    0  0.00000000000E+00  0.00000000000E+00  0.14307620953E+04  0.14307620953E+04  0.00000000000E+00 0. -1.
         -2   -1    0    0    0  501 -0.00000000000E+00 -0.00000000000E+00 -0.14097193670E+04  0.14097193670E+04  0.00000000000E+00 0.  1.
         23    2    1    2    0    0 -0.96323683006E+03  0.36841803261E+03 -0.96380740133E+03  0.14144776702E+04  0.90913887844E+02 0.  0.
         11    1    3    3    0    0 -0.55032023914E+03  0.16421123728E+03 -0.55276560359E+03  0.79709943455E+03  0.00000000000E+00 0. -1.
        -11    1    3    3    0    0 -0.41291659092E+03  0.20420679533E+03 -0.41104179774E+03  0.61737823561E+03  0.00000000000E+00 0.  1.
         22    1    1    2    0    0  0.96323683006E+03 -0.36841803261E+03  0.98485012959E+03  0.14260037922E+04  0.00000000000E+00 0. -1.
<mgrwt>
<rscale>  0 0.28404035E+04</rscale>
<asrwt>0</asrwt>
<pdfrwt beam="1">  1        2 0.22011725E+00 0.28404035E+04</pdfrwt>
<pdfrwt beam="2">  1       -2 0.21687990E+00 0.28404035E+04</pdfrwt>
<totfact> 0.12469045E+00</totfact>
</mgrwt>
</event>
<event>
 6    1  0.1001928E-005  0.3277792E+04  0.7818608E-02  0.8168569E-01
          2   -1    0    0  501    0  0.00000000000E+00  0.00000000000E+00  0.27390509024E+04  0.27390509024E+04  0.00000000000E+00 0. -1.
         -2   -1    0    0    0  501 -0.00000000000E+00 -0.00000000000E+00 -0.98062443392E+03  0.98062443392E+03  0.00000000000E+00 0.  1.
         23    2    1    2    0    0 -0.25678235050E+03 -0.85545101831E+03 -0.67801356205E+03  0.11246852318E+04  0.86491965002E+02 0.  0.
         11    1    3    3    0    0 -0.23270435779E+03 -0.64991309495E+03 -0.51542259768E+03  0.86150960721E+03  0.00000000000E+00 0.  1.
        -11    1    3    3    0    0 -0.24077992705E+02 -0.20553792336E+03 -0.16259096437E+03  0.26317562457E+03  0.00000000000E+00 0. -1.
         22    1    1    2    0    0  0.25678235050E+03  0.85545101831E+03  0.24364400306E+04  0.25949901046E+04  0.00000000000E+00 0. -1.
<mgrwt>
<rscale>  0 0.32777921E+04</rscale>
<asrwt>0</asrwt>
<pdfrwt beam="1">  1        2 0.42139244E+00 0.32777921E+04</pdfrwt>
<pdfrwt beam="2">  1       -2 0.15086530E+00 0.32777921E+04</pdfrwt>
<totfact> 0.62105587E-01</totfact>
</mgrwt>
</event>
<event>
 6    1  0.1001928E-005  0.1250863E+04  0.7818608E-02  0.9069465E-01
         -1   -1    0    0    0  501 -0.00000000000E+00  0.00000000000E+00  0.20025800719E+03  0.20025800719E+03  0.00000000000E+00 0.  1.
          1   -1    0    0  501    0  0.00000000000E+00 -0.00000000000E+00 -0.19533025293E+04  0.19533025293E+04  0.00000000000E+00 0. -1.
         23    2    1    2    0    0  0.36887603508E+03 -0.21784771289E+03 -0.10480985513E+03  0.45056180697E+03  0.92161168080E+02 0.  0.
         11    1    3    3    0    0  0.27910960334E+03 -0.11761370219E+03 -0.60179499912E+02  0.30879884363E+03  0.00000000000E+00 0. -1.
        -11    1    3    3    0    0  0.89766431744E+02 -0.10023401070E+03 -0.44630355213E+02  0.14176296334E+03  0.00000000000E+00 0.  1.
         22    1    1    2    0    0 -0.36887603508E+03  0.21784771289E+03 -0.16482346670E+04  0.17029987295E+04  0.00000000000E+00 0. -1.
<mgrwt>
<rscale>  0 0.12508629E+04</rscale>
<asrwt>0</asrwt>
<pdfrwt beam="1">  1        1 0.30050809E+00 0.12508629E+04</pdfrwt>
<pdfrwt beam="2">  1       -1 0.30808923E-01 0.12508629E+04</pdfrwt>
<totfact> 0.30818083E+01</totfact>
</mgrwt>
</event>
<event>
 6    1  0.1049532E-005  0.2371275E+04  0.7818608E-02  0.8450337E-01
         -2   -1    0    0    0  501 -0.00000000000E+00  0.00000000000E+00  0.84935509248E+03  0.84935509248E+03  0.00000000000E+00 0.  1.
          2   -1    0    0  501    0  0.00000000000E+00 -0.00000000000E+00 -0.16550631859E+04  0.16550631859E+04  0.00000000000E+00 0. -1.
         23    2    1    2    0    0 -0.60819220713E+03 -0.57138530143E+03 -0.12906015888E+04  0.15392754779E+04  0.85659863915E+02 0.  0.
         13    1    3    3    0    0 -0.20340005053E+03 -0.20263430330E+03 -0.51903680230E+03  0.59315381106E+03  0.00000000000E+00 0.  1.
        -13    1    3    3    0    0 -0.40479215660E+03 -0.36875099813E+03 -0.77156478654E+03  0.94612166686E+03  0.00000000000E+00 0. -1.
         22    1    1    2    0    0  0.60819220713E+03  0.57138530143E+03  0.48489349538E+03  0.96514280050E+03  0.00000000000E+00 0.  1.
<mgrwt>
<rscale>  0 0.23712751E+04</rscale>
<asrwt>0</asrwt>
<pdfrwt beam="1">  1        2 0.25462511E+00 0.23712751E+04</pdfrwt>
<pdfrwt beam="2">  1       -2 0.13067001E+00 0.23712751E+04</pdfrwt>
<totfact> 0.40147786E+00</totfact>
</mgrwt>
</event>
<event>
 6    1  0.1001928E-005  0.3394562E+04  0.7818608E-02  0.8139242E-01
          2   -1    0    0  501    0  0.00000000000E+00  0.00000000000E+00  0.24143107465E+04  0.24143107465E+04  0.00000000000E+00 0.  1.
         -2   -1    0    0    0  501 -0.00000000000E+00 -0.00000000000E+00 -0.11932029118E+04  0.11932029118E+04  0.00000000000E+00 0. -1.
         23    2    1    2    0    0 -0.86809681581E+03 -0.71116632684E+03 -0.74052576301E+03  0.13475676418E+04  0.90611905321E+02 0.  0.
         11    1    3    3    0    0 -0.59587999060E+03 -0.43514623739E+03 -0.50105055999E+03  0.89189510301E+03  0.00000000000E+00 0. -1.
        -11    1    3    3    0    0 -0.27221682522E+03 -0.27602008944E+03 -0.23947520302E+03  0.45567253875E+03  0.00000000000E+00 0.  1.
         22    1    1    2    0    0  0.86809681581E+03  0.71116632684E+03  0.19616335977E+04  0.22599460165E+04  0.00000000000E+00 0.  1.
<mgrwt>
<rscale>  0 0.33945619E+04</rscale>
<asrwt>0</asrwt>
<pdfrwt beam="1">  1        2 0.37143242E+00 0.33945619E+04</pdfrwt>
<pdfrwt beam="2">  1       -2 0.18356968E+00 0.33945619E+04</pdfrwt>
<totfact> 0.55399563E-01</totfact>
</mgrwt>
</event>
<event>
 6    1  0.1001928E-005  0.2343247E+04  0.7818608E-02  0.8461062E-01
          2   -1    0    0  501    0  0.00000000000E+00  0.00000000000E+00  0.16940658675E+04  0.16940658675E+04  0.00000000000E+00 0. -1.
         -2   -1    0    0    0  501 -0.00000000000E+00 -0.00000000000E+00 -0.81030003217E+03  0.81030003217E+03  0.00000000000E+00 0.  1.
         23    2    1    2    0    0  0.92694500312E+03 -0.70786933731E+03  0.34513525034E+03  0.12196756862E+04  0.90467679003E+02 0.  0.
         13    1    3    3    0    0  0.63838593467E+03 -0.43368708414E+03  0.23031371472E+03  0.80539772517E+03  0.00000000000E+00 0. -1.
        -13    1    3    3    0    0  0.28855906845E+03 -0.27418225318E+03  0.11482153562E+03  0.41427796102E+03  0.00000000000E+00 0.  1.
         22    1    1    2    0    0 -0.92694500312E+03  0.70786933731E+03  0.53863058500E+03  0.12846902135E+04  0.00000000000E+00 0. -1.
<mgrwt>
<rscale>  0 0.23432470E+04</rscale>
<asrwt>0</asrwt>
<pdfrwt beam="1">  1        2 0.26062552E+00 0.23432470E+04</pdfrwt>
<pdfrwt beam="2">  1       -2 0.12466154E+00 0.23432470E+04</pdfrwt>
<totfact> 0.43103087E+00</totfact>
</mgrwt>
</event>
<event>
 6    1  0.1001928E-005  0.1955751E+04  0.7818608E-02  0.8627592E-01
         -2   -1    0    0    0  501 -0.00000000000E+00  0.00000000000E+00  0.62377839908E+03  0.62377839908E+03  0.00000000000E+00 0.  1.
          2   -1    0    0  501    0  0.00000000000E+00 -0.00000000000E+00 -0.15329814242E+04  0.15329814242E+04  0.00000000000E+00 0. -1.
         23    2    1    2    0    0 -0.58107258760E+03 -0.76990310823E+03 -0.61777815930E+03  0.11491266556E+04  0.91902494203E+02 0.  0.
         13    1    3    3    0    0 -0.27526677446E+03 -0.42638665820E+03 -0.29207965690E+03  0.58556631169E+03  0.00000000000E+00 0. -1.
        -13    1    3    3    0    0 -0.30580581314E+03 -0.34351645003E+03 -0.32569850239E+03  0.56356034393E+03  0.00000000000E+00 0.  1.
         22    1    1    2    0    0  0.58107258760E+03  0.76990310823E+03 -0.29142486582E+03  0.10076331676E+04  0.00000000000E+00 0. -1.
<mgrwt>
<rscale>  0 0.19557512E+04</rscale>
<asrwt>0</asrwt>
<pdfrwt beam="1">  1        2 0.23584330E+00 0.19557512E+04</pdfrwt>
<pdfrwt beam="2">  1       -2 0.95965908E-01 0.19557512E+04</pdfrwt>
<totfact> 0.10321457E+01</totfact>
</mgrwt>
</event>
<event>
 6    1  0.1001928E-005  0.5759533E+04  0.7818608E-02  0.7720953E-01
          1   -1    0    0  501    0  0.00000000000E+00  0.00000000000E+00  0.29949379379E+04  0.29949379379E+04  0.00000000000E+00 0. -1.
         -1   -1    0    0    0  501 -0.00000000000E+00 -0.00000000000E+00 -0.27690244458E+04  0.27690244458E+04  0.00000000000E+00 0.  1.
         23    2    1    2    0    0 -0.12183957561E+04 -0.14146416857E+04  0.23062823271E+04  0.29686745976E+04  0.91604455648E+02 0.  0.
         11    1    3    3    0    0 -0.61639900034E+03 -0.78380077953E+03  0.12471712785E+04  0.15967866443E+04  0.00000000000E+00 0.  1.
        -11    1    3    3    0    0 -0.60199675577E+03 -0.63084090618E+03  0.10591110487E+04  0.13718879533E+04  0.00000000000E+00 0. -1.
         22    1    1    2    0    0  0.12183957561E+04  0.14146416857E+04 -0.20803688351E+04  0.27952877861E+04  0.00000000000E+00 0.  1.
<mgrwt>
<rscale>  0 0.57595334E+04</rscale>
<asrwt>0</asrwt>
<pdfrwt beam="1">  1        1 0.46075968E+00 0.57595334E+04</pdfrwt>
<pdfrwt beam="2">  1       -1 0.42600376E+00 0.57595334E+04</pdfrwt>
<totfact> 0.19475386E-03</totfact>
</mgrwt>
</event>
<event>
 6    1  0.1001928E-005  0.3099055E+04  0.7818608E-02  0.8215997E-01
         -2   -1    0    0    0  501 -0.00000000000E+00  0.00000000000E+00  0.61308476283E+03  0.61308476283E+03  0.00000000000E+00 0.  1.
          2   -1    0    0  501    0  0.00000000000E+00 -0.00000000000E+00 -0.39163195501E+04  0.39163195501E+04  0.00000000000E+00 0. -1.
         23    2    1    2    0    0  0.36283068150E+03  0.80805709937E+03  0.20273180124E+03  0.91327321755E+03  0.91462600954E+02 0.  0.
         13    1    3    3    0    0  0.14936067171E+03  0.30586273649E+03  0.33883338147E+02  0.34206535111E+03  0.00000000000E+00 0. -1.
        -13    1    3    3    0    0  0.21347000979E+03  0.50219436288E+03  0.16884846310E+03  0.57120786644E+03  0.00000000000E+00 0.  1.
         22    1    1    2    0    0 -0.36283068150E+03 -0.80805709937E+03 -0.35059665885E+04  0.36161310954E+04  0.00000000000E+00 0. -1.
<mgrwt>
<rscale>  0 0.30990552E+04</rscale>
<asrwt>0</asrwt>
<pdfrwt beam="1">  1        2 0.60251067E+00 0.30990552E+04</pdfrwt>
<pdfrwt beam="2">  1       -2 0.94320737E-01 0.30990552E+04</pdfrwt>
<totfact> 0.32079809E-01</totfact>
</mgrwt>
</event>
<event>
 6    1  0.1001928E-005  0.1237993E+04  0.7818608E-02  0.9080237E-01
          2   -1    0    0  501    0  0.00000000000E+00  0.00000000000E+00  0.18371402387E+04  0.18371402387E+04  0.00000000000E+00 0. -1.
         -2   -1    0    0    0  501 -0.00000000000E+00 -0.00000000000E+00 -0.20856133789E+03  0.20856133789E+03  0.00000000000E+00 0.  1.
         23    2    1    2    0    0  0.29391298989E+03 -0.43155527494E+03  0.27948865804E+03  0.59909545048E+03  0.90424818839E+02 0.  0.
         11    1    3    3    0    0  0.19559948013E+03 -0.31313564806E+03  0.23946783167E+03  0.44006582817E+03  0.00000000000E+00 0. -1.
        -11    1    3    3    0    0  0.98313509754E+02 -0.11841962688E+03  0.40020826370E+02  0.15902962232E+03  0.00000000000E+00 0.  1.
         22    1    1    2    0    0 -0.29391298989E+03  0.43155527494E+03  0.13490902428E+04  0.14466061261E+04  0.00000000000E+00 0. -1.
<mgrwt>
<rscale>  0 0.12379926E+04</rscale>
<asrwt>0</asrwt>
<pdfrwt beam="1">  1        2 0.28263695E+00 0.12379926E+04</pdfrwt>
<pdfrwt beam="2">  1       -2 0.32086361E-01 0.12379926E+04</pdfrwt>
<totfact> 0.73224716E+01</totfact>
</mgrwt>
</event>
<event>
 6    1  0.1001928E-005  0.2324456E+04  0.7818608E-02  0.8468340E-01
         -1   -1    0    0    0  501 -0.00000000000E+00  0.00000000000E+00  0.12817888727E+04  0.12817888727E+04  0.00000000000E+00 0.  1.
          1   -1    0    0  501    0  0.00000000000E+00 -0.00000000000E+00 -0.10538197683E+04  0.10538197683E+04  0.00000000000E+00 0. -1.
         23    2    1    2    0    0 -0.11448982437E+04 -0.16359829155E+03  0.20992238381E+03  0.11789401174E+04  0.90972543010E+02 0.  0.
         13    1    3    3    0    0 -0.57696311868E+02 -0.17010027821E+02 -0.73267595600E+01  0.60596096040E+02  0.00000000000E+00 0. -1.
        -13    1    3    3    0    0 -0.10872019319E+04 -0.14658826373E+03  0.21724914337E+03  0.11183440213E+04  0.00000000000E+00 0.  1.
         22    1    1    2    0    0  0.11448982437E+04  0.16359829155E+03  0.18046720542E+02  0.11566685237E+04  0.00000000000E+00 0. -1.
<mgrwt>
<rscale>  0 0.23244565E+04</rscale>
<asrwt>0</asrwt>
<pdfrwt beam="1">  1        1 0.16212612E+00 0.23244565E+04</pdfrwt>
<pdfrwt beam="2">  1       -1 0.19719829E+00 0.23244565E+04</pdfrwt>
<totfact> 0.19512898E+00</totfact>
</mgrwt>
</event>
<event>
 6    1  0.1001928E-005  0.1342624E+04  0.7818608E-02  0.8996430E-01
          2   -1    0    0  501    0  0.00000000000E+00  0.00000000000E+00  0.42250396665E+03  0.42250396665E+03  0.00000000000E+00 0. -1.
         -2   -1    0    0    0  501 -0.00000000000E+00 -0.00000000000E+00 -0.10666410431E+04  0.10666410431E+04  0.00000000000E+00 0.  1.
         23    2    1    2    0    0  0.36092591695E+03 -0.31151957600E+03  0.19452965840E+03  0.52443061891E+03  0.99366605537E+02 0.  0.
         13    1    3    3    0    0  0.26470172890E+03 -0.24423006790E+03  0.18934308063E+03  0.40689818570E+03  0.00000000000E+00 0. -1.
        -13    1    3    3    0    0  0.96224188049E+02 -0.67289508099E+02  0.51865777750E+01  0.11753243320E+03  0.00000000000E+00 0.  1.
         22    1    1    2    0    0 -0.36092591695E+03  0.31151957600E+03 -0.83866673484E+03  0.96471439083E+03  0.00000000000E+00 0.  1.
<mgrwt>
<rscale>  0 0.13426244E+04</rscale>
<asrwt>0</asrwt>
<pdfrwt beam="1">  1        2 0.65000611E-01 0.13426244E+04</pdfrwt>
<pdfrwt beam="2">  1       -2 0.16409862E+00 0.13426244E+04</pdfrwt>
<totfact> 0.17146992E+01</totfact>
</mgrwt>
</event>
<event>
 6    1  0.1001928E-005  0.1520431E+04  0.7818608E-02  0.8870979E-01
         -1   -1    0    0    0  501 -0.00000000000E+00  0.00000000000E+00  0.17469746218E+03  0.17469746218E+03  0.00000000000E+00 0.  1.
          1   -1    0    0  501    0  0.00000000000E+00 -0.00000000000E+00 -0.33081614666E+04  0.33081614666E+04  0.00000000000E+00 0. -1.
         23    2    1    2    0    0 -0.70012270503E+03  0.26652099103E+03 -0.13151210341E+04  0.15162434609E+04  0.90805603574E+02 0.  0.
         11    1    3    3    0    0 -0.24263332630E+03  0.87087819092E+02 -0.54161580783E+03  0.59983572965E+03  0.00000000000E+00 0.  1.
        -11    1    3    3    0    0 -0.45748937873E+03  0.17943317194E+03 -0.77350522622E+03  0.91640773122E+03  0.00000000000E+00 0. -1.
         22    1    1    2    0    0  0.70012270503E+03 -0.26652099103E+03 -0.18183429704E+04  0.19666154679E+04  0.00000000000E+00 0.  1.
<mgrwt>
<rscale>  0 0.15204307E+04</rscale>
<asrwt>0</asrwt>
<pdfrwt beam="1">  1        1 0.50894789E+00 0.15204307E+04</pdfrwt>
<pdfrwt beam="2">  1       -1 0.26876534E-01 0.15204307E+04</pdfrwt>
<totfact> 0.42409973E+00</totfact>
</mgrwt>
</event>
<event>
 6    1  0.1529600E-005  0.4508766E+04  0.7818608E-02  0.7909104E-01
          2   -1    0    0  501    0  0.00000000000E+00  0.00000000000E+00  0.28309187419E+04  0.28309187419E+04  0.00000000000E+00 0. -1.
         -2   -1    0    0    0  501 -0.00000000000E+00 -0.00000000000E+00 -0.17952629742E+04  0.17952629742E+04  0.00000000000E+00 0.  1.
         23    2    1    2    0    0 -0.15970065877E+04 -0.12675206889E+04 -0.46672316721E+03  0.20935583328E+04  0.90095729091E+02 0.  0.
         11    1    3    3    0    0 -0.96150696675E+03 -0.76572109388E+03 -0.32645042752E+03  0.12717681874E+04  0.00000000000E+00 0.  1.
        -11    1    3    3    0    0 -0.63549962091E+03 -0.50179959497E+03 -0.14027273969E+03  0.82179014547E+03  0.00000000000E+00 0. -1.
         22    1    1    2    0    0  0.15970065877E+04  0.12675206889E+04  0.15023789349E+04  0.25326233833E+04  0.00000000000E+00 0. -1.
<mgrwt>
<rscale>  0 0.45087664E+04</rscale>
<asrwt>0</asrwt>
<pdfrwt beam="1">  1        2 0.43552596E+00 0.45087664E+04</pdfrwt>
<pdfrwt beam="2">  1       -2 0.27619430E+00 0.45087664E+04</pdfrwt>
<totfact> 0.74473929E-02</totfact>
</mgrwt>
</event>
<event>
 6    1  0.1001928E-005  0.2875034E+04  0.7818608E-02  0.8280345E-01
         -1   -1    0    0    0  501 -0.00000000000E+00  0.00000000000E+00  0.10913714259E+04  0.10913714259E+04  0.00000000000E+00 0.  1.
          1   -1    0    0  501    0  0.00000000000E+00 -0.00000000000E+00 -0.18934479441E+04  0.18934479441E+04  0.00000000000E+00 0. -1.
         23    2    1    2    0    0  0.11368072389E+04  0.36695083320E+03  0.42589788327E+03  0.12716630014E+04  0.93563720900E+02 0.  0.
         13    1    3    3    0    0  0.76440796904E+03  0.27022818442E+03  0.24860996151E+03  0.84802696169E+03  0.00000000000E+00 0. -1.
        -13    1    3    3    0    0  0.37239926985E+03  0.96722648781E+02  0.17728792176E+03  0.42363603975E+03  0.00000000000E+00 0.  1.
         22    1    1    2    0    0 -0.11368072389E+04 -0.36695083320E+03 -0.12279744015E+04  0.17131563685E+04  0.00000000000E+00 0. -1.
<mgrwt>
<rscale>  0 0.28750339E+04</rscale>
<asrwt>0</asrwt>
<pdfrwt beam="1">  1        1 0.29129968E+00 0.28750339E+04</pdfrwt>
<pdfrwt beam="2">  1       -1 0.16790330E+00 0.28750339E+04</pdfrwt>
<totfact> 0.77206449E-01</totfact>
</mgrwt>
</event>
<event>
 6    1  0.1001928E-005  0.1044958E+04  0.7818608E-02  0.9260566E-01
         -1   -1    0    0    0  501 -0.00000000000E+00  0.00000000000E+00  0.16673022958E+03  0.16673022958E+03  0.00000000000E+00 0.  1.
          1   -1    0    0  501    0  0.00000000000E+00 -0.00000000000E+00 -0.16372799305E+04  0.16372799305E+04  0.00000000000E+00 0. -1.
         23    2    1    2    0    0 -0.10561172856E+03  0.33288846397E+03 -0.79508472483E+02  0.36979808864E+03  0.91980772522E+02 0.  0.
         13    1    3    3    0    0 -0.45161056230E+02  0.68731176368E+02  0.13405359932E+02  0.83325862009E+02  0.00000000000E+00 0. -1.
        -13    1    3    3    0    0 -0.60450672333E+02  0.26415728760E+03 -0.92913832416E+02  0.28647222663E+03  0.00000000000E+00 0.  1.
         22    1    1    2    0    0  0.10561172856E+03 -0.33288846397E+03 -0.13910412284E+04  0.14342120714E+04  0.00000000000E+00 0. -1.
<mgrwt>
<rscale>  0 0.10449575E+04</rscale>
<asrwt>0</asrwt>
<pdfrwt beam="1">  1        1 0.25188923E+00 0.10449575E+04</pdfrwt>
<pdfrwt beam="2">  1       -1 0.25650804E-01 0.10449575E+04</pdfrwt>
<totfact> 0.70539105E+01</totfact>
</mgrwt>
</event>
<event>
 6    1  0.1001928E-005  0.2419347E+04  0.7818608E-02  0.8432296E-01
          1   -1    0    0  501    0  0.00000000000E+00  0.00000000000E+00  0.42519433081E+04  0.42519433081E+04  0.00000000000E+00 0. -1.
         -1   -1    0    0    0  501 -0.00000000000E+00 -0.00000000000E+00 -0.34415076621E+03  0.34415076621E+03  0.00000000000E+00 0.  1.
         23    2    1    2    0    0 -0.38561007896E+03 -0.11068777151E+04  0.25100319792E+04  0.27719208370E+04  0.97011239953E+02 0.  0.
         11    1    3    3    0    0 -0.24322478305E+03 -0.77301360607E+03  0.16429560087E+04  0.18319423508E+04  0.00000000000E+00 0.  1.
        -11    1    3    3    0    0 -0.14238529591E+03 -0.33386410903E+03  0.86707597052E+03  0.93997848616E+03  0.00000000000E+00 0. -1.
         22    1    1    2    0    0  0.38561007896E+03  0.11068777151E+04  0.13977605627E+04  0.18241732373E+04  0.00000000000E+00 0. -1.
<mgrwt>
<rscale>  0 0.24193466E+04</rscale>
<asrwt>0</asrwt>
<pdfrwt beam="1">  1        1 0.65414509E+00 0.24193466E+04</pdfrwt>
<pdfrwt beam="2">  1       -1 0.52946275E-01 0.24193466E+04</pdfrwt>
<totfact> 0.18275190E-01</totfact>
</mgrwt>
</event>
<event>
 6    1  0.1001928E-005  0.2034979E+04  0.7818608E-02  0.8590439E-01
         -1   -1    0    0    0  501 -0.00000000000E+00  0.00000000000E+00  0.16602125376E+04  0.16602125376E+04  0.00000000000E+00 0.  1.
          1   -1    0    0  501    0  0.00000000000E+00 -0.00000000000E+00 -0.62358547471E+03  0.62358547471E+03  0.00000000000E+00 0. -1.
         23    2    1    2    0    0  0.82917766016E+03  0.10761482745E+03  0.11659766069E+04  0.14377200917E+04  0.91766393587E+02 0.  0.
         11    1    3    3    0    0  0.13317630160E+03  0.17859037751E+02  0.24996958585E+03  0.28379511339E+03  0.00000000000E+00 0.  1.
        -11    1    3    3    0    0  0.69600135856E+03  0.89755789703E+02  0.91600702107E+03  0.11539249783E+04  0.00000000000E+00 0. -1.
         22    1    1    2    0    0 -0.82917766016E+03 -0.10761482745E+03 -0.12934954403E+03  0.84607792060E+03  0.00000000000E+00 0. -1.
<mgrwt>
<rscale>  0 0.20349785E+04</rscale>
<asrwt>0</asrwt>
<pdfrwt beam="1">  1        1 0.95936227E-01 0.20349785E+04</pdfrwt>
<pdfrwt beam="2">  1       -1 0.25541731E+00 0.20349785E+04</pdfrwt>
<totfact> 0.19245620E+00</totfact>
</mgrwt>
</event>
<event>
 6    1  0.1001928E-005  0.1380381E+04  0.7818608E-02  0.8968143E-01
         -1   -1    0    0    0  501 -0.00000000000E+00  0.00000000000E+00  0.60628862018E+03  0.60628862018E+03  0.00000000000E+00 0.  1.
          1   -1    0    0  501    0  0.00000000000E+00 -0.00000000000E+00 -0.78570370790E+03  0.78570370790E+03  0.00000000000E+00 0. -1.
         23    2    1    2    0    0  0.18618378478E+03 -0.65702678956E+03 -0.13018399915E+02  0.68911505457E+03  0.91441105532E+02 0.  0.
         11    1    3    3    0    0  0.17814653090E+03 -0.48350440978E+03 -0.86650335936E+01  0.51535209668E+03  0.00000000000E+00 0.  1.
        -11    1    3    3    0    0  0.80372538805E+01 -0.17352237978E+03 -0.43533663210E+01  0.17376295789E+03  0.00000000000E+00 0. -1.
         22    1    1    2    0    0 -0.18618378478E+03  0.65702678956E+03 -0.16639668781E+03  0.70287727352E+03  0.00000000000E+00 0. -1.
<mgrwt>
<rscale>  0 0.13803814E+04</rscale>
<asrwt>0</asrwt>
<pdfrwt beam="1">  1        1 0.12087749E+00 0.13803814E+04</pdfrwt>
<pdfrwt beam="2">  1       -1 0.93275173E-01 0.13803814E+04</pdfrwt>
<totfact> 0.24805259E+01</totfact>
</mgrwt>
</event>
<event>
 6    1  0.1001928E-005  0.3971584E+04  0.7818608E-02  0.8010304E-01
         -2   -1    0    0    0  501 -0.00000000000E+00  0.00000000000E+00  0.16305391864E+04  0.16305391864E+04  0.00000000000E+00 0.  1.
          2   -1    0    0  501    0  0.00000000000E+00 -0.00000000000E+00 -0.24184447764E+04  0.24184447764E+04  0.00000000000E+00 0. -1.
         23    2    1    2    0    0 -0.13846525316E+04  0.10130279995E+04  0.62305977013E+03  0.18276529185E+04  0.92862005635E+02 0.  0.
         13    1    3    3    0    0 -0.56474834475E+03  0.46280660161E+03  0.24104477903E+03  0.76891691936E+03  0.00000000000E+00 0. -1.
        -13    1    3    3    0    0 -0.81990418686E+03  0.55022139794E+03  0.38201499110E+03  0.10587359991E+04  0.00000000000E+00 0.  1.
         22    1    1    2    0    0  0.13846525316E+04 -0.10130279995E+04 -0.14109653601E+04  0.22213310444E+04  0.00000000000E+00 0. -1.
<mgrwt>
<rscale>  0 0.39715836E+04</rscale>
<asrwt>0</asrwt>
<pdfrwt beam="1">  1        2 0.37206843E+00 0.39715836E+04</pdfrwt>
<pdfrwt beam="2">  1       -2 0.25085218E+00 0.39715836E+04</pdfrwt>
<totfact> 0.19477534E-01</totfact>
</mgrwt>
</event>
<event>
 6    1  0.1001928E-005  0.2220332E+04  0.7818608E-02  0.8510013E-01
          1   -1    0    0  501    0  0.00000000000E+00  0.00000000000E+00  0.89481061443E+03  0.89481061443E+03  0.00000000000E+00 0. -1.
         -1   -1    0    0    0  501 -0.00000000000E+00 -0.00000000000E+00 -0.13773510704E+04  0.13773510704E+04  0.00000000000E+00 0.  1.
         23    2    1    2    0    0  0.25151838626E+03  0.88586985109E+03 -0.87276952275E+03  0.12720088884E+04  0.90846466637E+02 0.  0.
         13    1    3    3    0    0  0.11916343353E+03  0.40282609483E+03 -0.46035611522E+03  0.62321468162E+03  0.00000000000E+00 0. -1.
        -13    1    3    3    0    0  0.13235495273E+03  0.48304375626E+03 -0.41241340753E+03  0.64879420673E+03  0.00000000000E+00 0.  1.
         22    1    1    2    0    0 -0.25151838626E+03 -0.88586985109E+03  0.39022906679E+03  0.10001527965E+04  0.00000000000E+00 0. -1.
<mgrwt>
<rscale>  0 0.22203318E+04</rscale>
<asrwt>0</asrwt>
<pdfrwt beam="1">  1        1 0.13766317E+00 0.22203318E+04</pdfrwt>
<pdfrwt beam="2">  1       -1 0.21190016E+00 0.22203318E+04</pdfrwt>
<totfact> 0.20870151E+00</totfact>
</mgrwt>
</event>
<event>
 6    1  0.1001928E-005  0.3669861E+04  0.7818608E-02  0.8074674E-01
          1   -1    0    0  501    0  0.00000000000E+00  0.00000000000E+00  0.10005955937E+04  0.10005955937E+04  0.00000000000E+00 0. -1.
         -1   -1    0    0    0  501 -0.00000000000E+00 -0.00000000000E+00 -0.33649662595E+04  0.33649662595E+04  0.00000000000E+00 0.  1.
         23    2    1    2    0    0 -0.17020961934E+04 -0.30099518549E+02 -0.37202638013E+03  0.17449754331E+04  0.92185691955E+02 0.  0.
         13    1    3    3    0    0 -0.12057442175E+04 -0.63175725635E+02 -0.26145778630E+03  0.12353827198E+04  0.00000000000E+00 0. -1.
        -13    1    3    3    0    0 -0.49635197596E+03  0.33076207087E+02 -0.11056859383E+03  0.50959271330E+03  0.00000000000E+00 0.  1.
         22    1    1    2    0    0  0.17020961934E+04  0.30099518549E+02 -0.19923442857E+04  0.26205864202E+04  0.00000000000E+00 0.  1.
<mgrwt>
<rscale>  0 0.36698613E+04</rscale>
<asrwt>0</asrwt>
<pdfrwt beam="1">  1        1 0.15393779E+00 0.36698613E+04</pdfrwt>
<pdfrwt beam="2">  1       -1 0.51768711E+00 0.36698613E+04</pdfrwt>
<totfact> 0.14003903E-02</totfact>
</mgrwt>
</event>
<event>
 6    1  0.1001928E-005  0.2578814E+04  0.7818608E-02  0.8375433E-01
         -1   -1    0    0    0  501 -0.00000000000E+00  0.00000000000E+00  0.93033354484E+03  0.93033354484E+03  0.00000000000E+00 0.  1.
          1   -1    0    0  501    0  0.00000000000E+00 -0.00000000000E+00 -0.17870691583E+04  0.17870691583E+04  0.00000000000E+00 0. -1.
         23    2    1    2    0    0 -0.27975871349E+03  0.20510504335E+03 -0.17357053583E+04  0.17724578217E+04  0.92739540259E+02 0.  0.
         11    1    3    3    0    0 -0.14117922880E+03  0.12825471482E+03 -0.73815540042E+03  0.76240031591E+03  0.00000000000E+00 0. -1.
        -11    1    3    3    0    0 -0.13857948469E+03  0.76850328530E+02 -0.99754995789E+03  0.10100575058E+04  0.00000000000E+00 0.  1.
         22    1    1    2    0    0  0.27975871349E+03 -0.20510504335E+03  0.87896974484E+03  0.94494488142E+03  0.00000000000E+00 0.  1.
<mgrwt>
<rscale>  0 0.25788140E+04</rscale>
<asrwt>0</asrwt>
<pdfrwt beam="1">  1        1 0.27493371E+00 0.25788140E+04</pdfrwt>
<pdfrwt beam="2">  1       -1 0.14312824E+00 0.25788140E+04</pdfrwt>
<totfact> 0.14506581E+00</totfact>
</mgrwt>
</event>
<event>
 6    1  0.1001928E-005  0.2739423E+04  0.7818608E-02  0.8322326E-01
          2   -1    0    0  501    0  0.00000000000E+00  0.00000000000E+00  0.34466758708E+04  0.34466758708E+04  0.00000000000E+00 0. -1.
         -2   -1    0    0    0  501 -0.00000000000E+00 -0.00000000000E+00 -0.54432433730E+03  0.54432433730E+03  0.00000000000E+00 0.  1.
         23    2    1    2    0    0 -0.10021444877E+04  0.90473558100E+03  0.11303073396E+04  0.17632253831E+04  0.92352714152E+02 0.  0.
         13    1    3    3    0    0 -0.35521822029E+03  0.36042287493E+03  0.37983702973E+03  0.63274070673E+03  0.00000000000E+00 0.  1.
        -13    1    3    3    0    0 -0.64692626744E+03  0.54431270607E+03  0.75047030988E+03  0.11304846764E+04  0.00000000000E+00 0. -1.
         22    1    1    2    0    0  0.10021444877E+04 -0.90473558100E+03  0.17720441939E+04  0.22277748250E+04  0.00000000000E+00 0. -1.
<mgrwt>
<rscale>  0 0.27394230E+04</rscale>
<asrwt>0</asrwt>
<pdfrwt beam="1">  1        2 0.53025781E+00 0.27394230E+04</pdfrwt>
<pdfrwt beam="2">  1       -2 0.83742208E-01 0.27394230E+04</pdfrwt>
<totfact> 0.96520675E-01</totfact>
</mgrwt>
</event>
<event>
 6    1  0.1001928E-005  0.2040789E+04  0.7818608E-02  0.8587784E-01
         -2   -1    0    0    0  501 -0.00000000000E+00  0.00000000000E+00  0.13468185926E+04  0.13468185926E+04  0.00000000000E+00 0.  1.
          2   -1    0    0  501    0  0.00000000000E+00 -0.00000000000E+00 -0.77308485925E+03  0.77308485925E+03  0.00000000000E+00 0. -1.
         23    2    1    2    0    0  0.39050485957E+03  0.63570377231E+03  0.10074059886E+04  0.12569521458E+04  0.91915937110E+02 0.  0.
         11    1    3    3    0    0  0.15546965956E+03  0.22835864483E+03  0.30356435256E+03  0.41045073012E+03  0.00000000000E+00 0.  1.
        -11    1    3    3    0    0  0.23503520001E+03  0.40734512748E+03  0.70384163606E+03  0.84650141569E+03  0.00000000000E+00 0. -1.
         22    1    1    2    0    0 -0.39050485957E+03 -0.63570377231E+03 -0.43367225531E+03  0.86295130599E+03  0.00000000000E+00 0. -1.
<mgrwt>
<rscale>  0 0.20407891E+04</rscale>
<asrwt>0</asrwt>
<pdfrwt beam="1">  1        2 0.11893613E+00 0.20407891E+04</pdfrwt>
<pdfrwt beam="2">  1       -2 0.20720286E+00 0.20407891E+04</pdfrwt>
<totfact> 0.39819238E+00</totfact>
</mgrwt>
</event>
<event>
 6    1  0.1001928E-005  0.7718191E+03  0.7818608E-02  0.9601728E-01
          2   -1    0    0  501    0  0.00000000000E+00  0.00000000000E+00  0.11759747367E+03  0.11759747367E+03  0.00000000000E+00 0. -1.
         -2   -1    0    0    0  501 -0.00000000000E+00 -0.00000000000E+00 -0.12664063404E+04  0.12664063404E+04  0.00000000000E+00 0.  1.
         23    2    1    2    0    0  0.41437795563E+02 -0.22719161970E+03 -0.39505977361E+02  0.25091686978E+03  0.89807740918E+02 0.  0.
         13    1    3    3    0    0  0.50990428288E+02 -0.12401242650E+03 -0.57234815617E+02  0.14579070554E+03  0.00000000000E+00 0.  1.
        -13    1    3    3    0    0 -0.95526327243E+01 -0.10317919320E+03  0.17728838256E+02  0.10512616424E+03  0.00000000000E+00 0. -1.
         22    1    1    2    0    0 -0.41437795563E+02  0.22719161970E+03 -0.11093028894E+04  0.11330869443E+04  0.00000000000E+00 0.  1.
<mgrwt>
<rscale>  0 0.77181911E+03</rscale>
<asrwt>0</asrwt>
<pdfrwt beam="1">  1        2 0.18091921E-01 0.77181911E+03</pdfrwt>
<pdfrwt beam="2">  1       -2 0.19483172E+00 0.77181911E+03</pdfrwt>
<totfact> 0.46729755E+01</totfact>
</mgrwt>
</event>
<event>
 6    1  0.1001928E-005  0.1718505E+04  0.7818608E-02  0.8750880E-01
         -2   -1    0    0    0  501 -0.00000000000E+00  0.00000000000E+00  0.18113918155E+03  0.18113918155E+03  0.00000000000E+00 0.  1.
          2   -1    0    0  501    0  0.00000000000E+00 -0.00000000000E+00 -0.40759551290E+04  0.40759551290E+04  0.00000000000E+00 0. -1.
         23    2    1    2    0    0 -0.57396877958E+03 -0.31356129882E+03 -0.33238378382E+04  0.33888910801E+04  0.94466557405E+02 0.  0.
         13    1    3    3    0    0 -0.29862668279E+03 -0.12738665692E+03 -0.18236603702E+04  0.18523343116E+04  0.00000000000E+00 0. -1.
        -13    1    3    3    0    0 -0.27534209679E+03 -0.18617464189E+03 -0.15001774680E+04  0.15365567686E+04  0.00000000000E+00 0.  1.
         22    1    1    2    0    0  0.57396877958E+03  0.31356129882E+03 -0.57097810927E+03  0.86820323042E+03  0.00000000000E+00 0.  1.
<mgrwt>
<rscale>  0 0.17185054E+04</rscale>
<asrwt>0</asrwt>
<pdfrwt beam="1">  1        2 0.62706998E+00 0.17185054E+04</pdfrwt>
<pdfrwt beam="2">  1       -2 0.27867568E-01 0.17185054E+04</pdfrwt>
<totfact> 0.33718370E+00</totfact>
</mgrwt>
</event>
<event>
 6    1  0.1116071E-005  0.2129644E+04  0.7818608E-02  0.8548296E-01
          2   -1    0    0  501    0  0.00000000000E+00  0.00000000000E+00  0.19446909682E+04  0.19446909682E+04  0.00000000000E+00 0. -1.
         -2   -1    0    0    0  501 -0.00000000000E+00 -0.00000000000E+00 -0.58304698782E+03  0.58304698782E+03  0.00000000000E+00 0.  1.
         23    2    1    2    0    0 -0.58798232045E+03 -0.13685045700E+03  0.17203401332E+04  0.18255170600E+04  0.92147196231E+02 0.  0.
         11    1    3    3    0    0 -0.15303640303E+03 -0.38541935448E+02  0.58013068176E+03  0.60121313139E+03  0.00000000000E+00 0.  1.
        -11    1    3    3    0    0 -0.43494591742E+03 -0.98308521552E+02  0.11402094514E+04  0.12243039286E+04  0.00000000000E+00 0. -1.
         22    1    1    2    0    0  0.58798232045E+03  0.13685045700E+03 -0.35869615282E+03  0.70222089600E+03  0.00000000000E+00 0.  1.
<mgrwt>
<rscale>  0 0.21296443E+04</rscale>
<asrwt>0</asrwt>
<pdfrwt beam="1">  1        2 0.29918322E+00 0.21296443E+04</pdfrwt>
<pdfrwt beam="2">  1       -2 0.89699537E-01 0.21296443E+04</pdfrwt>
<totfact> 0.70210205E+00</totfact>
</mgrwt>
</event>
<event>
 6    1  0.1001928E-005  0.1594152E+04  0.7818608E-02  0.8824149E-01
          1   -1    0    0  501    0  0.00000000000E+00  0.00000000000E+00  0.15529902085E+04  0.15529902085E+04  0.00000000000E+00 0. -1.
         -1   -1    0    0    0  501 -0.00000000000E+00 -0.00000000000E+00 -0.40910128658E+03  0.40910128658E+03  0.00000000000E+00 0.  1.
         23    2    1    2    0    0  0.47117081118E+03 -0.83571422950E+02 -0.20728700354E+03  0.52868209871E+03  0.86895014916E+02 0.  0.
         11    1    3    3    0    0  0.33583165241E+03 -0.51742717522E+02 -0.10357618036E+03  0.35522983083E+03  0.00000000000E+00 0. -1.
        -11    1    3    3    0    0  0.13533915877E+03 -0.31828705429E+02 -0.10371082318E+03  0.17345226788E+03  0.00000000000E+00 0.  1.
         22    1    1    2    0    0 -0.47117081118E+03  0.83571422950E+02  0.13511759255E+04  0.14334093964E+04  0.00000000000E+00 0. -1.
<mgrwt>
<rscale>  0 0.15941522E+04</rscale>
<asrwt>0</asrwt>
<pdfrwt beam="1">  1        1 0.23892157E+00 0.15941522E+04</pdfrwt>
<pdfrwt beam="2">  1       -1 0.62938660E-01 0.15941522E+04</pdfrwt>
<totfact> 0.14776933E+01</totfact>
</mgrwt>
</event>
<event>
 6    1  0.1001928E-005  0.1660605E+04  0.7818608E-02  0.8784157E-01
          2   -1    0    0  501    0  0.00000000000E+00  0.00000000000E+00  0.11119729895E+04  0.11119729895E+04  0.00000000000E+00 0. -1.
         -2   -1    0    0    0  501 -0.00000000000E+00 -0.00000000000E+00 -0.61998084193E+03  0.61998084193E+03  0.00000000000E+00 0.  1.
         23    2    1    2    0    0 -0.76396273716E+03 -0.23663962028E+03  0.24028131951E+02  0.80533217532E+03  0.91351999541E+02 0.  0.
         11    1    3    3    0    0 -0.50378461262E+03 -0.11422235888E+03  0.33305150847E+02  0.51764361896E+03  0.00000000000E+00 0. -1.
        -11    1    3    3    0    0 -0.26017812455E+03 -0.12241726139E+03 -0.92770188960E+01  0.28768855636E+03  0.00000000000E+00 0.  1.
         22    1    1    2    0    0  0.76396273716E+03  0.23663962028E+03  0.46796401564E+03  0.92662165612E+03  0.00000000000E+00 0.  1.
<mgrwt>
<rscale>  0 0.16606046E+04</rscale>
<asrwt>0</asrwt>
<pdfrwt beam="1">  1        2 0.17107277E+00 0.16606046E+04</pdfrwt>
<pdfrwt beam="2">  1       -2 0.95381668E-01 0.16606046E+04</pdfrwt>
<totfact> 0.18879322E+01</totfact>
</mgrwt>
</event>
<event>
 6    1  0.1001928E-005  0.3526160E+04  0.7818608E-02  0.8107618E-01
          1   -1    0    0  501    0  0.00000000000E+00  0.00000000000E+00  0.17005330105E+04  0.17005330105E+04  0.00000000000E+00 0. -1.
         -1   -1    0    0    0  501 -0.00000000000E+00 -0.00000000000E+00 -0.18279272606E+04  0.18279272606E+04  0.00000000000E+00 0.  1.
         23    2    1    2    0    0 -0.11085659112E+04  0.88353505027E+03 -0.11106788560E+04  0.18032353058E+04  0.92181788946E+02 0.  0.
         11    1    3    3    0    0 -0.61974628078E+03  0.55172150021E+03 -0.64273593081E+03  0.10495673123E+04  0.00000000000E+00 0. -1.
        -11    1    3    3    0    0 -0.48881963046E+03  0.33181355006E+03 -0.46794292521E+03  0.75366799347E+03  0.00000000000E+00 0.  1.
         22    1    1    2    0    0  0.11085659112E+04 -0.88353505027E+03  0.98328460598E+03  0.17252249653E+04  0.00000000000E+00 0. -1.
<mgrwt>
<rscale>  0 0.35261598E+04</rscale>
<asrwt>0</asrwt>
<pdfrwt beam="1">  1        1 0.26162046E+00 0.35261598E+04</pdfrwt>
<pdfrwt beam="2">  1       -1 0.28121958E+00 0.35261598E+04</pdfrwt>
<totfact> 0.16941880E-01</totfact>
</mgrwt>
</event>
<event>
 6    1  0.1001928E-005  0.2750478E+04  0.7818608E-02  0.8318810E-01
         -1   -1    0    0    0  501 -0.00000000000E+00  0.00000000000E+00  0.10883438728E+04  0.10883438728E+04  0.00000000000E+00 0.  1.
          1   -1    0    0  501    0  0.00000000000E+00 -0.00000000000E+00 -0.17377618127E+04  0.17377618127E+04  0.00000000000E+00 0. -1.
         23    2    1    2    0    0  0.78879052148E+03  0.11019461326E+04 -0.55632024082E+03  0.14677452961E+04  0.91149756133E+02 0.  0.
         11    1    3    3    0    0  0.43263511738E+03  0.66115600536E+03 -0.29093077651E+03  0.84198641613E+03  0.00000000000E+00 0. -1.
        -11    1    3    3    0    0  0.35615540410E+03  0.44079012720E+03 -0.26538946431E+03  0.62575887998E+03  0.00000000000E+00 0.  1.
         22    1    1    2    0    0 -0.78879052148E+03 -0.11019461326E+04 -0.93097699126E+02  0.13583603894E+04  0.00000000000E+00 0.  1.
<mgrwt>
<rscale>  0 0.27504781E+04</rscale>
<asrwt>0</asrwt>
<pdfrwt beam="1">  1        1 0.26734797E+00 0.27504781E+04</pdfrwt>
<pdfrwt beam="2">  1       -1 0.16743752E+00 0.27504781E+04</pdfrwt>
<totfact> 0.10036764E+00</totfact>
</mgrwt>
</event>
<event>
 6    1  0.1001928E-005  0.2270818E+04  0.7818608E-02  0.8489517E-01
          1   -1    0    0  501    0  0.00000000000E+00  0.00000000000E+00  0.14785889704E+04  0.14785889704E+04  0.00000000000E+00 0. -1.
         -1   -1    0    0    0  501 -0.00000000000E+00 -0.00000000000E+00 -0.87188103282E+03  0.87188103282E+03  0.00000000000E+00 0.  1.
         23    2    1    2    0    0 -0.11597404717E+03  0.10127732054E+04 -0.20942890376E+03  0.10446220454E+04  0.90637777762E+02 0.  0.
         11    1    3    3    0    0 -0.68799082250E+02  0.46466530734E+03 -0.53195858529E+02  0.47273349885E+03  0.00000000000E+00 0.  1.
        -11    1    3    3    0    0 -0.47174964919E+02  0.54810789807E+03 -0.15623304523E+03  0.57188854654E+03  0.00000000000E+00 0. -1.
         22    1    1    2    0    0  0.11597404717E+03 -0.10127732054E+04  0.81613684133E+03  0.13058479578E+04  0.00000000000E+00 0. -1.
<mgrwt>
<rscale>  0 0.22708181E+04</rscale>
<asrwt>0</asrwt>
<pdfrwt beam="1">  1        1 0.22747523E+00 0.22708181E+04</pdfrwt>
<pdfrwt beam="2">  1       -1 0.13413554E+00 0.22708181E+04</pdfrwt>
<totfact> 0.28727529E+00</totfact>
</mgrwt>
</event>
<event>
 6    1  0.1059145E-005  0.2439886E+04  0.7818608E-02  0.8424720E-01
          2   -1    0    0  501    0  0.00000000000E+00  0.00000000000E+00  0.15567113096E+04  0.15567113096E+04  0.00000000000E+00 0. -1.
         -2   -1    0    0    0  501 -0.00000000000E+00 -0.00000000000E+00 -0.95602893700E+03  0.95602893700E+03  0.00000000000E+00 0.  1.
         23    2    1    2    0    0 -0.44982351279E+03 -0.10157997584E+03 -0.86043462963E+03  0.98057753384E+03  0.92330189282E+02 0.  0.
         13    1    3    3    0    0 -0.19917038611E+03 -0.92146945306E+02 -0.40584362152E+03  0.46137722891E+03  0.00000000000E+00 0. -1.
        -13    1    3    3    0    0 -0.25065312668E+03 -0.94330305384E+01 -0.45459100811E+03  0.51920030493E+03  0.00000000000E+00 0.  1.
         22    1    1    2    0    0  0.44982351279E+03  0.10157997584E+03  0.14611170023E+04  0.15321627128E+04  0.00000000000E+00 0. -1.
<mgrwt>
<rscale>  0 0.24398861E+04</rscale>
<asrwt>0</asrwt>
<pdfrwt beam="1">  1        2 0.23949405E+00 0.24398861E+04</pdfrwt>
<pdfrwt beam="2">  1       -2 0.14708138E+00 0.24398861E+04</pdfrwt>
<totfact> 0.33366125E+00</totfact>
</mgrwt>
</event>
<event>
 6    1  0.1001928E-005  0.1814474E+04  0.7818608E-02  0.8698640E-01
          1   -1    0    0  501    0  0.00000000000E+00  0.00000000000E+00  0.41633424443E+03  0.41633424443E+03  0.00000000000E+00 0. -1.
         -1   -1    0    0    0  501 -0.00000000000E+00 -0.00000000000E+00 -0.19769671993E+04  0.19769671993E+04  0.00000000000E+00 0.  1.
         23    2    1    2    0    0  0.46460849281E+03 -0.77425238289E+03 -0.85957189091E+03  0.12501416039E+04  0.93071962212E+02 0.  0.
         13    1    3    3    0    0  0.33854490217E+03 -0.50847493291E+03 -0.62453752928E+03  0.87361692616E+03  0.00000000000E+00 0.  1.
        -13    1    3    3    0    0  0.12606359064E+03 -0.26577744998E+03 -0.23503436163E+03  0.37652467774E+03  0.00000000000E+00 0. -1.
         22    1    1    2    0    0 -0.46460849281E+03  0.77425238289E+03 -0.70106106398E+03  0.11431598398E+04  0.00000000000E+00 0.  1.
<mgrwt>
<rscale>  0 0.18144742E+04</rscale>
<asrwt>0</asrwt>
<pdfrwt beam="1">  1        1 0.64051423E-01 0.18144742E+04</pdfrwt>
<pdfrwt beam="2">  1       -1 0.30414880E+00 0.18144742E+04</pdfrwt>
<totfact> 0.16655787E+00</totfact>
</mgrwt>
</event>
<event>
 6    1  0.1001928E-005  0.2701468E+04  0.7818608E-02  0.8334529E-01
         -2   -1    0    0    0  501 -0.00000000000E+00  0.00000000000E+00  0.10695750364E+04  0.10695750364E+04  0.00000000000E+00 0.  1.
          2   -1    0    0  501    0  0.00000000000E+00 -0.00000000000E+00 -0.17058016908E+04  0.17058016908E+04  0.00000000000E+00 0. -1.
         23    2    1    2    0    0  0.90040191999E+02 -0.13169857029E+04 -0.60559196371E+03  0.14549612387E+04  0.87246787603E+02 0.  0.
         13    1    3    3    0    0  0.31742252617E+02 -0.55637933737E+03 -0.30273675345E+03  0.63420428850E+03  0.00000000000E+00 0. -1.
        -13    1    3    3    0    0  0.58297939382E+02 -0.76060636551E+03 -0.30285521026E+03  0.82075695024E+03  0.00000000000E+00 0.  1.
         22    1    1    2    0    0 -0.90040191999E+02  0.13169857029E+04 -0.30634690671E+02  0.13204154884E+04  0.00000000000E+00 0. -1.
<mgrwt>
<rscale>  0 0.27014684E+04</rscale>
<asrwt>0</asrwt>
<pdfrwt beam="1">  1        2 0.26243102E+00 0.27014684E+04</pdfrwt>
<pdfrwt beam="2">  1       -2 0.16455001E+00 0.27014684E+04</pdfrwt>
<totfact> 0.19921398E+00</totfact>
</mgrwt>
</event>
<event>
 6    1  0.1001928E-005  0.2753273E+04  0.7818608E-02  0.8317924E-01
          2   -1    0    0  501    0  0.00000000000E+00  0.00000000000E+00  0.10868243457E+04  0.10868243457E+04  0.00000000000E+00 0. -1.
         -2   -1    0    0    0  501 -0.00000000000E+00 -0.00000000000E+00 -0.17437297606E+04  0.17437297606E+04  0.00000000000E+00 0.  1.
         23    2    1    2    0    0  0.93484752167E+03  0.10071470973E+04 -0.27601257597E+03  0.14045931955E+04  0.91727522855E+02 0.  0.
         11    1    3    3    0    0  0.48031702413E+03  0.46176469682E+03 -0.15994296775E+03  0.68521006402E+03  0.00000000000E+00 0.  1.
        -11    1    3    3    0    0  0.45453049754E+03  0.54538240043E+03 -0.11606960821E+03  0.71938313147E+03  0.00000000000E+00 0. -1.
         22    1    1    2    0    0 -0.93484752167E+03 -0.10071470973E+04 -0.38089283890E+03  0.14259609108E+04  0.00000000000E+00 0.  1.
<mgrwt>
<rscale>  0 0.27532729E+04</rscale>
<asrwt>0</asrwt>
<pdfrwt beam="1">  1        2 0.16720375E+00 0.27532729E+04</pdfrwt>
<pdfrwt beam="2">  1       -2 0.26826611E+00 0.27532729E+04</pdfrwt>
<totfact> 0.96299248E-01</totfact>
</mgrwt>
</event>
<event>
 6    1  0.1001928E-005  0.2817485E+04  0.7818608E-02  0.8297860E-01
         -2   -1    0    0    0  501 -0.00000000000E+00  0.00000000000E+00  0.17885321822E+04  0.17885321822E+04  0.00000000000E+00 0.  1.
          2   -1    0    0  501    0  0.00000000000E+00 -0.00000000000E+00 -0.11096003143E+04  0.11096003143E+04  0.00000000000E+00 0. -1.
         23    2    1    2    0    0  0.84928965881E+03  0.32991620585E+03 -0.76351881035E+03  0.11920253525E+04  0.88463776409E+02 0.  0.
         13    1    3    3    0    0  0.24268845241E+03  0.57903414567E+02 -0.23486621499E+03  0.34265526305E+03  0.00000000000E+00 0. -1.
        -13    1    3    3    0    0  0.60660120639E+03  0.27201279128E+03 -0.52865259536E+03  0.84937008942E+03  0.00000000000E+00 0.  1.
         22    1    1    2    0    0 -0.84928965881E+03 -0.32991620585E+03  0.14424506783E+04  0.17061071440E+04  0.00000000000E+00 0.  1.
<mgrwt>
<rscale>  0 0.28174853E+04</rscale>
<asrwt>0</asrwt>
<pdfrwt beam="1">  1        2 0.17070774E+00 0.28174853E+04</pdfrwt>
<pdfrwt beam="2">  1       -2 0.27515880E+00 0.28174853E+04</pdfrwt>
<totfact> 0.84172374E-01</totfact>
</mgrwt>
</event>
<event>
 6    1  0.1001928E-005  0.1034825E+04  0.7818608E-02  0.9271152E-01
          3   -1    0    0  501    0  0.00000000000E+00  0.00000000000E+00  0.65922449284E+02  0.65922449284E+02  0.00000000000E+00 0. -1.
         -3   -1    0    0    0  501 -0.00000000000E+00 -0.00000000000E+00 -0.40610739176E+04  0.40610739176E+04  0.00000000000E+00 0.  1.
         23    2    1    2    0    0  0.50180380810E+03 -0.10238170704E+03 -0.18435326174E+04  0.19152656519E+04  0.85679229428E+02 0.  0.
         13    1    3    3    0    0  0.26816810448E+03 -0.17328067250E+02 -0.87560387386E+03  0.91591295334E+03  0.00000000000E+00 0.  1.
        -13    1    3    3    0    0  0.23363570362E+03 -0.85053639791E+02 -0.96792874352E+03  0.99935269860E+03  0.00000000000E+00 0. -1.
         22    1    1    2    0    0 -0.50180380810E+03  0.10238170704E+03 -0.21516188509E+04  0.22117307149E+04  0.00000000000E+00 0.  1.
<mgrwt>
<rscale>  0 0.10348255E+04</rscale>
<asrwt>0</asrwt>
<pdfrwt beam="1">  1        3 0.10141915E-01 0.10348255E+04</pdfrwt>
<pdfrwt beam="2">  1       -3 0.62478065E+00 0.10348255E+04</pdfrwt>
<totfact> 0.13802643E-01</totfact>
</mgrwt>
</event>
<event>
 6    1  0.1001928E-005  0.1956761E+04  0.7818608E-02  0.8627107E-01
         -2   -1    0    0    0  501 -0.00000000000E+00  0.00000000000E+00  0.14425076878E+04  0.14425076878E+04  0.00000000000E+00 0.  1.
          2   -1    0    0  501    0  0.00000000000E+00 -0.00000000000E+00 -0.66358631861E+03  0.66358631861E+03  0.00000000000E+00 0. -1.
         23    2    1    2    0    0 -0.33812392713E+03  0.88956358610E+01 -0.59405089182E+03  0.69207146348E+03  0.10797928529E+03 0.  0.
         13    1    3    3    0    0 -0.42807464157E+02 -0.35459254846E+02 -0.76814843747E+02  0.94817498183E+02  0.00000000000E+00 0. -1.
        -13    1    3    3    0    0 -0.29531646297E+03  0.44354890707E+02 -0.51723604808E+03  0.59725396529E+03  0.00000000000E+00 0.  1.
         22    1    1    2    0    0  0.33812392713E+03 -0.88956358610E+01  0.13729722610E+04  0.14140225429E+04  0.00000000000E+00 0.  1.
<mgrwt>
<rscale>  0 0.19567610E+04</rscale>
<asrwt>0</asrwt>
<pdfrwt beam="1">  1        2 0.10209020E+00 0.19567610E+04</pdfrwt>
<pdfrwt beam="2">  1       -2 0.22192426E+00 0.19567610E+04</pdfrwt>
<totfact> 0.39239756E+00</totfact>
</mgrwt>
</event>
<event>
 6    1  0.1001928E-005  0.1112907E+04  0.7818608E-02  0.9192702E-01
          2   -1    0    0  501    0  0.00000000000E+00  0.00000000000E+00  0.14453655609E+04  0.14453655609E+04  0.00000000000E+00 0. -1.
         -2   -1    0    0    0  501 -0.00000000000E+00 -0.00000000000E+00 -0.21423001532E+03  0.21423001532E+03  0.00000000000E+00 0.  1.
         23    2    1    2    0    0 -0.46654968231E+03 -0.19759208551E+03  0.29027877185E+03  0.59098774029E+03  0.91068685479E+02 0.  0.
         13    1    3    3    0    0 -0.34503977878E+03 -0.17236062455E+03  0.18283188918E+03  0.42683501911E+03  0.00000000000E+00 0.  1.
        -13    1    3    3    0    0 -0.12150990353E+03 -0.25231460957E+02  0.10744688267E+03  0.16415272119E+03  0.00000000000E+00 0. -1.
         22    1    1    2    0    0  0.46654968231E+03  0.19759208551E+03  0.94085677369E+03  0.10686078359E+04  0.00000000000E+00 0. -1.
<mgrwt>
<rscale>  0 0.11129073E+04</rscale>
<asrwt>0</asrwt>
<pdfrwt beam="1">  1        2 0.22236393E+00 0.11129073E+04</pdfrwt>
<pdfrwt beam="2">  1       -2 0.32958465E-01 0.11129073E+04</pdfrwt>
<totfact> 0.11609215E+02</totfact>
</mgrwt>
</event>
<event>
 6    1  0.1001928E-005  0.2112112E+04  0.7818608E-02  0.8555927E-01
          2   -1    0    0  501    0  0.00000000000E+00  0.00000000000E+00  0.17211772486E+04  0.17211772486E+04  0.00000000000E+00 0. -1.
         -2   -1    0    0    0  501 -0.00000000000E+00 -0.00000000000E+00 -0.64796017092E+03  0.64796017092E+03  0.00000000000E+00 0.  1.
         23    2    1    2    0    0  0.30580132315E+03 -0.85344409901E+03  0.11408550881E+04  0.14600410661E+04  0.91040119063E+02 0.  0.
         11    1    3    3    0    0  0.19496608676E+03 -0.64634090593E+03  0.81380198687E+03  0.10573750591E+04  0.00000000000E+00 0.  1.
        -11    1    3    3    0    0  0.11083523640E+03 -0.20710319308E+03  0.32705310123E+03  0.40266600705E+03  0.00000000000E+00 0. -1.
         22    1    1    2    0    0 -0.30580132315E+03  0.85344409901E+03 -0.67638010413E+02  0.90909635343E+03  0.00000000000E+00 0. -1.
<mgrwt>
<rscale>  0 0.21121120E+04</rscale>
<asrwt>0</asrwt>
<pdfrwt beam="1">  1        2 0.26479650E+00 0.21121120E+04</pdfrwt>
<pdfrwt beam="2">  1       -2 0.99686180E-01 0.21121120E+04</pdfrwt>
<totfact> 0.73126212E+00</totfact>
</mgrwt>
</event>
<event>
 6    1  0.1001928E-005  0.1122506E+04  0.7818608E-02  0.9183529E-01
          2   -1    0    0  501    0  0.00000000000E+00  0.00000000000E+00  0.15043026929E+04  0.15043026929E+04  0.00000000000E+00 0. -1.
         -2   -1    0    0    0  501 -0.00000000000E+00 -0.00000000000E+00 -0.20940278940E+03  0.20940278940E+03  0.00000000000E+00 0.  1.
         23    2    1    2    0    0  0.23505229433E+03 -0.93919762933E+02  0.14099916105E+04  0.14356468482E+04  0.94525277760E+02 0.  0.
         11    1    3    3    0    0  0.81690500701E+02 -0.76658773880E+02  0.47709922938E+03  0.49007507608E+03  0.00000000000E+00 0. -1.
        -11    1    3    3    0    0  0.15336179363E+03 -0.17260989052E+02  0.93289238113E+03  0.94557177213E+03  0.00000000000E+00 0.  1.
         22    1    1    2    0    0 -0.23505229433E+03  0.93919762933E+02 -0.11509170705E+03  0.27805863405E+03  0.00000000000E+00 0.  1.
<mgrwt>
<rscale>  0 0.11225064E+04</rscale>
<asrwt>0</asrwt>
<pdfrwt beam="1">  1        2 0.23143118E+00 0.11225064E+04</pdfrwt>
<pdfrwt beam="2">  1       -2 0.32215815E-01 0.11225064E+04</pdfrwt>
<totfact> 0.11218214E+02</totfact>
</mgrwt>
</event>
<event>
 6    1  0.1001928E-005  0.1491662E+04  0.7818608E-02  0.8890016E-01
          2   -1    0    0  501    0  0.00000000000E+00  0.00000000000E+00  0.36814621865E+04  0.36814621865E+04  0.00000000000E+00 0. -1.
         -2   -1    0    0    0  501 -0.00000000000E+00 -0.00000000000E+00 -0.15109866218E+03  0.15109866218E+03  0.00000000000E+00 0.  1.
         23    2    1    2    0    0  0.11906964655E+03 -0.61440447925E+03  0.28009888550E+04  0.28714896478E+04  0.90795302067E+02 0.  0.
         13    1    3    3    0    0  0.26332457210E+02 -0.18309562524E+03  0.65476175538E+03  0.68038986074E+03  0.00000000000E+00 0.  1.
        -13    1    3    3    0    0  0.92737189341E+02 -0.43130885401E+03  0.21462270996E+04  0.21910997871E+04  0.00000000000E+00 0. -1.
         22    1    1    2    0    0 -0.11906964655E+03  0.61440447925E+03  0.72937466931E+03  0.96107120084E+03  0.00000000000E+00 0.  1.
<mgrwt>
<rscale>  0 0.14916622E+04</rscale>
<asrwt>0</asrwt>
<pdfrwt beam="1">  1        2 0.56637873E+00 0.14916622E+04</pdfrwt>
<pdfrwt beam="2">  1       -2 0.23245951E-01 0.14916622E+04</pdfrwt>
<totfact> 0.96970704E+00</totfact>
</mgrwt>
</event>
<event>
 6    1  0.1001928E-005  0.3600884E+03  0.7818608E-02  0.1058549E+00
          1   -1    0    0  501    0  0.00000000000E+00  0.00000000000E+00  0.22461115426E+04  0.22461115426E+04  0.00000000000E+00 0. -1.
         -1   -1    0    0    0  501 -0.00000000000E+00 -0.00000000000E+00 -0.14432014923E+02  0.14432014923E+02  0.00000000000E+00 0.  1.
         23    2    1    2    0    0 -0.93692995858E+02 -0.51025739817E+02  0.20073621366E+04  0.20121481156E+04  0.88630064590E+02 0.  0.
         11    1    3    3    0    0 -0.61419291187E+02  0.16092636535E+02  0.10274902575E+04  0.10294501113E+04  0.00000000000E+00 0.  1.
        -11    1    3    3    0    0 -0.32273704671E+02 -0.67118376352E+02  0.97987187903E+03  0.98269800436E+03  0.00000000000E+00 0. -1.
         22    1    1    2    0    0  0.93692995858E+02  0.51025739817E+02  0.22431739115E+03  0.24839544193E+03  0.00000000000E+00 0.  1.
<mgrwt>
<rscale>  0 0.36008841E+03</rscale>
<asrwt>0</asrwt>
<pdfrwt beam="1">  1        1 0.34555535E+00 0.36008841E+03</pdfrwt>
<pdfrwt beam="2">  1       -1 0.22203118E-02 0.36008841E+03</pdfrwt>
<totfact> 0.13619470E+03</totfact>
</mgrwt>
</event>
<event>
 6    1  0.1001928E-005  0.3886500E+03  0.7818608E-02  0.1047782E+00
          1   -1    0    0  501    0  0.00000000000E+00  0.00000000000E+00  0.16849682789E+03  0.16849682789E+03  0.00000000000E+00 0. -1.
         -1   -1    0    0    0  501 -0.00000000000E+00 -0.00000000000E+00 -0.22411220829E+03  0.22411220829E+03  0.00000000000E+00 0.  1.
         23    2    1    2    0    0  0.26951239714E+02 -0.22517227994E+02 -0.21147114880E+03  0.23284541259E+03  0.90904040127E+02 0.  0.
         13    1    3    3    0    0 -0.29536656072E+02 -0.23001954351E+02 -0.11624373268E+03  0.12212333661E+03  0.00000000000E+00 0. -1.
        -13    1    3    3    0    0  0.56487895786E+02  0.48472635669E+00 -0.95227416113E+02  0.11072207598E+03  0.00000000000E+00 0.  1.
         22    1    1    2    0    0 -0.26951239714E+02  0.22517227994E+02  0.15585576840E+03  0.15976362359E+03  0.00000000000E+00 0. -1.
<mgrwt>
<rscale>  0 0.38864995E+03</rscale>
<asrwt>0</asrwt>
<pdfrwt beam="1">  1        1 0.25922589E-01 0.38864995E+03</pdfrwt>
<pdfrwt beam="2">  1       -1 0.34478801E-01 0.38864995E+03</pdfrwt>
<totfact> 0.14732788E+03</totfact>
</mgrwt>
</event>
<event>
 6    1  0.1001928E-005  0.9892166E+03  0.7818608E-02  0.9320452E-01
          2   -1    0    0  501    0  0.00000000000E+00  0.00000000000E+00  0.15489653561E+04  0.15489653561E+04  0.00000000000E+00 0. -1.
         -2   -1    0    0    0  501 -0.00000000000E+00 -0.00000000000E+00 -0.15793599300E+03  0.15793599300E+03  0.00000000000E+00 0.  1.
         23    2    1    2    0    0 -0.24464056607E+03 -0.17023777325E+03  0.13732616212E+04  0.14083287471E+04  0.93340632233E+02 0.  0.
         13    1    3    3    0    0 -0.97401202765E+02 -0.12433679506E+03  0.67337871037E+03  0.69165419141E+03  0.00000000000E+00 0.  1.
        -13    1    3    3    0    0 -0.14723936330E+03 -0.45900978194E+02  0.69988291079E+03  0.71667455566E+03  0.00000000000E+00 0. -1.
         22    1    1    2    0    0  0.24464056607E+03  0.17023777325E+03  0.17767741889E+02  0.29857260199E+03  0.00000000000E+00 0.  1.
<mgrwt>
<rscale>  0 0.98921662E+03</rscale>
<asrwt>0</asrwt>
<pdfrwt beam="1">  1        2 0.23830235E+00 0.98921662E+03</pdfrwt>
<pdfrwt beam="2">  1       -2 0.24297846E-01 0.98921662E+03</pdfrwt>
<totfact> 0.17965209E+02</totfact>
</mgrwt>
</event>
<event>
 6    1  0.1001928E-005  0.2937280E+04  0.7818608E-02  0.8261871E-01
         -2   -1    0    0    0  501 -0.00000000000E+00  0.00000000000E+00  0.10077144935E+04  0.10077144935E+04  0.00000000000E+00 0.  1.
          2   -1    0    0  501    0  0.00000000000E+00 -0.00000000000E+00 -0.21403916981E+04  0.21403916981E+04  0.00000000000E+00 0. -1.
         23    2    1    2    0    0  0.47831717019E+03 -0.11385772753E+04  0.28184433004E+03  0.12703371166E+04  0.95784322395E+02 0.  0.
         13    1    3    3    0    0  0.19182909330E+03 -0.48903085303E+03  0.73146951295E+02  0.53037727396E+03  0.00000000000E+00 0.  1.
        -13    1    3    3    0    0  0.28648807689E+03 -0.64954642223E+03  0.20869737875E+03  0.73995984265E+03  0.00000000000E+00 0. -1.
         22    1    1    2    0    0 -0.47831717019E+03  0.11385772753E+04 -0.14145215346E+04  0.18777690750E+04  0.00000000000E+00 0. -1.
<mgrwt>
<rscale>  0 0.29372802E+04</rscale>
<asrwt>0</asrwt>
<pdfrwt beam="1">  1        2 0.32929103E+00 0.29372802E+04</pdfrwt>
<pdfrwt beam="2">  1       -2 0.15503300E+00 0.29372802E+04</pdfrwt>
<totfact> 0.13167720E+00</totfact>
</mgrwt>
</event>
<event>
 6    1  0.1001928E-005  0.3317589E+04  0.7818608E-02  0.8158434E-01
         -3   -1    0    0    0  501 -0.00000000000E+00  0.00000000000E+00  0.73168347175E+03  0.73168347175E+03  0.00000000000E+00 0.  1.
          3   -1    0    0  501    0  0.00000000000E+00 -0.00000000000E+00 -0.37606411681E+04  0.37606411681E+04  0.00000000000E+00 0. -1.
         23    2    1    2    0    0  0.90904791180E+03 -0.12733814283E+04 -0.22567428438E+04  0.27475655888E+04  0.91433220221E+02 0.  0.
         13    1    3    3    0    0  0.46639333164E+03 -0.66963771733E+03 -0.12551598595E+04  0.14971184606E+04  0.00000000000E+00 0.  1.
        -13    1    3    3    0    0  0.44265458017E+03 -0.60374371093E+03 -0.10015829843E+04  0.12504471282E+04  0.00000000000E+00 0. -1.
         22    1    1    2    0    0 -0.90904791180E+03  0.12733814283E+04 -0.77221485253E+03  0.17447590511E+04  0.00000000000E+00 0.  1.
<mgrwt>
<rscale>  0 0.33175889E+04</rscale>
<asrwt>0</asrwt>
<pdfrwt beam="1">  1        3 0.57856018E+00 0.33175889E+04</pdfrwt>
<pdfrwt beam="2">  1       -3 0.11256669E+00 0.33175889E+04</pdfrwt>
<totfact> 0.20432446E-03</totfact>
</mgrwt>
</event>
<event>
 6    1  0.1001928E-005  0.2889554E+04  0.7818608E-02  0.8275992E-01
          2   -1    0    0  501    0  0.00000000000E+00  0.00000000000E+00  0.42212757830E+04  0.42212757830E+04  0.00000000000E+00 0. -1.
         -2   -1    0    0    0  501 -0.00000000000E+00 -0.00000000000E+00 -0.49449060740E+03  0.49449060740E+03  0.00000000000E+00 0.  1.
         23    2    1    2    0    0  0.77564903030E+03 -0.11814269394E+04  0.13870287099E+04  0.19822958217E+04  0.90813277023E+02 0.  0.
         13    1    3    3    0    0  0.27259316697E+03 -0.49600511239E+03  0.55909329237E+03  0.79555855584E+03  0.00000000000E+00 0. -1.
        -13    1    3    3    0    0  0.50305586333E+03 -0.68542182697E+03  0.82793541752E+03  0.11867372658E+04  0.00000000000E+00 0.  1.
         22    1    1    2    0    0 -0.77564903030E+03  0.11814269394E+04  0.23397564657E+04  0.27334705687E+04  0.00000000000E+00 0. -1.
<mgrwt>
<rscale>  0 0.28895544E+04</rscale>
<asrwt>0</asrwt>
<pdfrwt beam="1">  1        2 0.64942702E+00 0.28895544E+04</pdfrwt>
<pdfrwt beam="2">  1       -2 0.76075481E-01 0.28895544E+04</pdfrwt>
<totfact> 0.29784159E-01</totfact>
</mgrwt>
</event>
<event>
 6    1  0.1001928E-005  0.1884463E+04  0.7818608E-02  0.8662629E-01
          3   -1    0    0  501    0  0.00000000000E+00  0.00000000000E+00  0.95391239721E+03  0.95391239721E+03  0.00000000000E+00 0. -1.
         -3   -1    0    0    0  501 -0.00000000000E+00 -0.00000000000E+00 -0.93069321674E+03  0.93069321674E+03  0.00000000000E+00 0.  1.
         23    2    1    2    0    0 -0.37504100878E+03  0.47336531047E+03  0.73196880028E+03  0.95344692769E+03  0.92478342953E+02 0.  0.
         13    1    3    3    0    0 -0.18557078453E+03  0.30677668134E+03  0.43970422099E+03  0.56735196328E+03  0.00000000000E+00 0. -1.
        -13    1    3    3    0    0 -0.18947022425E+03  0.16658862913E+03  0.29226457929E+03  0.38609496440E+03  0.00000000000E+00 0.  1.
         22    1    1    2    0    0  0.37504100878E+03 -0.47336531047E+03 -0.70874961981E+03  0.93115868626E+03  0.00000000000E+00 0.  1.
<mgrwt>
<rscale>  0 0.18844626E+04</rscale>
<asrwt>0</asrwt>
<pdfrwt beam="1">  1        3 0.14675575E+00 0.18844626E+04</pdfrwt>
<pdfrwt beam="2">  1       -3 0.14318357E+00 0.18844626E+04</pdfrwt>
<totfact> 0.30521773E-01</totfact>
</mgrwt>
</event>
<event>
 6    1  0.1001928E-005  0.3467947E+04  0.7818608E-02  0.8121428E-01
         -2   -1    0    0    0  501 -0.00000000000E+00  0.00000000000E+00  0.26580797007E+04  0.26580797007E+04  0.00000000000E+00 0.  1.
          2   -1    0    0  501    0  0.00000000000E+00 -0.00000000000E+00 -0.11311412428E+04  0.11311412428E+04  0.00000000000E+00 0. -1.
         23    2    1    2    0    0 -0.12016521653E+04  0.91878789099E+03  0.16877123439E+04  0.22680413495E+04  0.86599609083E+02 0.  0.
         11    1    3    3    0    0 -0.79716243834E+03  0.65567433916E+03  0.11750615578E+04  0.15640161306E+04  0.00000000000E+00 0. -1.
        -11    1    3    3    0    0 -0.40448972694E+03  0.26311355183E+03  0.51265078611E+03  0.70402521890E+03  0.00000000000E+00 0.  1.
         22    1    1    2    0    0  0.12016521653E+04 -0.91878789099E+03 -0.16077388604E+03  0.15211795941E+04  0.00000000000E+00 0. -1.
<mgrwt>
<rscale>  0 0.34679467E+04</rscale>
<asrwt>0</asrwt>
<pdfrwt beam="1">  1        2 0.17402173E+00 0.34679467E+04</pdfrwt>
<pdfrwt beam="2">  1       -2 0.40893534E+00 0.34679467E+04</pdfrwt>
<totfact> 0.11128316E-01</totfact>
</mgrwt>
</event>
<event>
 6    1  0.1001928E-005  0.6608772E+04  0.7818608E-02  0.7619186E-01
         -2   -1    0    0    0  501 -0.00000000000E+00  0.00000000000E+00  0.33388209215E+04  0.33388209215E+04  0.00000000000E+00 0.  1.
          2   -1    0    0  501    0  0.00000000000E+00 -0.00000000000E+00 -0.32703065971E+04  0.32703065971E+04  0.00000000000E+00 0. -1.
         23    2    1    2    0    0  0.71253775446E+03 -0.12326137467E+04  0.30156262517E+04  0.33361295944E+04  0.93339596267E+02 0.  0.
         13    1    3    3    0    0  0.34189763171E+03 -0.67225347313E+03  0.16488940464E+04  0.18131933982E+04  0.00000000000E+00 0. -1.
        -13    1    3    3    0    0  0.37064012275E+03 -0.56036027354E+03  0.13667322053E+04  0.15229361962E+04  0.00000000000E+00 0.  1.
         22    1    1    2    0    0 -0.71253775446E+03  0.12326137467E+04 -0.29471119273E+04  0.32729979242E+04  0.00000000000E+00 0. -1.
<mgrwt>
<rscale>  0 0.66087724E+04</rscale>
<asrwt>0</asrwt>
<pdfrwt beam="1">  1        2 0.50312409E+00 0.66087724E+04</pdfrwt>
<pdfrwt beam="2">  1       -2 0.51366476E+00 0.66087724E+04</pdfrwt>
<totfact> 0.10351353E-03</totfact>
</mgrwt>
</event>
<event>
 6    1  0.1001928E-005  0.4783065E+03  0.7818608E-02  0.1019602E+00
          3   -1    0    0  501    0  0.00000000000E+00  0.00000000000E+00  0.13366637575E+03  0.13366637575E+03  0.00000000000E+00 0.  1.
         -3   -1    0    0    0  501 -0.00000000000E+00 -0.00000000000E+00 -0.42788824057E+03  0.42788824057E+03  0.00000000000E+00 0. -1.
         23    2    1    2    0    0 -0.27999556000E+02  0.82746466583E+02  0.97446853137E+02  0.16026253131E+03  0.92505334368E+02 0.  0.
         11    1    3    3    0    0 -0.41167730733E+02  0.20127444803E+02  0.82775829787E+02  0.94613604122E+02  0.00000000000E+00 0.  1.
        -11    1    3    3    0    0  0.13168174733E+02  0.62619021781E+02  0.14671023351E+02  0.65648927186E+02  0.00000000000E+00 0. -1.
         22    1    1    2    0    0  0.27999556000E+02 -0.82746466583E+02 -0.39166871796E+03  0.40129208501E+03  0.00000000000E+00 0. -1.
<mgrwt>
<rscale>  0 0.47830647E+03</rscale>
<asrwt>0</asrwt>
<pdfrwt beam="1">  1        3 0.20564058E-01 0.47830647E+03</pdfrwt>
<pdfrwt beam="2">  1       -3 0.65828960E-01 0.47830647E+03</pdfrwt>
<totfact> 0.12640242E+02</totfact>
</mgrwt>
</event>
<event>
 6    1  0.1001928E-005  0.2973307E+04  0.7818608E-02  0.8251394E-01
         -2   -1    0    0    0  501 -0.00000000000E+00  0.00000000000E+00  0.10567925698E+04  0.10567925698E+04  0.00000000000E+00 0.  1.
          2   -1    0    0  501    0  0.00000000000E+00 -0.00000000000E+00 -0.20913653362E+04  0.20913653362E+04  0.00000000000E+00 0. -1.
         23    2    1    2    0    0  0.86471337266E+03 -0.11912180779E+04 -0.72735402814E+03  0.16444581090E+04  0.92026431337E+02 0.  0.
         13    1    3    3    0    0  0.56887198308E+03 -0.85362061305E+03 -0.51726620751E+03  0.11488462968E+04  0.00000000000E+00 0. -1.
        -13    1    3    3    0    0  0.29584138958E+03 -0.33759746488E+03 -0.21008782064E+03  0.49561181227E+03  0.00000000000E+00 0.  1.
         22    1    1    2    0    0 -0.86471337266E+03  0.11912180779E+04 -0.30721873827E+03  0.15036997969E+04  0.00000000000E+00 0.  1.
<mgrwt>
<rscale>  0 0.29733075E+04</rscale>
<asrwt>0</asrwt>
<pdfrwt beam="1">  1        2 0.32174851E+00 0.29733075E+04</pdfrwt>
<pdfrwt beam="2">  1       -2 0.16258347E+00 0.29733075E+04</pdfrwt>
<totfact> 0.12289892E+00</totfact>
</mgrwt>
</event>
<event>
 6    1  0.1001928E-005  0.1834042E+04  0.7818608E-02  0.8688403E-01
         -2   -1    0    0    0  501 -0.00000000000E+00  0.00000000000E+00  0.40004255716E+03  0.40004255716E+03  0.00000000000E+00 0.  1.
          2   -1    0    0  501    0  0.00000000000E+00 -0.00000000000E+00 -0.21020947344E+04  0.21020947344E+04  0.00000000000E+00 0. -1.
         23    2    1    2    0    0 -0.96427767829E+02  0.41888617098E+03  0.24890010849E+03  0.50439387464E+03  0.87738122369E+02 0.  0.
         11    1    3    3    0    0 -0.61953856410E+02  0.26673975548E+03  0.10862203850E+03  0.29459654568E+03  0.00000000000E+00 0. -1.
        -11    1    3    3    0    0 -0.34473911419E+02  0.15214641550E+03  0.14027806998E+03  0.20979732895E+03  0.00000000000E+00 0.  1.
         22    1    1    2    0    0  0.96427767829E+02 -0.41888617098E+03 -0.19509522857E+04  0.19977434169E+04  0.00000000000E+00 0. -1.
<mgrwt>
<rscale>  0 0.18340418E+04</rscale>
<asrwt>0</asrwt>
<pdfrwt beam="1">  1        2 0.32339919E+00 0.18340418E+04</pdfrwt>
<pdfrwt beam="2">  1       -2 0.61545008E-01 0.18340418E+04</pdfrwt>
<totfact> 0.13539624E+01</totfact>
</mgrwt>
</event>
<event>
 6    1  0.1001928E-005  0.1186031E+04  0.7818608E-02  0.9125172E-01
         -2   -1    0    0    0  501 -0.00000000000E+00  0.00000000000E+00  0.25936936551E+03  0.25936936551E+03  0.00000000000E+00 0.  1.
          2   -1    0    0  501    0  0.00000000000E+00 -0.00000000000E+00 -0.13558558698E+04  0.13558558698E+04  0.00000000000E+00 0. -1.
         23    2    1    2    0    0 -0.15690721035E+03  0.49775970068E+03 -0.17678659591E+03  0.55776009935E+03  0.86361077243E+02 0.  0.
         13    1    3    3    0    0 -0.83757640295E+02  0.37427260452E+03 -0.10705743525E+03  0.39819168656E+03  0.00000000000E+00 0. -1.
        -13    1    3    3    0    0 -0.73149570057E+02  0.12348709616E+03 -0.69729160657E+02  0.15956841280E+03  0.00000000000E+00 0.  1.
         22    1    1    2    0    0  0.15690721035E+03 -0.49775970068E+03 -0.91969990838E+03  0.10574651360E+04  0.00000000000E+00 0. -1.
<mgrwt>
<rscale>  0 0.11860312E+04</rscale>
<asrwt>0</asrwt>
<pdfrwt beam="1">  1        2 0.20859321E+00 0.11860312E+04</pdfrwt>
<pdfrwt beam="2">  1       -2 0.39902979E-01 0.11860312E+04</pdfrwt>
<totfact> 0.89983411E+01</totfact>
</mgrwt>
</event>
<event>
 6    1  0.1001928E-005  0.1776391E+04  0.7818608E-02  0.8718956E-01
          1   -1    0    0  501    0  0.00000000000E+00  0.00000000000E+00  0.54369074462E+03  0.54369074462E+03  0.00000000000E+00 0. -1.
         -1   -1    0    0    0  501 -0.00000000000E+00 -0.00000000000E+00 -0.14509925944E+04  0.14509925944E+04  0.00000000000E+00 0.  1.
         23    2    1    2    0    0  0.12667774409E+03  0.31446797040E+02 -0.14387165834E+04  0.14474742647E+04  0.90775478638E+02 0.  0.
         11    1    3    3    0    0  0.25877333629E+02 -0.29388667865E+02 -0.26676839726E+03  0.26962697931E+03  0.00000000000E+00 0.  1.
        -11    1    3    3    0    0  0.10080041046E+03  0.60835464905E+02 -0.11719481862E+04  0.11778472854E+04  0.00000000000E+00 0. -1.
         22    1    1    2    0    0 -0.12667774409E+03 -0.31446797040E+02  0.53141473366E+03  0.54720907434E+03  0.00000000000E+00 0. -1.
<mgrwt>
<rscale>  0 0.17763910E+04</rscale>
<asrwt>0</asrwt>
<pdfrwt beam="1">  1        1 0.83644731E-01 0.17763910E+04</pdfrwt>
<pdfrwt beam="2">  1       -1 0.22322963E+00 0.17763910E+04</pdfrwt>
<totfact> 0.39030197E+00</totfact>
</mgrwt>
</event>
<event>
 6    1  0.1001928E-005  0.2320348E+04  0.7818608E-02  0.8469941E-01
          2   -1    0    0  501    0  0.00000000000E+00  0.00000000000E+00  0.28864417351E+04  0.28864417351E+04  0.00000000000E+00 0. -1.
         -2   -1    0    0    0  501 -0.00000000000E+00 -0.00000000000E+00 -0.46631941048E+03  0.46631941048E+03  0.00000000000E+00 0.  1.
         23    2    1    2    0    0  0.18199339908E+02 -0.55919280744E+03  0.26775629098E+04  0.27368849674E+04  0.90379075060E+02 0.  0.
         13    1    3    3    0    0  0.22482162763E+02 -0.47785033070E+03  0.21129437615E+04  0.21664204868E+04  0.00000000000E+00 0. -1.
        -13    1    3    3    0    0 -0.42828228546E+01 -0.81342476742E+02  0.56461914824E+03  0.57046448063E+03  0.00000000000E+00 0.  1.
         22    1    1    2    0    0 -0.18199339908E+02  0.55919280744E+03 -0.25744058520E+03  0.61587617812E+03  0.00000000000E+00 0.  1.
<mgrwt>
<rscale>  0 0.23203481E+04</rscale>
<asrwt>0</asrwt>
<pdfrwt beam="1">  1        2 0.44406795E+00 0.23203481E+04</pdfrwt>
<pdfrwt beam="2">  1       -2 0.71741449E-01 0.23203481E+04</pdfrwt>
<totfact> 0.32666858E+00</totfact>
</mgrwt>
</event>
<event>
 6    1  0.1001928E-005  0.1608580E+04  0.7818608E-02  0.8815294E-01
          2   -1    0    0  501    0  0.00000000000E+00  0.00000000000E+00  0.65662214404E+03  0.65662214404E+03  0.00000000000E+00 0. -1.
         -2   -1    0    0    0  501 -0.00000000000E+00 -0.00000000000E+00 -0.98516732660E+03  0.98516732660E+03  0.00000000000E+00 0.  1.
         23    2    1    2    0    0  0.14494088125E+03  0.22797502421E+03  0.60544533182E+03  0.66951443153E+03  0.93300876150E+02 0.  0.
         11    1    3    3    0    0  0.13637306466E+03  0.14239636059E+03  0.46115343870E+03  0.50153447568E+03  0.00000000000E+00 0.  1.
        -11    1    3    3    0    0  0.85678165873E+01  0.85578663616E+02  0.14429189312E+03  0.16797995585E+03  0.00000000000E+00 0. -1.
         22    1    1    2    0    0 -0.14494088125E+03 -0.22797502421E+03 -0.93399051438E+03  0.97227503910E+03  0.00000000000E+00 0.  1.
<mgrwt>
<rscale>  0 0.16085803E+04</rscale>
<asrwt>0</asrwt>
<pdfrwt beam="1">  1        2 0.10101879E+00 0.16085803E+04</pdfrwt>
<pdfrwt beam="2">  1       -2 0.15156420E+00 0.16085803E+04</pdfrwt>
<totfact> 0.12393627E+01</totfact>
</mgrwt>
</event>
<event>
 6    1  0.1001928E-005  0.3225960E+04  0.7818608E-02  0.8181995E-01
         -2   -1    0    0    0  501 -0.00000000000E+00  0.00000000000E+00  0.97492570858E+03  0.97492570858E+03  0.00000000000E+00 0.  1.
          2   -1    0    0  501    0  0.00000000000E+00 -0.00000000000E+00 -0.26686173831E+04  0.26686173831E+04  0.00000000000E+00 0. -1.
         23    2    1    2    0    0 -0.64877462069E+03  0.14144261551E+04 -0.37377871695E+03  0.16030333337E+04  0.92170945608E+02 0.  0.
         11    1    3    3    0    0 -0.19710725017E+03  0.35945983844E+03 -0.69638196954E+02  0.41582703375E+03  0.00000000000E+00 0.  1.
        -11    1    3    3    0    0 -0.45166737051E+03  0.10549663166E+04 -0.30414052000E+03  0.11872063000E+04  0.00000000000E+00 0. -1.
         22    1    1    2    0    0  0.64877462069E+03 -0.14144261551E+04 -0.13199129576E+04  0.20405097579E+04  0.00000000000E+00 0.  1.
<mgrwt>
<rscale>  0 0.32259595E+04</rscale>
<asrwt>0</asrwt>
<pdfrwt beam="1">  1        2 0.41055652E+00 0.32259595E+04</pdfrwt>
<pdfrwt beam="2">  1       -2 0.14998857E+00 0.32259595E+04</pdfrwt>
<totfact> 0.69780632E-01</totfact>
</mgrwt>
</event>
<event>
 6    1  0.1001928E-005  0.3158425E+04  0.7818608E-02  0.8199884E-01
         -2   -1    0    0    0  501 -0.00000000000E+00  0.00000000000E+00  0.15823318985E+04  0.15823318985E+04  0.00000000000E+00 0.  1.
          2   -1    0    0  501    0  0.00000000000E+00 -0.00000000000E+00 -0.15760992529E+04  0.15760992529E+04  0.00000000000E+00 0. -1.
         23    2    1    2    0    0 -0.11386740544E+04  0.96764524117E+03  0.51000161376E+03  0.15815040484E+04  0.90208059969E+02 0.  0.
         13    1    3    3    0    0 -0.92273287155E+03  0.82767889950E+03  0.41448026730E+03  0.13070127027E+04  0.00000000000E+00 0. -1.
        -13    1    3    3    0    0 -0.21594118281E+03  0.13996634167E+03  0.95521346461E+02  0.27449134570E+03  0.00000000000E+00 0.  1.
         22    1    1    2    0    0  0.11386740544E+04 -0.96764524117E+03 -0.50376896815E+03  0.15769271030E+04  0.00000000000E+00 0. -1.
<mgrwt>
<rscale>  0 0.31584250E+04</rscale>
<asrwt>0</asrwt>
<pdfrwt beam="1">  1        2 0.24247681E+00 0.31584250E+04</pdfrwt>
<pdfrwt beam="2">  1       -2 0.24343568E+00 0.31584250E+04</pdfrwt>
<totfact> 0.68551237E-01</totfact>
</mgrwt>
</event>
<event>
 6    1  0.1001928E-005  0.1354656E+04  0.7818608E-02  0.8987311E-01
          1   -1    0    0  501    0  0.00000000000E+00  0.00000000000E+00  0.62886725166E+03  0.62886725166E+03  0.00000000000E+00 0. -1.
         -1   -1    0    0    0  501 -0.00000000000E+00 -0.00000000000E+00 -0.72952304593E+03  0.72952304593E+03  0.00000000000E+00 0.  1.
         23    2    1    2    0    0  0.38670987489E+02  0.22458405091E+03 -0.68789429998E+03  0.72848355546E+03  0.74540468430E+02 0.  0.
         13    1    3    3    0    0  0.55029669394E+02  0.15293230075E+03 -0.52919925337E+03  0.55359588410E+03  0.00000000000E+00 0.  1.
        -13    1    3    3    0    0 -0.16358681906E+02  0.71651750161E+02 -0.15869504662E+03  0.17488767136E+03  0.00000000000E+00 0. -1.
         22    1    1    2    0    0 -0.38670987489E+02 -0.22458405091E+03  0.58723850570E+03  0.62990674213E+03  0.00000000000E+00 0. -1.
<mgrwt>
<rscale>  0 0.13546559E+04</rscale>
<asrwt>0</asrwt>
<pdfrwt beam="1">  1        1 0.96748808E-01 0.13546559E+04</pdfrwt>
<pdfrwt beam="2">  1       -1 0.11223431E+00 0.13546559E+04</pdfrwt>
<totfact> 0.22777035E+01</totfact>
</mgrwt>
</event>
<event>
 6    1  0.1001928E-005  0.3243996E+04  0.7818608E-02  0.8177294E-01
          2   -1    0    0  501    0  0.00000000000E+00  0.00000000000E+00  0.24078143713E+04  0.24078143713E+04  0.00000000000E+00 0. -1.
         -2   -1    0    0    0  501 -0.00000000000E+00 -0.00000000000E+00 -0.10926412748E+04  0.10926412748E+04  0.00000000000E+00 0.  1.
         23    2    1    2    0    0  0.10302071846E+04  0.10126322927E+04 -0.13472686874E+03  0.14537605264E+04  0.92289412584E+02 0.  0.
         11    1    3    3    0    0  0.27226230826E+03  0.25711246705E+03  0.48863759002E+01  0.37450962855E+03  0.00000000000E+00 0. -1.
        -11    1    3    3    0    0  0.75794487634E+03  0.75551982564E+03 -0.13961324464E+03  0.10792508979E+04  0.00000000000E+00 0.  1.
         22    1    1    2    0    0 -0.10302071846E+04 -0.10126322927E+04  0.14498999652E+04  0.20466951196E+04  0.00000000000E+00 0. -1.
<mgrwt>
<rscale>  0 0.32439959E+04</rscale>
<asrwt>0</asrwt>
<pdfrwt beam="1">  1        2 0.37043298E+00 0.32439959E+04</pdfrwt>
<pdfrwt beam="2">  1       -2 0.16809866E+00 0.32439959E+04</pdfrwt>
<totfact> 0.72588545E-01</totfact>
</mgrwt>
</event>
<event>
 6    1  0.1001928E-005  0.1587782E+04  0.7818608E-02  0.8828089E-01
          2   -1    0    0  501    0  0.00000000000E+00  0.00000000000E+00  0.54051956801E+03  0.54051956801E+03  0.00000000000E+00 0. -1.
         -2   -1    0    0    0  501 -0.00000000000E+00 -0.00000000000E+00 -0.11660322950E+04  0.11660322950E+04  0.00000000000E+00 0.  1.
         23    2    1    2    0    0  0.36534793596E+03 -0.11801698126E+03 -0.10581402534E+04  0.11281284033E+04  0.74871732613E+02 0.  0.
         11    1    3    3    0    0  0.20646050085E+03 -0.51678487430E+02 -0.68234204499E+03  0.71476378674E+03  0.00000000000E+00 0.  1.
        -11    1    3    3    0    0  0.15888743511E+03 -0.66338493832E+02 -0.37579820842E+03  0.41336461659E+03  0.00000000000E+00 0. -1.
         22    1    1    2    0    0 -0.36534793596E+03  0.11801698126E+03  0.43262752638E+03  0.57842345972E+03  0.00000000000E+00 0. -1.
<mgrwt>
<rscale>  0 0.15877824E+04</rscale>
<asrwt>0</asrwt>
<pdfrwt beam="1">  1        2 0.83156858E-01 0.15877824E+04</pdfrwt>
<pdfrwt beam="2">  1       -2 0.17938958E+00 0.15877824E+04</pdfrwt>
<totfact> 0.98663598E+00</totfact>
</mgrwt>
</event>
<event>
 6    1  0.1135300E-005  0.2994504E+04  0.7818608E-02  0.8245302E-01
         -1   -1    0    0    0  501 -0.00000000000E+00  0.00000000000E+00  0.19253810009E+04  0.19253810009E+04  0.00000000000E+00 0.  1.
          1   -1    0    0  501    0  0.00000000000E+00 -0.00000000000E+00 -0.11643219568E+04  0.11643219568E+04  0.00000000000E+00 0. -1.
         23    2    1    2    0    0 -0.63361024492E+03 -0.17764779663E+03 -0.10052431630E+04  0.12048039766E+04  0.89543973997E+02 0.  0.
         13    1    3    3    0    0 -0.23772292661E+03 -0.28388360004E+02 -0.32371299847E+03  0.40262661884E+03  0.00000000000E+00 0. -1.
        -13    1    3    3    0    0 -0.39588731831E+03 -0.14925943662E+03 -0.68153016452E+03  0.80217735780E+03  0.00000000000E+00 0.  1.
         22    1    1    2    0    0  0.63361024492E+03  0.17764779663E+03  0.17663022071E+04  0.18848989811E+04  0.00000000000E+00 0.  1.
<mgrwt>
<rscale>  0 0.29945039E+04</rscale>
<asrwt>0</asrwt>
<pdfrwt beam="1">  1        1 0.17912645E+00 0.29945039E+04</pdfrwt>
<pdfrwt beam="2">  1       -1 0.29621246E+00 0.29945039E+04</pdfrwt>
<totfact> 0.33772813E-01</totfact>
</mgrwt>
</event>
<event>
 6    1  0.1001928E-005  0.1896570E+04  0.7818608E-02  0.8656566E-01
          2   -1    0    0  501    0  0.00000000000E+00  0.00000000000E+00  0.10763433687E+04  0.10763433687E+04  0.00000000000E+00 0. -1.
         -2   -1    0    0    0  501 -0.00000000000E+00 -0.00000000000E+00 -0.83546221256E+03  0.83546221256E+03  0.00000000000E+00 0.  1.
         23    2    1    2    0    0 -0.56823239984E+03 -0.47702463911E+03  0.71235784851E+03  0.10327544804E+04  0.93207005967E+02 0.  0.
         13    1    3    3    0    0 -0.10148952416E+03 -0.13209447053E+03  0.13938303885E+03  0.21720198936E+03  0.00000000000E+00 0. -1.
        -13    1    3    3    0    0 -0.46674287568E+03 -0.34493016858E+03  0.57297480966E+03  0.81555249107E+03  0.00000000000E+00 0.  1.
         22    1    1    2    0    0  0.56823239984E+03  0.47702463911E+03 -0.47147669232E+03  0.87905110088E+03  0.00000000000E+00 0.  1.
<mgrwt>
<rscale>  0 0.18965698E+04</rscale>
<asrwt>0</asrwt>
<pdfrwt beam="1">  1        2 0.16559129E+00 0.18965698E+04</pdfrwt>
<pdfrwt beam="2">  1       -2 0.12853265E+00 0.18965698E+04</pdfrwt>
<totfact> 0.94367580E+00</totfact>
</mgrwt>
</event>
<event>
 6    1  0.1001928E-005  0.1830728E+04  0.7818608E-02  0.8690127E-01
         -1   -1    0    0    0  501 -0.00000000000E+00  0.00000000000E+00  0.17200696608E+04  0.17200696608E+04  0.00000000000E+00 0.  1.
          1   -1    0    0  501    0  0.00000000000E+00 -0.00000000000E+00 -0.48712631273E+03  0.48712631273E+03  0.00000000000E+00 0. -1.
         23    2    1    2    0    0  0.46752844952E+03 -0.70659704440E+03  0.10295160146E+04  0.13358493638E+04  0.82024777036E+02 0.  0.
         11    1    3    3    0    0  0.46831490736E+03 -0.69594006299E+03  0.10047926003E+04  0.13089154263E+04  0.00000000000E+00 0. -1.
        -11    1    3    3    0    0 -0.78645783052E+00 -0.10656981414E+02  0.24723414364E+02  0.26933937451E+02  0.00000000000E+00 0.  1.
         22    1    1    2    0    0 -0.46752844952E+03  0.70659704440E+03  0.20342733340E+03  0.87134660971E+03  0.00000000000E+00 0.  1.
<mgrwt>
<rscale>  0 0.18307279E+04</rscale>
<asrwt>0</asrwt>
<pdfrwt beam="1">  1        1 0.74942511E-01 0.18307279E+04</pdfrwt>
<pdfrwt beam="2">  1       -1 0.26462610E+00 0.18307279E+04</pdfrwt>
<totfact> 0.24218825E+00</totfact>
</mgrwt>
</event>
<event>
 6    1  0.1001928E-005  0.8250607E+03  0.7818608E-02  0.9524435E-01
          1   -1    0    0  501    0  0.00000000000E+00  0.00000000000E+00  0.41660271527E+03  0.41660271527E+03  0.00000000000E+00 0. -1.
         -1   -1    0    0    0  501 -0.00000000000E+00 -0.00000000000E+00 -0.40849778487E+03  0.40849778487E+03  0.00000000000E+00 0.  1.
         23    2    1    2    0    0  0.15374904768E+03 -0.83114655620E+02  0.37250085998E+03  0.42095793973E+03  0.88892523271E+02 0.  0.
         13    1    3    3    0    0  0.12873184926E+03 -0.70399518935E+02  0.21077448239E+03  0.25681484324E+03  0.00000000000E+00 0.  1.
        -13    1    3    3    0    0  0.25017198419E+02 -0.12715136685E+02  0.16172637759E+03  0.16414309649E+03  0.00000000000E+00 0. -1.
         22    1    1    2    0    0 -0.15374904768E+03  0.83114655620E+02 -0.36439592959E+03  0.40414256042E+03  0.00000000000E+00 0.  1.
<mgrwt>
<rscale>  0 0.82506069E+03</rscale>
<asrwt>0</asrwt>
<pdfrwt beam="1">  1        1 0.64092725E-01 0.82506069E+03</pdfrwt>
<pdfrwt beam="2">  1       -1 0.62845813E-01 0.82506069E+03</pdfrwt>
<totfact> 0.14756792E+02</totfact>
</mgrwt>
</event>
<event>
 6    1  0.1001928E-005  0.4497947E+04  0.7818608E-02  0.7910996E-01
          2   -1    0    0  501    0  0.00000000000E+00  0.00000000000E+00  0.20750679923E+04  0.20750679923E+04  0.00000000000E+00 0. -1.
         -2   -1    0    0    0  501 -0.00000000000E+00 -0.00000000000E+00 -0.24374530884E+04  0.24374530884E+04  0.00000000000E+00 0.  1.
         23    2    1    2    0    0  0.21171409026E+04  0.65324180129E+03 -0.56285873120E+03  0.22878412991E+04  0.91637362989E+02 0.  0.
         11    1    3    3    0    0  0.17619056250E+04  0.53976407453E+03 -0.43261830747E+03  0.18928326095E+04  0.00000000000E+00 0. -1.
        -11    1    3    3    0    0  0.35523527756E+03  0.11347772676E+03 -0.13024042373E+03  0.39500868961E+03  0.00000000000E+00 0.  1.
         22    1    1    2    0    0 -0.21171409026E+04 -0.65324180129E+03  0.20047363512E+03  0.22246797816E+04  0.00000000000E+00 0. -1.
<mgrwt>
<rscale>  0 0.44979466E+04</rscale>
<asrwt>0</asrwt>
<pdfrwt beam="1">  1        2 0.31924123E+00 0.44979466E+04</pdfrwt>
<pdfrwt beam="2">  1       -2 0.37499278E+00 0.44979466E+04</pdfrwt>
<totfact> 0.49586710E-02</totfact>
</mgrwt>
</event>
<event>
 6    1  0.1001928E-005  0.3304398E+04  0.7818608E-02  0.8161777E-01
          1   -1    0    0  501    0  0.00000000000E+00  0.00000000000E+00  0.28603373556E+04  0.28603373556E+04  0.00000000000E+00 0. -1.
         -1   -1    0    0    0  501 -0.00000000000E+00 -0.00000000000E+00 -0.95434932913E+03  0.95434932913E+03  0.00000000000E+00 0.  1.
         23    2    1    2    0    0 -0.11404849947E+04  0.80934994565E+02  0.23286021365E+04  0.25957284481E+04  0.90342511033E+02 0.  0.
         13    1    3    3    0    0 -0.63196548866E+03  0.85661756651E+02  0.12526297666E+04  0.14056314053E+04  0.00000000000E+00 0.  1.
        -13    1    3    3    0    0 -0.50851950607E+03 -0.47267620865E+01  0.10759723700E+04  0.11900970428E+04  0.00000000000E+00 0. -1.
         22    1    1    2    0    0  0.11404849947E+04 -0.80934994565E+02 -0.42261411010E+03  0.12189582366E+04  0.00000000000E+00 0.  1.
<mgrwt>
<rscale>  0 0.33043977E+04</rscale>
<asrwt>0</asrwt>
<pdfrwt beam="1">  1        1 0.44005190E+00 0.33043977E+04</pdfrwt>
<pdfrwt beam="2">  1       -1 0.14682297E+00 0.33043977E+04</pdfrwt>
<totfact> 0.23108351E-01</totfact>
</mgrwt>
</event>
<event>
 6    1  0.1001928E-005  0.3489393E+04  0.7818608E-02  0.8116308E-01
          2   -1    0    0  501    0  0.00000000000E+00  0.00000000000E+00  0.38339085018E+04  0.38339085018E+04  0.00000000000E+00 0. -1.
         -2   -1    0    0    0  501 -0.00000000000E+00 -0.00000000000E+00 -0.79395910291E+03  0.79395910291E+03  0.00000000000E+00 0.  1.
         23    2    1    2    0    0 -0.12088630269E+04  0.37931758866E+03  0.31092848668E+04  0.33589944597E+04  0.99798527709E+02 0.  0.
         11    1    3    3    0    0 -0.97048960773E+03  0.33926669627E+03  0.25707559318E+04  0.27687069239E+04  0.00000000000E+00 0. -1.
        -11    1    3    3    0    0 -0.23837341920E+03  0.40050892394E+02  0.53852893504E+03  0.59028753573E+03  0.00000000000E+00 0.  1.
         22    1    1    2    0    0  0.12088630269E+04 -0.37931758866E+03 -0.69335467976E+02  0.12688731450E+04  0.00000000000E+00 0.  1.
<mgrwt>
<rscale>  0 0.34893934E+04</rscale>
<asrwt>0</asrwt>
<pdfrwt beam="1">  1        2 0.58983207E+00 0.34893934E+04</pdfrwt>
<pdfrwt beam="2">  1       -2 0.12214756E+00 0.34893934E+04</pdfrwt>
<totfact> 0.19286286E-01</totfact>
</mgrwt>
</event>
<event>
 6    1  0.1001928E-005  0.3298030E+04  0.7818608E-02  0.8163397E-01
          2   -1    0    0  501    0  0.00000000000E+00  0.00000000000E+00  0.19138043325E+04  0.19138043325E+04  0.00000000000E+00 0. -1.
         -2   -1    0    0    0  501 -0.00000000000E+00 -0.00000000000E+00 -0.14208614046E+04  0.14208614046E+04  0.00000000000E+00 0.  1.
         23    2    1    2    0    0  0.17746683131E+03  0.11022450363E+04 -0.97869103431E+03  0.14874664747E+04  0.91004266676E+02 0.  0.
         13    1    3    3    0    0  0.11212270133E+03  0.74631938035E+03 -0.60481033492E+03  0.96713993758E+03  0.00000000000E+00 0.  1.
        -13    1    3    3    0    0  0.65344129987E+02  0.35592565593E+03 -0.37388069939E+03  0.52032653713E+03  0.00000000000E+00 0. -1.
         22    1    1    2    0    0 -0.17746683131E+03 -0.11022450363E+04  0.14716339622E+04  0.18471992624E+04  0.00000000000E+00 0. -1.
<mgrwt>
<rscale>  0 0.32980301E+04</rscale>
<asrwt>0</asrwt>
<pdfrwt beam="1">  1        2 0.29443144E+00 0.32980301E+04</pdfrwt>
<pdfrwt beam="2">  1       -2 0.21859406E+00 0.32980301E+04</pdfrwt>
<totfact> 0.62879268E-01</totfact>
</mgrwt>
</event>
<event>
 6    1  0.1001928E-005  0.1253434E+04  0.7818608E-02  0.9067330E-01
         -2   -1    0    0    0  501 -0.00000000000E+00  0.00000000000E+00  0.15005178072E+03  0.15005178072E+03  0.00000000000E+00 0. -1.
          2   -1    0    0  501    0  0.00000000000E+00 -0.00000000000E+00 -0.26175925395E+04  0.26175925395E+04  0.00000000000E+00 0.  1.
         23    2    1    2    0    0  0.21021794245E+02  0.60925844092E+03 -0.94892528150E+03  0.11312364458E+04  0.87171914857E+02 0.  0.
         11    1    3    3    0    0  0.17395584582E+02  0.18845602677E+03 -0.22628653807E+03  0.29499809780E+03  0.00000000000E+00 0. -1.
        -11    1    3    3    0    0  0.36262096623E+01  0.42080241415E+03 -0.72263874343E+03  0.83623834799E+03  0.00000000000E+00 0.  1.
         22    1    1    2    0    0 -0.21021794245E+02 -0.60925844092E+03 -0.15186154773E+04  0.16364078744E+04  0.00000000000E+00 0. -1.
<mgrwt>
<rscale>  0 0.12534344E+04</rscale>
<asrwt>0</asrwt>
<pdfrwt beam="1">  1        2 0.40270653E+00 0.12534344E+04</pdfrwt>
<pdfrwt beam="2">  1       -2 0.23084890E-01 0.12534344E+04</pdfrwt>
<totfact> 0.48738256E+01</totfact>
</mgrwt>
</event>
<event>
 6    1  0.1001928E-005  0.1420391E+04  0.7818608E-02  0.8939189E-01
          2   -1    0    0  501    0  0.00000000000E+00  0.00000000000E+00  0.10316074397E+04  0.10316074397E+04  0.00000000000E+00 0. -1.
         -2   -1    0    0    0  501 -0.00000000000E+00 -0.00000000000E+00 -0.48892393243E+03  0.48892393243E+03  0.00000000000E+00 0.  1.
         23    2    1    2    0    0  0.17907811908E+03  0.61643372306E+03  0.59090627369E+03  0.87680398972E+03  0.86922404771E+02 0.  0.
         13    1    3    3    0    0 -0.33924179040E+01  0.24718642011E+02  0.75121564767E+01  0.26056712322E+02  0.00000000000E+00 0.  1.
        -13    1    3    3    0    0  0.18247053698E+03  0.59171508105E+03  0.58339411721E+03  0.85074727740E+03  0.00000000000E+00 0. -1.
         22    1    1    2    0    0 -0.17907811908E+03 -0.61643372306E+03 -0.48222766419E+02  0.64372738241E+03  0.00000000000E+00 0.  1.
<mgrwt>
<rscale>  0 0.14203909E+04</rscale>
<asrwt>0</asrwt>
<pdfrwt beam="1">  1        2 0.15870884E+00 0.14203909E+04</pdfrwt>
<pdfrwt beam="2">  1       -2 0.75219067E-01 0.14203909E+04</pdfrwt>
<totfact> 0.37081008E+01</totfact>
</mgrwt>
</event>
<event>
 6    1  0.1001928E-005  0.5282029E+03  0.7818608E-02  0.1006669E+00
          1   -1    0    0  501    0  0.00000000000E+00  0.00000000000E+00  0.15570187602E+04  0.15570187602E+04  0.00000000000E+00 0. -1.
         -1   -1    0    0    0  501 -0.00000000000E+00 -0.00000000000E+00 -0.44796873608E+02  0.44796873608E+02  0.00000000000E+00 0.  1.
         23    2    1    2    0    0 -0.23151566510E+03 -0.73027840630E+02  0.59695441547E+03  0.65490111159E+03  0.11665471750E+03 0.  0.
         11    1    3    3    0    0 -0.20416670754E+03 -0.16199949869E+02  0.48365084409E+03  0.52522816169E+03  0.00000000000E+00 0. -1.
        -11    1    3    3    0    0 -0.27348957564E+02 -0.56827890760E+02  0.11330357138E+03  0.12967294990E+03  0.00000000000E+00 0.  1.
         22    1    1    2    0    0  0.23151566510E+03  0.73027840630E+02  0.91526747112E+03  0.94691452221E+03  0.00000000000E+00 0. -1.
<mgrwt>
<rscale>  0 0.52820289E+03</rscale>
<asrwt>0</asrwt>
<pdfrwt beam="1">  1        1 0.23954131E+00 0.52820289E+03</pdfrwt>
<pdfrwt beam="2">  1       -1 0.68918279E-02 0.52820289E+03</pdfrwt>
<totfact> 0.69672848E+02</totfact>
</mgrwt>
</event>
<event>
 6    1  0.1001928E-005  0.7723805E+04  0.7818608E-02  0.7507071E-01
         -2   -1    0    0    0  501 -0.00000000000E+00  0.00000000000E+00  0.37881012992E+04  0.37881012992E+04  0.00000000000E+00 0.  1.
          2   -1    0    0  501    0  0.00000000000E+00 -0.00000000000E+00 -0.39371415126E+04  0.39371415126E+04  0.00000000000E+00 0. -1.
         23    2    1    2    0    0 -0.22236391972E+04 -0.42379069101E+03  0.30544119457E+04  0.38027084824E+04  0.83604061089E+02 0.  0.
         11    1    3    3    0    0 -0.14314040553E+04 -0.29400371654E+03  0.19136172735E+04  0.24077555574E+04  0.00000000000E+00 0. -1.
        -11    1    3    3    0    0 -0.79223514192E+03 -0.12978697448E+03  0.11407946722E+04  0.13949529250E+04  0.00000000000E+00 0.  1.
         22    1    1    2    0    0  0.22236391972E+04  0.42379069101E+03 -0.32034521592E+04  0.39225343294E+04  0.00000000000E+00 0. -1.
<mgrwt>
<rscale>  0 0.77238050E+04</rscale>
<asrwt>0</asrwt>
<pdfrwt beam="1">  1        2 0.60571408E+00 0.77238050E+04</pdfrwt>
<pdfrwt beam="2">  1       -2 0.58278482E+00 0.77238050E+04</pdfrwt>
<totfact> 0.13947868E-04</totfact>
</mgrwt>
</event>
<event>
 6    1  0.1001928E-005  0.1098895E+04  0.7818608E-02  0.9206269E-01
         -2   -1    0    0    0  501 -0.00000000000E+00  0.00000000000E+00  0.10498512208E+03  0.10498512208E+03  0.00000000000E+00 0.  1.
          2   -1    0    0  501    0  0.00000000000E+00 -0.00000000000E+00 -0.28755752666E+04  0.28755752666E+04  0.00000000000E+00 0. -1.
         23    2    1    2    0    0 -0.23756112835E+02  0.19560404511E+03 -0.27749641037E+04  0.27834704933E+04  0.91961485621E+02 0.  0.
         11    1    3    3    0    0  0.35293041861E+02  0.69739469294E+02 -0.10643403384E+04  0.10672064226E+04  0.00000000000E+00 0.  1.
        -11    1    3    3    0    0 -0.59049154697E+02  0.12586457582E+03 -0.17106237653E+04  0.17162640707E+04  0.00000000000E+00 0. -1.
         22    1    1    2    0    0  0.23756112835E+02 -0.19560404511E+03  0.43739591506E+01  0.19708989543E+03  0.00000000000E+00 0.  1.
<mgrwt>
<rscale>  0 0.10988951E+04</rscale>
<asrwt>0</asrwt>
<pdfrwt beam="1">  1        2 0.44239621E+00 0.10988951E+04</pdfrwt>
<pdfrwt beam="2">  1       -2 0.16151557E-01 0.10988951E+04</pdfrwt>
<totfact> 0.64969353E+01</totfact>
</mgrwt>
</event>
<event>
 6    1  0.1001928E-005  0.1358257E+04  0.7818608E-02  0.8984601E-01
         -2   -1    0    0    0  501 -0.00000000000E+00  0.00000000000E+00  0.98030810918E+03  0.98030810918E+03  0.00000000000E+00 0.  1.
          2   -1    0    0  501    0  0.00000000000E+00 -0.00000000000E+00 -0.47048006770E+03  0.47048006770E+03  0.00000000000E+00 0. -1.
         23    2    1    2    0    0  0.34174783194E+03  0.13936161550E+03  0.86110191595E+03  0.94127215614E+03  0.91013854732E+02 0.  0.
         13    1    3    3    0    0  0.52095499129E+02  0.32914091170E+02  0.23928389641E+03  0.24709120079E+03  0.00000000000E+00 0. -1.
        -13    1    3    3    0    0  0.28965233281E+03  0.10644752433E+03  0.62181801954E+03  0.69418095535E+03  0.00000000000E+00 0.  1.
         22    1    1    2    0    0 -0.34174783194E+03 -0.13936161550E+03 -0.35127387448E+03  0.50951602075E+03  0.00000000000E+00 0. -1.
<mgrwt>
<rscale>  0 0.13582569E+04</rscale>
<asrwt>0</asrwt>
<pdfrwt beam="1">  1        2 0.72381549E-01 0.13582569E+04</pdfrwt>
<pdfrwt beam="2">  1       -2 0.15081663E+00 0.13582569E+04</pdfrwt>
<totfact> 0.19032824E+01</totfact>
</mgrwt>
</event>
<event>
 6    1  0.1001928E-005  0.1835259E+04  0.7818608E-02  0.8687771E-01
         -2   -1    0    0    0  501 -0.00000000000E+00  0.00000000000E+00  0.85326411948E+03  0.85326411948E+03  0.00000000000E+00 0.  1.
          2   -1    0    0  501    0  0.00000000000E+00 -0.00000000000E+00 -0.98684983830E+03  0.98684983830E+03  0.00000000000E+00 0. -1.
         23    2    1    2    0    0 -0.18808508746E+03  0.42536164171E+03  0.72361437024E+03  0.86487013234E+03  0.89855787924E+02 0.  0.
         13    1    3    3    0    0 -0.14224988040E+03  0.35371281609E+03  0.64388704738E+03  0.74829026088E+03  0.00000000000E+00 0.  1.
        -13    1    3    3    0    0 -0.45835207055E+02  0.71648825616E+02  0.79727322862E+02  0.11657987146E+03  0.00000000000E+00 0. -1.
         22    1    1    2    0    0  0.18808508746E+03 -0.42536164171E+03 -0.85720008907E+03  0.97524382544E+03  0.00000000000E+00 0. -1.
<mgrwt>
<rscale>  0 0.18352586E+04</rscale>
<asrwt>0</asrwt>
<pdfrwt beam="1">  1        2 0.15182305E+00 0.18352586E+04</pdfrwt>
<pdfrwt beam="2">  1       -2 0.13127140E+00 0.18352586E+04</pdfrwt>
<totfact> 0.10245479E+01</totfact>
</mgrwt>
</event>
<event>
 6    1  0.1001928E-005  0.3992281E+04  0.7818608E-02  0.8006106E-01
          2   -1    0    0  501    0  0.00000000000E+00  0.00000000000E+00  0.20267539357E+04  0.20267539357E+04  0.00000000000E+00 0. -1.
         -2   -1    0    0    0  501 -0.00000000000E+00 -0.00000000000E+00 -0.19659895879E+04  0.19659895879E+04  0.00000000000E+00 0.  1.
         23    2    1    2    0    0 -0.11526892643E+04 -0.15360446533E+04 -0.51008331522E+03  0.19892483848E+04  0.93799952784E+02 0.  0.
         11    1    3    3    0    0 -0.92290769645E+03 -0.12414389683E+04 -0.37273419992E+03  0.15911819858E+04  0.00000000000E+00 0. -1.
        -11    1    3    3    0    0 -0.22978156783E+03 -0.29460568498E+03 -0.13734911530E+03  0.39806639900E+03  0.00000000000E+00 0.  1.
         22    1    1    2    0    0  0.11526892643E+04  0.15360446533E+04  0.57084766302E+03  0.20034951388E+04  0.00000000000E+00 0. -1.
<mgrwt>
<rscale>  0 0.39922811E+04</rscale>
<asrwt>0</asrwt>
<pdfrwt beam="1">  1        2 0.31180830E+00 0.39922811E+04</pdfrwt>
<pdfrwt beam="2">  1       -2 0.30245993E+00 0.39922811E+04</pdfrwt>
<totfact> 0.15645187E-01</totfact>
</mgrwt>
</event>
<event>
 6    1  0.1001928E-005  0.3857362E+04  0.7818608E-02  0.8033956E-01
          2   -1    0    0  501    0  0.00000000000E+00  0.00000000000E+00  0.18007107210E+04  0.18007107210E+04  0.00000000000E+00 0. -1.
         -2   -1    0    0    0  501 -0.00000000000E+00 -0.00000000000E+00 -0.20657451812E+04  0.20657451812E+04  0.00000000000E+00 0.  1.
         23    2    1    2    0    0 -0.28073142289E+03 -0.11738107545E+04 -0.16391511946E+04  0.20375659057E+04  0.90644149798E+02 0.  0.
         11    1    3    3    0    0 -0.19478296213E+03 -0.72279241243E+03 -0.10799643414E+04  0.13140366252E+04  0.00000000000E+00 0.  1.
        -11    1    3    3    0    0 -0.85948460756E+02 -0.45101834212E+03 -0.55918685324E+03  0.72352928045E+03  0.00000000000E+00 0. -1.
         22    1    1    2    0    0  0.28073142289E+03  0.11738107545E+04  0.13741167344E+04  0.18288899964E+04  0.00000000000E+00 0. -1.
<mgrwt>
<rscale>  0 0.38573615E+04</rscale>
<asrwt>0</asrwt>
<pdfrwt beam="1">  1        2 0.27703242E+00 0.38573615E+04</pdfrwt>
<pdfrwt beam="2">  1       -2 0.31780695E+00 0.38573615E+04</pdfrwt>
<totfact> 0.16993753E-01</totfact>
</mgrwt>
</event>
<event>
 6    1  0.1001928E-005  0.2649695E+04  0.7818608E-02  0.8351514E-01
          2   -1    0    0  501    0  0.00000000000E+00  0.00000000000E+00  0.15749766867E+04  0.15749766867E+04  0.00000000000E+00 0. -1.
         -2   -1    0    0    0  501 -0.00000000000E+00 -0.00000000000E+00 -0.11144423953E+04  0.11144423953E+04  0.00000000000E+00 0.  1.
         23    2    1    2    0    0  0.12600213077E+04 -0.25649718126E+03 -0.86790872425E+02  0.12919179782E+04  0.89860485739E+02 0.  0.
         11    1    3    3    0    0  0.54644486297E+03 -0.76032748912E+02 -0.65317442287E+02  0.55556217964E+03  0.00000000000E+00 0.  1.
        -11    1    3    3    0    0  0.71357644478E+03 -0.18046443235E+03 -0.21473430138E+02  0.73635579857E+03  0.00000000000E+00 0. -1.
         22    1    1    2    0    0 -0.12600213077E+04  0.25649718126E+03  0.54732516388E+03  0.13975011038E+04  0.00000000000E+00 0. -1.
<mgrwt>
<rscale>  0 0.26496949E+04</rscale>
<asrwt>0</asrwt>
<pdfrwt beam="1">  1        2 0.24230410E+00 0.26496949E+04</pdfrwt>
<pdfrwt beam="2">  1       -2 0.17145268E+00 0.26496949E+04</pdfrwt>
<totfact> 0.21121503E+00</totfact>
</mgrwt>
</event>
<event>
 6    1  0.1001928E-005  0.2510352E+04  0.7818608E-02  0.8399307E-01
         -1   -1    0    0    0  501 -0.00000000000E+00  0.00000000000E+00  0.66940205287E+03  0.66940205287E+03  0.00000000000E+00 0.  1.
          1   -1    0    0  501    0  0.00000000000E+00 -0.00000000000E+00 -0.23535427126E+04  0.23535427126E+04  0.00000000000E+00 0. -1.
         23    2    1    2    0    0 -0.44350751369E+03 -0.11680059667E+04 -0.72049451356E+03  0.14451137390E+04  0.91129148376E+02 0.  0.
         11    1    3    3    0    0 -0.18180815160E+03 -0.36477931111E+03 -0.25018303678E+03  0.47823603137E+03  0.00000000000E+00 0. -1.
        -11    1    3    3    0    0 -0.26169936209E+03 -0.80322665560E+03 -0.47031147679E+03  0.96687770766E+03  0.00000000000E+00 0.  1.
         22    1    1    2    0    0  0.44350751369E+03  0.11680059667E+04 -0.96364614617E+03  0.15778310264E+04  0.00000000000E+00 0. -1.
<mgrwt>
<rscale>  0 0.25103516E+04</rscale>
<asrwt>0</asrwt>
<pdfrwt beam="1">  1        1 0.36208350E+00 0.25103516E+04</pdfrwt>
<pdfrwt beam="2">  1       -1 0.10298493E+00 0.25103516E+04</pdfrwt>
<totfact> 0.13514350E+00</totfact>
</mgrwt>
</event>
<event>
 6    1  0.1001928E-005  0.2770917E+04  0.7818608E-02  0.8312355E-01
          1   -1    0    0  501    0  0.00000000000E+00  0.00000000000E+00  0.13726465256E+04  0.13726465256E+04  0.00000000000E+00 0. -1.
         -1   -1    0    0    0  501 -0.00000000000E+00 -0.00000000000E+00 -0.13983896250E+04  0.13983896250E+04  0.00000000000E+00 0.  1.
         23    2    1    2    0    0 -0.53898640715E+03  0.41578667842E+03 -0.12179190875E+04  0.13982038610E+04  0.90896776492E+02 0.  0.
         11    1    3    3    0    0 -0.34188671826E+02  0.56096995471E+02 -0.14323451145E+03  0.15758129156E+03  0.00000000000E+00 0. -1.
        -11    1    3    3    0    0 -0.50479773533E+03  0.35968968295E+03 -0.10746845761E+04  0.12406225694E+04  0.00000000000E+00 0.  1.
         22    1    1    2    0    0  0.53898640715E+03 -0.41578667842E+03  0.11921759881E+04  0.13728322897E+04  0.00000000000E+00 0. -1.
<mgrwt>
<rscale>  0 0.27709166E+04</rscale>
<asrwt>0</asrwt>
<pdfrwt beam="1">  1        1 0.21117639E+00 0.27709166E+04</pdfrwt>
<pdfrwt beam="2">  1       -1 0.21513686E+00 0.27709166E+04</pdfrwt>
<totfact> 0.82713858E-01</totfact>
</mgrwt>
</event>
<event>
 6    1  0.1001928E-005  0.4021708E+04  0.7818608E-02  0.8000182E-01
          1   -1    0    0  501    0  0.00000000000E+00  0.00000000000E+00  0.25751538775E+04  0.25751538775E+04  0.00000000000E+00 0. -1.
         -1   -1    0    0    0  501 -0.00000000000E+00 -0.00000000000E+00 -0.15702104500E+04  0.15702104500E+04  0.00000000000E+00 0.  1.
         23    2    1    2    0    0 -0.83480617554E+02  0.16403844108E+04 -0.69147085213E+03  0.17840825915E+04  0.83598596915E+02 0.  0.
         11    1    3    3    0    0 -0.10011701464E+03  0.14341982967E+04 -0.59832461022E+03  0.15572220491E+04  0.00000000000E+00 0. -1.
        -11    1    3    3    0    0  0.16636397083E+02  0.20618611407E+03 -0.93146241902E+02  0.22686054245E+03  0.00000000000E+00 0.  1.
         22    1    1    2    0    0  0.83480617554E+02 -0.16403844108E+04  0.16964142796E+04  0.23612817360E+04  0.00000000000E+00 0. -1.
<mgrwt>
<rscale>  0 0.40217079E+04</rscale>
<asrwt>0</asrwt>
<pdfrwt beam="1">  1        1 0.39617752E+00 0.40217079E+04</pdfrwt>
<pdfrwt beam="2">  1       -1 0.24157084E+00 0.40217079E+04</pdfrwt>
<totfact> 0.74278724E-02</totfact>
</mgrwt>
</event>
<event>
 6    1  0.1001928E-005  0.1022983E+04  0.7818608E-02  0.9283691E-01
         -1   -1    0    0    0  501 -0.00000000000E+00  0.00000000000E+00  0.13805394034E+04  0.13805394034E+04  0.00000000000E+00 0.  1.
          1   -1    0    0  501    0  0.00000000000E+00 -0.00000000000E+00 -0.18950807695E+03  0.18950807695E+03  0.00000000000E+00 0. -1.
         23    2    1    2    0    0 -0.20421616947E+00 -0.41065005663E+03  0.10575741927E+04  0.11382554966E+04  0.92351998307E+02 0.  0.
         13    1    3    3    0    0 -0.29398189272E+01 -0.68138771793E+02  0.28686499808E+03  0.29486108913E+03  0.00000000000E+00 0.  1.
        -13    1    3    3    0    0  0.27356027577E+01 -0.34251128484E+03  0.77070919467E+03  0.84339440744E+03  0.00000000000E+00 0. -1.
         22    1    1    2    0    0  0.20421616947E+00  0.41065005663E+03  0.13345713369E+03  0.43179198377E+03  0.00000000000E+00 0. -1.
<mgrwt>
<rscale>  0 0.10229826E+04</rscale>
<asrwt>0</asrwt>
<pdfrwt beam="1">  1        1 0.29155090E-01 0.10229826E+04</pdfrwt>
<pdfrwt beam="2">  1       -1 0.21239067E+00 0.10229826E+04</pdfrwt>
<totfact> 0.19842242E+01</totfact>
</mgrwt>
</event>
<event>
 6    1  0.1001928E-005  0.2223725E+04  0.7818608E-02  0.8508618E-01
          1   -1    0    0  501    0  0.00000000000E+00  0.00000000000E+00  0.10349841761E+04  0.10349841761E+04  0.00000000000E+00 0. -1.
         -1   -1    0    0    0  501 -0.00000000000E+00 -0.00000000000E+00 -0.11944511881E+04  0.11944511881E+04  0.00000000000E+00 0.  1.
         23    2    1    2    0    0 -0.97703889698E+03 -0.17763333465E+03  0.41778598133E+03  0.10807928498E+04  0.86078162971E+02 0.  0.
         11    1    3    3    0    0 -0.89373211487E+03 -0.18647119610E+03  0.38485789672E+03  0.99077959243E+03  0.00000000000E+00 0.  1.
        -11    1    3    3    0    0 -0.83306782109E+02  0.88378614483E+01  0.32928084616E+02  0.90013257339E+02  0.00000000000E+00 0. -1.
         22    1    1    2    0    0  0.97703889698E+03  0.17763333465E+03 -0.57725299326E+03  0.11486425145E+04  0.00000000000E+00 0.  1.
<mgrwt>
<rscale>  0 0.22237249E+04</rscale>
<asrwt>0</asrwt>
<pdfrwt beam="1">  1        1 0.15922833E+00 0.22237249E+04</pdfrwt>
<pdfrwt beam="2">  1       -1 0.18376172E+00 0.22237249E+04</pdfrwt>
<totfact> 0.25293620E+00</totfact>
</mgrwt>
</event>
<event>
 6    1  0.1001928E-005  0.3804221E+04  0.7818608E-02  0.8045250E-01
         -3   -1    0    0    0  501 -0.00000000000E+00  0.00000000000E+00  0.11356222863E+04  0.11356222863E+04  0.00000000000E+00 0.  1.
          3   -1    0    0  501    0  0.00000000000E+00 -0.00000000000E+00 -0.31859401708E+04  0.31859401708E+04  0.00000000000E+00 0. -1.
         23    2    1    2    0    0 -0.12634895195E+04  0.58383973148E+03 -0.24966635599E+04  0.28598856597E+04  0.91337053171E+02 0.  0.
         11    1    3    3    0    0 -0.91824518790E+03  0.46658972555E+03 -0.18198041646E+04  0.20910684816E+04  0.00000000000E+00 0.  1.
        -11    1    3    3    0    0 -0.34524433159E+03  0.11725000593E+03 -0.67685939532E+03  0.76881717815E+03  0.00000000000E+00 0. -1.
         22    1    1    2    0    0  0.12634895195E+04 -0.58383973148E+03  0.44634567542E+03  0.14616767973E+04  0.00000000000E+00 0.  1.
<mgrwt>
<rscale>  0 0.38042212E+04</rscale>
<asrwt>0</asrwt>
<pdfrwt beam="1">  1        3 0.49014464E+00 0.38042212E+04</pdfrwt>
<pdfrwt beam="2">  1       -3 0.17471112E+00 0.38042212E+04</pdfrwt>
<totfact> 0.17033425E-03</totfact>
</mgrwt>
</event>
<event>
 6    1  0.1376150E-005  0.3651584E+04  0.7818608E-02  0.8078777E-01
          2   -1    0    0  501    0  0.00000000000E+00  0.00000000000E+00  0.29884661267E+04  0.29884661267E+04  0.00000000000E+00 0. -1.
         -2   -1    0    0    0  501 -0.00000000000E+00 -0.00000000000E+00 -0.11154606708E+04  0.11154606708E+04  0.00000000000E+00 0.  1.
         23    2    1    2    0    0 -0.51782048313E+03  0.80004734378E+03  0.26858280647E+04  0.28513716496E+04  0.91837280122E+02 0.  0.
         11    1    3    3    0    0 -0.23070549622E+03  0.43510890779E+03  0.13325473871E+04  0.14206432791E+04  0.00000000000E+00 0. -1.
        -11    1    3    3    0    0 -0.28711498691E+03  0.36493843598E+03  0.13532806776E+04  0.14307283705E+04  0.00000000000E+00 0.  1.
         22    1    1    2    0    0  0.51782048313E+03 -0.80004734378E+03 -0.81282260882E+03  0.12525551479E+04  0.00000000000E+00 0.  1.
<mgrwt>
<rscale>  0 0.36515840E+04</rscale>
<asrwt>0</asrwt>
<pdfrwt beam="1">  1        2 0.45976402E+00 0.36515840E+04</pdfrwt>
<pdfrwt beam="2">  1       -2 0.17160933E+00 0.36515840E+04</pdfrwt>
<totfact> 0.29808927E-01</totfact>
</mgrwt>
</event>
<event>
 6    1  0.1001928E-005  0.4374876E+04  0.7818608E-02  0.7932916E-01
          1   -1    0    0  501    0  0.00000000000E+00  0.00000000000E+00  0.46011513592E+04  0.46011513592E+04  0.00000000000E+00 0. -1.
         -1   -1    0    0    0  501 -0.00000000000E+00 -0.00000000000E+00 -0.10399321054E+04  0.10399321054E+04  0.00000000000E+00 0.  1.
         23    2    1    2    0    0  0.73605531593E+03  0.31372616451E+03 -0.84236666264E+03  0.11653968740E+04  0.91469913645E+02 0.  0.
         11    1    3    3    0    0  0.40838711494E+03  0.21783757632E+03 -0.51434572699E+03  0.69194275210E+03  0.00000000000E+00 0. -1.
        -11    1    3    3    0    0  0.32766820099E+03  0.95888588193E+02 -0.32802093564E+03  0.47345412186E+03  0.00000000000E+00 0.  1.
         22    1    1    2    0    0 -0.73605531593E+03 -0.31372616451E+03  0.44035859164E+04  0.44756865907E+04  0.00000000000E+00 0. -1.
<mgrwt>
<rscale>  0 0.43748760E+04</rscale>
<asrwt>0</asrwt>
<pdfrwt beam="1">  1        1 0.70786943E+00 0.43748760E+04</pdfrwt>
<pdfrwt beam="2">  1       -1 0.15998956E+00 0.43748760E+04</pdfrwt>
<totfact> 0.55577668E-03</totfact>
</mgrwt>
</event>
<event>
 6    1  0.1001928E-005  0.1887815E+04  0.7818608E-02  0.8660945E-01
         -2   -1    0    0    0  501 -0.00000000000E+00  0.00000000000E+00  0.64279835906E+03  0.64279835906E+03  0.00000000000E+00 0.  1.
          2   -1    0    0  501    0  0.00000000000E+00 -0.00000000000E+00 -0.13860669884E+04  0.13860669884E+04  0.00000000000E+00 0. -1.
         23    2    1    2    0    0 -0.30825388930E+03  0.68629013972E+03 -0.98108788153E+03  0.12398326403E+04  0.92935077127E+02 0.  0.
         11    1    3    3    0    0 -0.12858898924E+03  0.34130369462E+03 -0.54136016615E+03  0.65275889086E+03  0.00000000000E+00 0.  1.
        -11    1    3    3    0    0 -0.17966490005E+03  0.34498644510E+03 -0.43972771539E+03  0.58707374945E+03  0.00000000000E+00 0. -1.
         22    1    1    2    0    0  0.30825388930E+03 -0.68629013972E+03  0.23781925223E+03  0.78903270710E+03  0.00000000000E+00 0.  1.
<mgrwt>
<rscale>  0 0.18878152E+04</rscale>
<asrwt>0</asrwt>
<pdfrwt beam="1">  1        2 0.21324107E+00 0.18878152E+04</pdfrwt>
<pdfrwt beam="2">  1       -2 0.98892057E-01 0.18878152E+04</pdfrwt>
<totfact> 0.11720145E+01</totfact>
</mgrwt>
</event>
<event>
 6    1  0.1001928E-005  0.1539373E+04  0.7818608E-02  0.8858685E-01
         -2   -1    0    0    0  501 -0.00000000000E+00  0.00000000000E+00  0.20339839064E+03  0.20339839064E+03  0.00000000000E+00 0.  1.
          2   -1    0    0  501    0  0.00000000000E+00 -0.00000000000E+00 -0.29125941284E+04  0.29125941284E+04  0.00000000000E+00 0. -1.
         23    2    1    2    0    0 -0.47476095668E+03  0.57945983774E+03 -0.16929106268E+04  0.18534525805E+04  0.90379247728E+02 0.  0.
         13    1    3    3    0    0 -0.11189470314E+03  0.19030548221E+03 -0.44138400492E+03  0.49351437765E+03  0.00000000000E+00 0. -1.
        -13    1    3    3    0    0 -0.36286625355E+03  0.38915435553E+03 -0.12515266219E+04  0.13599382029E+04  0.00000000000E+00 0.  1.
         22    1    1    2    0    0  0.47476095668E+03 -0.57945983774E+03 -0.10162851109E+04  0.12625399385E+04  0.00000000000E+00 0.  1.
<mgrwt>
<rscale>  0 0.15393725E+04</rscale>
<asrwt>0</asrwt>
<pdfrwt beam="1">  1        2 0.44809142E+00 0.15393725E+04</pdfrwt>
<pdfrwt beam="2">  1       -2 0.31292059E-01 0.15393725E+04</pdfrwt>
<totfact> 0.18119076E+01</totfact>
</mgrwt>
</event>
<event>
 6    1  0.1001928E-005  0.3293919E+04  0.7818608E-02  0.8164444E-01
          2   -1    0    0  501    0  0.00000000000E+00  0.00000000000E+00  0.20638903899E+04  0.20638903899E+04  0.00000000000E+00 0. -1.
         -2   -1    0    0    0  501 -0.00000000000E+00 -0.00000000000E+00 -0.13142540453E+04  0.13142540453E+04  0.00000000000E+00 0.  1.
         23    2    1    2    0    0 -0.72171077535E+03  0.14297947172E+04 -0.11929815810E+02  0.16046838652E+04  0.98430736634E+02 0.  0.
         11    1    3    3    0    0 -0.22520095916E+03  0.41371485106E+03  0.38896992791E+02  0.47263984813E+03  0.00000000000E+00 0.  1.
        -11    1    3    3    0    0 -0.49650981619E+03  0.10160798662E+04 -0.50826808600E+02  0.11320440170E+04  0.00000000000E+00 0. -1.
         22    1    1    2    0    0  0.72171077535E+03 -0.14297947172E+04  0.76156616046E+03  0.17734605700E+04  0.00000000000E+00 0. -1.
<mgrwt>
<rscale>  0 0.32939194E+04</rscale>
<asrwt>0</asrwt>
<pdfrwt beam="1">  1        2 0.31752160E+00 0.32939194E+04</pdfrwt>
<pdfrwt beam="2">  1       -2 0.20219293E+00 0.32939194E+04</pdfrwt>
<totfact> 0.66184435E-01</totfact>
</mgrwt>
</event>
<event>
 6    1  0.1001928E-005  0.1425725E+04  0.7818608E-02  0.8935405E-01
          2   -1    0    0  501    0  0.00000000000E+00  0.00000000000E+00  0.28555502669E+04  0.28555502669E+04  0.00000000000E+00 0. -1.
         -2   -1    0    0    0  501 -0.00000000000E+00 -0.00000000000E+00 -0.17795968890E+03  0.17795968890E+03  0.00000000000E+00 0.  1.
         23    2    1    2    0    0 -0.37257994800E+03 -0.73462427843E+02  0.26205904113E+04  0.26495027098E+04  0.90321424183E+02 0.  0.
         13    1    3    3    0    0 -0.23726380785E+03 -0.62641388005E+01  0.17263314811E+04  0.17425710134E+04  0.00000000000E+00 0.  1.
        -13    1    3    3    0    0 -0.13531614015E+03 -0.67198289042E+02  0.89425893016E+03  0.90693169644E+03  0.00000000000E+00 0. -1.
         22    1    1    2    0    0  0.37257994800E+03  0.73462427843E+02  0.57000166700E+02  0.38400724597E+03  0.00000000000E+00 0.  1.
<mgrwt>
<rscale>  0 0.14257249E+04</rscale>
<asrwt>0</asrwt>
<pdfrwt beam="1">  1        2 0.43931539E+00 0.14257249E+04</pdfrwt>
<pdfrwt beam="2">  1       -2 0.27378416E-01 0.14257249E+04</pdfrwt>
<totfact> 0.25426295E+01</totfact>
</mgrwt>
</event>
<event>
 6    1  0.1001928E-005  0.2193799E+04  0.7818608E-02  0.8521013E-01
          2   -1    0    0  501    0  0.00000000000E+00  0.00000000000E+00  0.14040937703E+04  0.14040937703E+04  0.00000000000E+00 0. -1.
         -2   -1    0    0    0  501 -0.00000000000E+00 -0.00000000000E+00 -0.85691490146E+03  0.85691490146E+03  0.00000000000E+00 0.  1.
         23    2    1    2    0    0 -0.23649886651E+03 -0.10642458841E+04  0.16951561931E+03  0.11072406943E+04  0.93249097143E+02 0.  0.
         13    1    3    3    0    0 -0.20151236479E+03 -0.70815604606E+03  0.12156883386E+03  0.74623803180E+03  0.00000000000E+00 0. -1.
        -13    1    3    3    0    0 -0.34986501715E+02 -0.35608983809E+03  0.47946785446E+02  0.36100266249E+03  0.00000000000E+00 0.  1.
         22    1    1    2    0    0  0.23649886651E+03  0.10642458841E+04  0.37766324952E+03  0.11537679775E+04  0.00000000000E+00 0. -1.
<mgrwt>
<rscale>  0 0.21937993E+04</rscale>
<asrwt>0</asrwt>
<pdfrwt beam="1">  1        2 0.21601443E+00 0.21937993E+04</pdfrwt>
<pdfrwt beam="2">  1       -2 0.13183306E+00 0.21937993E+04</pdfrwt>
<totfact> 0.55177432E+00</totfact>
</mgrwt>
</event>
<event>
 6    1  0.1001928E-005  0.2017563E+04  0.7818608E-02  0.8598453E-01
         -1   -1    0    0    0  501 -0.00000000000E+00  0.00000000000E+00  0.52266285502E+03  0.52266285502E+03  0.00000000000E+00 0.  1.
          1   -1    0    0  501    0  0.00000000000E+00 -0.00000000000E+00 -0.19470292640E+04  0.19470292640E+04  0.00000000000E+00 0. -1.
         23    2    1    2    0    0  0.26125728880E+03 -0.66627476304E+03  0.15311147803E+03  0.73746409856E+03  0.90734453935E+02 0.  0.
         11    1    3    3    0    0  0.90434668044E+02 -0.13344322281E+03  0.21273068821E+02  0.16259786701E+03  0.00000000000E+00 0. -1.
        -11    1    3    3    0    0  0.17082262076E+03 -0.53283154024E+03  0.13183840921E+03  0.57486623155E+03  0.00000000000E+00 0.  1.
         22    1    1    2    0    0 -0.26125728880E+03  0.66627476304E+03 -0.15774778870E+04  0.17322280204E+04  0.00000000000E+00 0. -1.
<mgrwt>
<rscale>  0 0.20175628E+04</rscale>
<asrwt>0</asrwt>
<pdfrwt beam="1">  1        1 0.29954296E+00 0.20175628E+04</pdfrwt>
<pdfrwt beam="2">  1       -1 0.80409671E-01 0.20175628E+04</pdfrwt>
<totfact> 0.46261160E+00</totfact>
</mgrwt>
</event>
<event>
 6    1  0.1001928E-005  0.2720261E+04  0.7818608E-02  0.8328461E-01
         -2   -1    0    0    0  501 -0.00000000000E+00  0.00000000000E+00  0.13868852777E+04  0.13868852777E+04  0.00000000000E+00 0.  1.
          2   -1    0    0  501    0  0.00000000000E+00 -0.00000000000E+00 -0.13338918553E+04  0.13338918553E+04  0.00000000000E+00 0. -1.
         23    2    1    2    0    0  0.49340270540E+03 -0.10488987926E+04  0.73529748458E+03  0.13757218404E+04  0.91177214463E+02 0.  0.
         13    1    3    3    0    0  0.39636722220E+03 -0.75344309187E+03  0.52230017589E+03  0.99878973826E+03  0.00000000000E+00 0.  1.
        -13    1    3    3    0    0  0.97035483201E+02 -0.29545570074E+03  0.21299730869E+03  0.37693210212E+03  0.00000000000E+00 0. -1.
         22    1    1    2    0    0 -0.49340270540E+03  0.10488987926E+04 -0.68230406214E+03  0.13450552926E+04  0.00000000000E+00 0.  1.
<mgrwt>
<rscale>  0 0.27202610E+04</rscale>
<asrwt>0</asrwt>
<pdfrwt beam="1">  1        2 0.20521413E+00 0.27202610E+04</pdfrwt>
<pdfrwt beam="2">  1       -2 0.21336696E+00 0.27202610E+04</pdfrwt>
<totfact> 0.15074088E+00</totfact>
</mgrwt>
</event>
<event>
 6    1  0.1001928E-005  0.2919953E+04  0.7818608E-02  0.8266966E-01
          1   -1    0    0  501    0  0.00000000000E+00  0.00000000000E+00  0.12665365477E+04  0.12665365477E+04  0.00000000000E+00 0. -1.
         -1   -1    0    0    0  501 -0.00000000000E+00 -0.00000000000E+00 -0.16829604018E+04  0.16829604018E+04  0.00000000000E+00 0.  1.
         23    2    1    2    0    0 -0.11591786969E+03 -0.12864414641E+04  0.47590323222E+03  0.13795873272E+04  0.91699040334E+02 0.  0.
         11    1    3    3    0    0 -0.73359638750E+01 -0.22110620874E+03  0.11651275436E+03  0.25003398537E+03  0.00000000000E+00 0. -1.
        -11    1    3    3    0    0 -0.10858190581E+03 -0.10653352553E+04  0.35939047786E+03  0.11295533419E+04  0.00000000000E+00 0.  1.
         22    1    1    2    0    0  0.11591786969E+03  0.12864414641E+04 -0.89232708634E+03  0.15699096223E+04  0.00000000000E+00 0.  1.
<mgrwt>
<rscale>  0 0.29199526E+04</rscale>
<asrwt>0</asrwt>
<pdfrwt beam="1">  1        1 0.19485178E+00 0.29199526E+04</pdfrwt>
<pdfrwt beam="2">  1       -1 0.25891698E+00 0.29199526E+04</pdfrwt>
<totfact> 0.49956178E-01</totfact>
</mgrwt>
</event>
<event>
 6    1  0.1001928E-005  0.2665153E+04  0.7818608E-02  0.8346401E-01
         -4   -1    0    0    0  501 -0.00000000000E+00  0.00000000000E+00  0.18363712943E+04  0.18363712943E+04  0.00000000000E+00 0. -1.
          4   -1    0    0  501    0  0.00000000000E+00 -0.00000000000E+00 -0.96699426538E+03  0.96699426538E+03  0.00000000000E+00 0.  1.
         23    2    1    2    0    0  0.11788681497E+04  0.28016420900E+03 -0.14377886990E+03  0.12239014184E+04  0.95080072558E+02 0.  0.
         13    1    3    3    0    0  0.24561995196E+03  0.25786439536E+02 -0.77799315162E+01  0.24709234833E+03  0.00000000000E+00 0. -1.
        -13    1    3    3    0    0  0.93324819770E+03  0.25437776946E+03 -0.13599893839E+03  0.97680907006E+03  0.00000000000E+00 0.  1.
         22    1    1    2    0    0 -0.11788681497E+04 -0.28016420900E+03  0.10131558988E+04  0.15794641413E+04  0.00000000000E+00 0. -1.
<mgrwt>
<rscale>  0 0.26651533E+04</rscale>
<asrwt>0</asrwt>
<pdfrwt beam="1">  1        4 0.14876835E+00 0.26651533E+04</pdfrwt>
<pdfrwt beam="2">  1       -4 0.28251866E+00 0.26651533E+04</pdfrwt>
<totfact> 0.21178288E-02</totfact>
</mgrwt>
</event>
<event>
 6    1  0.1001928E-005  0.2845476E+04  0.7818608E-02  0.8289287E-01
         -1   -1    0    0    0  501 -0.00000000000E+00  0.00000000000E+00  0.76224266035E+03  0.76224266035E+03  0.00000000000E+00 0.  1.
          1   -1    0    0  501    0  0.00000000000E+00 -0.00000000000E+00 -0.26555633279E+04  0.26555633279E+04  0.00000000000E+00 0. -1.
         23    2    1    2    0    0 -0.13130497112E+03 -0.81236506406E+03  0.44429265332E+03  0.93957798609E+03  0.90734984475E+02 0.  0.
         11    1    3    3    0    0 -0.99677256821E+02 -0.36092830115E+03  0.22316809669E+03  0.43589998104E+03  0.00000000000E+00 0.  1.
        -11    1    3    3    0    0 -0.31627714301E+02 -0.45143676292E+03  0.22112455663E+03  0.50367800505E+03  0.00000000000E+00 0. -1.
         22    1    1    2    0    0  0.13130497112E+03  0.81236506406E+03 -0.23376133209E+04  0.24782280022E+04  0.00000000000E+00 0. -1.
<mgrwt>
<rscale>  0 0.28454762E+04</rscale>
<asrwt>0</asrwt>
<pdfrwt beam="1">  1        1 0.40854820E+00 0.28454762E+04</pdfrwt>
<pdfrwt beam="2">  1       -1 0.11726810E+00 0.28454762E+04</pdfrwt>
<totfact> 0.59533068E-01</totfact>
</mgrwt>
</event>
<event>
 6    1  0.1001928E-005  0.1284973E+04  0.7818608E-02  0.9041567E-01
         -2   -1    0    0    0  501 -0.00000000000E+00  0.00000000000E+00  0.88733122418E+03  0.88733122418E+03  0.00000000000E+00 0.  1.
          2   -1    0    0  501    0  0.00000000000E+00 -0.00000000000E+00 -0.46520285331E+03  0.46520285331E+03  0.00000000000E+00 0. -1.
         23    2    1    2    0    0  0.44096964804E+03 -0.33347189452E+03 -0.12580770825E+03  0.57414363452E+03  0.90308353336E+02 0.  0.
         13    1    3    3    0    0  0.16873112095E+03 -0.82636506516E+02 -0.66168964579E+02  0.19919165459E+03  0.00000000000E+00 0. -1.
        -13    1    3    3    0    0  0.27223852709E+03 -0.25083538800E+03 -0.59638743666E+02  0.37495197993E+03  0.00000000000E+00 0.  1.
         22    1    1    2    0    0 -0.44096964804E+03  0.33347189452E+03  0.54793607911E+03  0.77839044298E+03  0.00000000000E+00 0.  1.
<mgrwt>
<rscale>  0 0.12849732E+04</rscale>
<asrwt>0</asrwt>
<pdfrwt beam="1">  1        2 0.71569670E-01 0.12849732E+04</pdfrwt>
<pdfrwt beam="2">  1       -2 0.13651250E+00 0.12849732E+04</pdfrwt>
<totfact> 0.25166162E+01</totfact>
</mgrwt>
</event>
<event>
 6    1  0.1001928E-005  0.3358913E+04  0.7818608E-02  0.8148065E-01
         -2   -1    0    0    0  501 -0.00000000000E+00  0.00000000000E+00  0.11763674620E+04  0.11763674620E+04  0.00000000000E+00 0.  1.
          2   -1    0    0  501    0  0.00000000000E+00 -0.00000000000E+00 -0.23976987147E+04  0.23976987147E+04  0.00000000000E+00 0. -1.
         23    2    1    2    0    0  0.98824046318E+03  0.13426909202E+04 -0.81560675373E+03  0.18582426165E+04  0.91723088501E+02 0.  0.
         13    1    3    3    0    0  0.13644511264E+03  0.13949696583E+03 -0.82984050115E+02  0.21204486510E+03  0.00000000000E+00 0. -1.
        -13    1    3    3    0    0  0.85179535054E+03  0.12031939544E+04 -0.73262270362E+03  0.16461977514E+04  0.00000000000E+00 0.  1.
         22    1    1    2    0    0 -0.98824046318E+03 -0.13426909202E+04 -0.40572449898E+03  0.17158235601E+04  0.00000000000E+00 0. -1.
<mgrwt>
<rscale>  0 0.33589134E+04</rscale>
<asrwt>0</asrwt>
<pdfrwt beam="1">  1        2 0.36887672E+00 0.33589134E+04</pdfrwt>
<pdfrwt beam="2">  1       -2 0.18097961E+00 0.33589134E+04</pdfrwt>
<totfact> 0.59168164E-01</totfact>
</mgrwt>
</event>
<event>
 6    1  0.1001928E-005  0.2148227E+04  0.7818608E-02  0.8540291E-01
         -1   -1    0    0    0  501 -0.00000000000E+00  0.00000000000E+00  0.10379506484E+04  0.10379506484E+04  0.00000000000E+00 0.  1.
          1   -1    0    0  501    0  0.00000000000E+00 -0.00000000000E+00 -0.11115367675E+04  0.11115367675E+04  0.00000000000E+00 0. -1.
         23    2    1    2    0    0  0.16817011785E+03  0.41091838957E+02 -0.10955538016E+04  0.11129606810E+04  0.92052254081E+02 0.  0.
         11    1    3    3    0    0  0.15721413981E+03  0.63293606804E+02 -0.89705776861E+03  0.91292661624E+03  0.00000000000E+00 0. -1.
        -11    1    3    3    0    0  0.10955978042E+02 -0.22201767847E+02 -0.19849603303E+03  0.20003406479E+03  0.00000000000E+00 0.  1.
         22    1    1    2    0    0 -0.16817011785E+03 -0.41091838957E+02  0.10219676826E+04  0.10365267348E+04  0.00000000000E+00 0.  1.
<mgrwt>
<rscale>  0 0.21482275E+04</rscale>
<asrwt>0</asrwt>
<pdfrwt beam="1">  1        1 0.17100566E+00 0.21482275E+04</pdfrwt>
<pdfrwt beam="2">  1       -1 0.15968472E+00 0.21482275E+04</pdfrwt>
<totfact> 0.33448271E+00</totfact>
</mgrwt>
</event>
<event>
 6    1  0.1001928E-005  0.2550084E+04  0.7818608E-02  0.8385357E-01
         -2   -1    0    0    0  501 -0.00000000000E+00  0.00000000000E+00  0.83649000743E+03  0.83649000743E+03  0.00000000000E+00 0. -1.
          2   -1    0    0  501    0  0.00000000000E+00 -0.00000000000E+00 -0.19435166148E+04  0.19435166148E+04  0.00000000000E+00 0.  1.
         23    2    1    2    0    0 -0.10990330366E+04 -0.58240683011E+02  0.14400162650E+03  0.11137721746E+04  0.92121635473E+02 0.  0.
         11    1    3    3    0    0 -0.31572570859E+03 -0.62603449384E+01  0.82213212266E+02  0.32631415424E+03  0.00000000000E+00 0.  1.
        -11    1    3    3    0    0 -0.78330732799E+03 -0.51980338073E+02  0.61788414237E+02  0.78745802032E+03  0.00000000000E+00 0. -1.
         22    1    1    2    0    0  0.10990330366E+04  0.58240683011E+02 -0.12510282339E+04  0.16662344477E+04  0.00000000000E+00 0.  1.
<mgrwt>
<rscale>  0 0.25500841E+04</rscale>
<asrwt>0</asrwt>
<pdfrwt beam="1">  1        2 0.29900256E+00 0.25500841E+04</pdfrwt>
<pdfrwt beam="2">  1       -2 0.12869077E+00 0.25500841E+04</pdfrwt>
<totfact> 0.28426601E+00</totfact>
</mgrwt>
</event>
<event>
 6    1  0.1001928E-005  0.1425810E+04  0.7818608E-02  0.8935345E-01
         -2   -1    0    0    0  501 -0.00000000000E+00  0.00000000000E+00  0.76688083155E+03  0.76688083155E+03  0.00000000000E+00 0.  1.
          2   -1    0    0  501    0  0.00000000000E+00 -0.00000000000E+00 -0.66272864514E+03  0.66272864514E+03  0.00000000000E+00 0. -1.
         23    2    1    2    0    0 -0.39277435737E+03 -0.50287213209E+03 -0.26000364653E+03  0.69492481800E+03  0.90368852050E+02 0.  0.
         13    1    3    3    0    0 -0.18074282424E+03 -0.18087054901E+03 -0.13787286544E+03  0.29050137872E+03  0.00000000000E+00 0. -1.
        -13    1    3    3    0    0 -0.21203153313E+03 -0.32200158308E+03 -0.12213078109E+03  0.40442343928E+03  0.00000000000E+00 0.  1.
         22    1    1    2    0    0  0.39277435737E+03  0.50287213209E+03  0.36415583294E+03  0.73468465869E+03  0.00000000000E+00 0.  1.
<mgrwt>
<rscale>  0 0.14258105E+04</rscale>
<asrwt>0</asrwt>
<pdfrwt beam="1">  1        2 0.10195825E+00 0.14258105E+04</pdfrwt>
<pdfrwt beam="2">  1       -2 0.11798167E+00 0.14258105E+04</pdfrwt>
<totfact> 0.23611417E+01</totfact>
</mgrwt>
</event>
<event>
 6    1  0.1001928E-005  0.2675142E+04  0.7818608E-02  0.8343116E-01
          2   -1    0    0  501    0  0.00000000000E+00  0.00000000000E+00  0.12267545254E+04  0.12267545254E+04  0.00000000000E+00 0. -1.
         -2   -1    0    0    0  501 -0.00000000000E+00 -0.00000000000E+00 -0.14583982649E+04  0.14583982649E+04  0.00000000000E+00 0.  1.
         23    2    1    2    0    0 -0.34970326019E+03  0.10638145405E+04 -0.84747743328E+03  0.14071680936E+04  0.88939849087E+02 0.  0.
         13    1    3    3    0    0 -0.27622167790E+03  0.79981785676E+03 -0.68419750646E+03  0.10881788673E+04  0.00000000000E+00 0.  1.
        -13    1    3    3    0    0 -0.73481582289E+02  0.26399668378E+03 -0.16327992682E+03  0.31898922629E+03  0.00000000000E+00 0. -1.
         22    1    1    2    0    0  0.34970326019E+03 -0.10638145405E+04  0.61583369374E+03  0.12779846968E+04  0.00000000000E+00 0. -1.
<mgrwt>
<rscale>  0 0.26751424E+04</rscale>
<asrwt>0</asrwt>
<pdfrwt beam="1">  1        2 0.18873147E+00 0.26751424E+04</pdfrwt>
<pdfrwt beam="2">  1       -2 0.22436896E+00 0.26751424E+04</pdfrwt>
<totfact> 0.14885935E+00</totfact>
</mgrwt>
</event>
<event>
 6    1  0.1001928E-005  0.1059022E+04  0.7818608E-02  0.9246079E-01
          1   -1    0    0  501    0  0.00000000000E+00  0.00000000000E+00  0.20501601680E+04  0.20501601680E+04  0.00000000000E+00 0. -1.
         -1   -1    0    0    0  501 -0.00000000000E+00 -0.00000000000E+00 -0.13676096875E+03  0.13676096875E+03  0.00000000000E+00 0.  1.
         23    2    1    2    0    0 -0.11904743476E+03  0.51122137958E+03  0.10170995992E+04  0.11482332319E+04  0.91806151432E+02 0.  0.
         11    1    3    3    0    0 -0.36582483915E+02  0.46726332532E+02  0.14583237925E+03  0.15744431117E+03  0.00000000000E+00 0. -1.
        -11    1    3    3    0    0 -0.82464950848E+02  0.46449504705E+03  0.87126721998E+03  0.99078892074E+03  0.00000000000E+00 0.  1.
         22    1    1    2    0    0  0.11904743476E+03 -0.51122137958E+03  0.89629960004E+03  0.10386879049E+04  0.00000000000E+00 0. -1.
<mgrwt>
<rscale>  0 0.10590220E+04</rscale>
<asrwt>0</asrwt>
<pdfrwt beam="1">  1        1 0.31540924E+00 0.10590220E+04</pdfrwt>
<pdfrwt beam="2">  1       -1 0.21040150E-01 0.10590220E+04</pdfrwt>
<totfact> 0.51916815E+01</totfact>
</mgrwt>
</event>
<event>
 6    1  0.1001928E-005  0.2181283E+04  0.7818608E-02  0.8526259E-01
         -1   -1    0    0    0  501 -0.00000000000E+00  0.00000000000E+00  0.69492586264E+03  0.69492586264E+03  0.00000000000E+00 0.  1.
          1   -1    0    0  501    0  0.00000000000E+00 -0.00000000000E+00 -0.17116910199E+04  0.17116910199E+04  0.00000000000E+00 0. -1.
         23    2    1    2    0    0  0.97444392811E+03 -0.22712961917E+02  0.25006768604E+02  0.97996149557E+03  0.98195451345E+02 0.  0.
         13    1    3    3    0    0  0.56136708467E+03 -0.41914411516E+02  0.53450316603E+02  0.56546154421E+03  0.00000000000E+00 0.  1.
        -13    1    3    3    0    0  0.41307684344E+03  0.19201449599E+02 -0.28443547999E+02  0.41449995136E+03  0.00000000000E+00 0. -1.
         22    1    1    2    0    0 -0.97444392811E+03  0.22712961917E+02 -0.10417719259E+04  0.14266553870E+04  0.00000000000E+00 0.  1.
<mgrwt>
<rscale>  0 0.21812825E+04</rscale>
<asrwt>0</asrwt>
<pdfrwt beam="1">  1        1 0.26333707E+00 0.21812825E+04</pdfrwt>
<pdfrwt beam="2">  1       -1 0.10691167E+00 0.21812825E+04</pdfrwt>
<totfact> 0.34872202E+00</totfact>
</mgrwt>
</event>
<event>
 6    1  0.1001928E-005  0.1452147E+04  0.7818608E-02  0.8916913E-01
          1   -1    0    0  501    0  0.00000000000E+00  0.00000000000E+00  0.29788028115E+03  0.29788028115E+03  0.00000000000E+00 0. -1.
         -1   -1    0    0    0  501 -0.00000000000E+00 -0.00000000000E+00 -0.17697807501E+04  0.17697807501E+04  0.00000000000E+00 0.  1.
         23    2    1    2    0    0  0.51020631546E+03 -0.46710091031E+03 -0.43946648617E+03  0.82491661925E+03  0.94142931295E+02 0.  0.
         11    1    3    3    0    0  0.28116554498E+03 -0.24396189874E+03 -0.29032052067E+03  0.47207782880E+03  0.00000000000E+00 0. -1.
        -11    1    3    3    0    0  0.22904077048E+03 -0.22313901158E+03 -0.14914596549E+03  0.35283879046E+03  0.00000000000E+00 0.  1.
         22    1    1    2    0    0 -0.51020631546E+03  0.46710091031E+03 -0.10324339828E+04  0.12427444120E+04  0.00000000000E+00 0.  1.
<mgrwt>
<rscale>  0 0.14521471E+04</rscale>
<asrwt>0</asrwt>
<pdfrwt beam="1">  1        1 0.45827737E-01 0.14521471E+04</pdfrwt>
<pdfrwt beam="2">  1       -1 0.27227396E+00 0.14521471E+04</pdfrwt>
<totfact> 0.42987535E+00</totfact>
</mgrwt>
</event>
<event>
 6    1  0.1001928E-005  0.1153537E+04  0.7818608E-02  0.9154527E-01
          1   -1    0    0  501    0  0.00000000000E+00  0.00000000000E+00  0.47295639967E+03  0.47295639967E+03  0.00000000000E+00 0. -1.
         -1   -1    0    0    0  501 -0.00000000000E+00 -0.00000000000E+00 -0.70336638570E+03  0.70336638570E+03  0.00000000000E+00 0.  1.
         23    2    1    2    0    0 -0.26327658667E+03 -0.32798126615E+03  0.28153656280E+03  0.51377049241E+03  0.88379922215E+02 0.  0.
         13    1    3    3    0    0 -0.37780566504E+02 -0.10297214228E+03  0.53702263152E+02  0.12212520771E+03  0.00000000000E+00 0. -1.
        -13    1    3    3    0    0 -0.22549602016E+03 -0.22500912387E+03  0.22783429965E+03  0.39164528470E+03  0.00000000000E+00 0.  1.
         22    1    1    2    0    0  0.26327658667E+03  0.32798126615E+03 -0.51194654883E+03  0.66255229295E+03  0.00000000000E+00 0.  1.
<mgrwt>
<rscale>  0 0.11535365E+04</rscale>
<asrwt>0</asrwt>
<pdfrwt beam="1">  1        1 0.72762524E-01 0.11535365E+04</pdfrwt>
<pdfrwt beam="2">  1       -1 0.10821021E+00 0.11535365E+04</pdfrwt>
<totfact> 0.37709572E+01</totfact>
</mgrwt>
</event>
<event>
 6    1  0.1001928E-005  0.1471583E+04  0.7818608E-02  0.8903573E-01
          4   -1    0    0  501    0  0.00000000000E+00  0.00000000000E+00  0.62073749698E+03  0.62073749698E+03  0.00000000000E+00 0. -1.
         -4   -1    0    0    0  501 -0.00000000000E+00 -0.00000000000E+00 -0.87217078430E+03  0.87217078430E+03  0.00000000000E+00 0.  1.
         23    2    1    2    0    0 -0.22816931738E+02  0.25122882954E+03  0.57194655277E+03  0.63175156021E+03  0.91381822242E+02 0.  0.
         11    1    3    3    0    0 -0.45315701290E+02  0.20678600851E+03  0.39779677899E+03  0.45061762446E+03  0.00000000000E+00 0. -1.
        -11    1    3    3    0    0  0.22498769552E+02  0.44442821026E+02  0.17414977378E+03  0.18113393575E+03  0.00000000000E+00 0.  1.
         22    1    1    2    0    0  0.22816931738E+02 -0.25122882954E+03 -0.82337984009E+03  0.86115672106E+03  0.00000000000E+00 0.  1.
<mgrwt>
<rscale>  0 0.14715830E+04</rscale>
<asrwt>0</asrwt>
<pdfrwt beam="1">  1        4 0.95498077E-01 0.14715830E+04</pdfrwt>
<pdfrwt beam="2">  1       -4 0.13418012E+00 0.14715830E+04</pdfrwt>
<totfact> 0.71120569E-01</totfact>
</mgrwt>
</event>
<event>
 6    1  0.1001928E-005  0.2267923E+04  0.7818608E-02  0.8490677E-01
         -2   -1    0    0    0  501 -0.00000000000E+00  0.00000000000E+00  0.11961865288E+04  0.11961865288E+04  0.00000000000E+00 0.  1.
          2   -1    0    0  501    0  0.00000000000E+00 -0.00000000000E+00 -0.10749734346E+04  0.10749734346E+04  0.00000000000E+00 0. -1.
         23    2    1    2    0    0  0.10621084638E+04 -0.37023546020E+03  0.18933904135E+03  0.11443104483E+04  0.91915421164E+02 0.  0.
         11    1    3    3    0    0  0.54629838312E+03 -0.14658409473E+03  0.74732090993E+02  0.57053808431E+03  0.00000000000E+00 0.  1.
        -11    1    3    3    0    0  0.51581008071E+03 -0.22365136547E+03  0.11460695036E+03  0.57377236402E+03  0.00000000000E+00 0. -1.
         22    1    1    2    0    0 -0.10621084638E+04  0.37023546020E+03 -0.68125947071E+02  0.11268495151E+04  0.00000000000E+00 0. -1.
<mgrwt>
<rscale>  0 0.22679231E+04</rscale>
<asrwt>0</asrwt>
<pdfrwt beam="1">  1        2 0.16538053E+00 0.22679231E+04</pdfrwt>
<pdfrwt beam="2">  1       -2 0.18402870E+00 0.22679231E+04</pdfrwt>
<totfact> 0.34913809E+00</totfact>
</mgrwt>
</event>
<event>
 6    1  0.1001928E-005  0.2025491E+04  0.7818608E-02  0.8594795E-01
         -1   -1    0    0    0  501 -0.00000000000E+00  0.00000000000E+00  0.68983005415E+03  0.68983005415E+03  0.00000000000E+00 0.  1.
          1   -1    0    0  501    0  0.00000000000E+00 -0.00000000000E+00 -0.14868197832E+04  0.14868197832E+04  0.00000000000E+00 0. -1.
         23    2    1    2    0    0  0.34145870369E+03  0.90061251614E+03 -0.72846027002E+03  0.12110447228E+04  0.90983542326E+02 0.  0.
         11    1    3    3    0    0  0.24131606060E+03  0.61077036621E+03 -0.44361943220E+03  0.79250998857E+03  0.00000000000E+00 0.  1.
        -11    1    3    3    0    0  0.10014264309E+03  0.28984214992E+03 -0.28484083781E+03  0.41853473419E+03  0.00000000000E+00 0. -1.
         22    1    1    2    0    0 -0.34145870369E+03 -0.90061251614E+03 -0.68529459010E+02  0.96560511458E+03  0.00000000000E+00 0.  1.
<mgrwt>
<rscale>  0 0.20254905E+04</rscale>
<asrwt>0</asrwt>
<pdfrwt beam="1">  1        1 0.22874150E+00 0.20254905E+04</pdfrwt>
<pdfrwt beam="2">  1       -1 0.10612770E+00 0.20254905E+04</pdfrwt>
<totfact> 0.51349215E+00</totfact>
</mgrwt>
</event>
<event>
 6    1  0.1001928E-005  0.3123309E+04  0.7818608E-02  0.8209370E-01
         -2   -1    0    0    0  501 -0.00000000000E+00  0.00000000000E+00  0.96431756204E+03  0.96431756204E+03  0.00000000000E+00 0. -1.
          2   -1    0    0  501    0  0.00000000000E+00 -0.00000000000E+00 -0.25290055892E+04  0.25290055892E+04  0.00000000000E+00 0.  1.
         23    2    1    2    0    0 -0.91562651522E+03  0.44162135446E+03  0.54093392052E+03  0.11551518310E+04  0.91459883534E+02 0.  0.
         13    1    3    3    0    0 -0.70544845296E+03  0.35926421796E+03  0.38150526256E+03  0.87879153584E+03  0.00000000000E+00 0. -1.
        -13    1    3    3    0    0 -0.21017806226E+03  0.82357136500E+02  0.15942865796E+03  0.27636029521E+03  0.00000000000E+00 0.  1.
         22    1    1    2    0    0  0.91562651522E+03 -0.44162135446E+03 -0.21056219477E+04  0.23381713202E+04  0.00000000000E+00 0.  1.
<mgrwt>
<rscale>  0 0.31233088E+04</rscale>
<asrwt>0</asrwt>
<pdfrwt beam="1">  1        2 0.38907778E+00 0.31233088E+04</pdfrwt>
<pdfrwt beam="2">  1       -2 0.14835655E+00 0.31233088E+04</pdfrwt>
<totfact> 0.87516921E-01</totfact>
</mgrwt>
</event>
<event>
 6    1  0.1001928E-005  0.7739241E+03  0.7818608E-02  0.9598547E-01
         -1   -1    0    0    0  501 -0.00000000000E+00  0.00000000000E+00  0.11331980674E+03  0.11331980674E+03  0.00000000000E+00 0.  1.
          1   -1    0    0  501    0  0.00000000000E+00 -0.00000000000E+00 -0.13213896314E+04  0.13213896314E+04  0.00000000000E+00 0. -1.
         23    2    1    2    0    0  0.23109039075E+02  0.37005303670E+03 -0.45066750091E+03  0.59142327221E+03  0.95953180617E+02 0.  0.
         13    1    3    3    0    0 -0.21122868365E+02  0.12213982304E+03 -0.97690611043E+02  0.15782194850E+03  0.00000000000E+00 0. -1.
        -13    1    3    3    0    0  0.44231907440E+02  0.24791321365E+03 -0.35297688987E+03  0.43360132371E+03  0.00000000000E+00 0.  1.
         22    1    1    2    0    0 -0.23109039075E+02 -0.37005303670E+03 -0.75740232376E+03  0.84328616596E+03  0.00000000000E+00 0. -1.
<mgrwt>
<rscale>  0 0.77392407E+03</rscale>
<asrwt>0</asrwt>
<pdfrwt beam="1">  1        1 0.20329071E+00 0.77392407E+03</pdfrwt>
<pdfrwt beam="2">  1       -1 0.17433817E-01 0.77392407E+03</pdfrwt>
<totfact> 0.22758439E+02</totfact>
</mgrwt>
</event>
<event>
 6    1  0.1001928E-005  0.2853865E+04  0.7818608E-02  0.8286738E-01
         -1   -1    0    0    0  501 -0.00000000000E+00  0.00000000000E+00  0.16026925920E+04  0.16026925920E+04  0.00000000000E+00 0.  1.
          1   -1    0    0  501    0  0.00000000000E+00 -0.00000000000E+00 -0.12704472654E+04  0.12704472654E+04  0.00000000000E+00 0. -1.
         23    2    1    2    0    0  0.16443218712E+03  0.49180840396E+03  0.15031959652E+04  0.15924998422E+04  0.86857280790E+02 0.  0.
         11    1    3    3    0    0  0.11807308054E+03  0.24353414017E+03  0.85604623374E+03  0.89781138558E+03  0.00000000000E+00 0.  1.
        -11    1    3    3    0    0  0.46359106582E+02  0.24827426379E+03  0.64714973146E+03  0.69468845662E+03  0.00000000000E+00 0. -1.
         22    1    1    2    0    0 -0.16443218712E+03 -0.49180840396E+03 -0.11709506386E+04  0.12806400151E+04  0.00000000000E+00 0. -1.
<mgrwt>
<rscale>  0 0.28538650E+04</rscale>
<asrwt>0</asrwt>
<pdfrwt beam="1">  1        1 0.19545343E+00 0.28538650E+04</pdfrwt>
<pdfrwt beam="2">  1       -1 0.24656809E+00 0.28538650E+04</pdfrwt>
<totfact> 0.60094244E-01</totfact>
</mgrwt>
</event>
<event>
 6    1  0.1001928E-005  0.1753144E+04  0.7818608E-02  0.8731621E-01
          2   -1    0    0  501    0  0.00000000000E+00  0.00000000000E+00  0.87378712061E+03  0.87378712061E+03  0.00000000000E+00 0. -1.
         -2   -1    0    0    0  501 -0.00000000000E+00 -0.00000000000E+00 -0.87936603411E+03  0.87936603411E+03  0.00000000000E+00 0.  1.
         23    2    1    2    0    0 -0.71787244224E+03  0.39880678350E+03 -0.30424680635E+03  0.87931666881E+03  0.79018927965E+02 0.  0.
         13    1    3    3    0    0 -0.31277117766E+03  0.17640148534E+03 -0.91500839700E+02  0.37056132727E+03  0.00000000000E+00 0. -1.
        -13    1    3    3    0    0 -0.40510126458E+03  0.22240529816E+03 -0.21274596665E+03  0.50875534154E+03  0.00000000000E+00 0.  1.
         22    1    1    2    0    0  0.71787244224E+03 -0.39880678350E+03  0.29866789285E+03  0.87383648591E+03  0.00000000000E+00 0.  1.
<mgrwt>
<rscale>  0 0.17531443E+04</rscale>
<asrwt>0</asrwt>
<pdfrwt beam="1">  1        2 0.13442879E+00 0.17531443E+04</pdfrwt>
<pdfrwt beam="2">  1       -2 0.13528708E+00 0.17531443E+04</pdfrwt>
<totfact> 0.11358981E+01</totfact>
</mgrwt>
</event>
<event>
 6    1  0.1001928E-005  0.1831632E+04  0.7818608E-02  0.8689656E-01
          2   -1    0    0  501    0  0.00000000000E+00  0.00000000000E+00  0.91246859353E+03  0.91246859353E+03  0.00000000000E+00 0. -1.
         -2   -1    0    0    0  501 -0.00000000000E+00 -0.00000000000E+00 -0.91917598434E+03  0.91917598434E+03  0.00000000000E+00 0.  1.
         23    2    1    2    0    0  0.28635941366E+03 -0.22466856741E+03  0.83441198769E+03  0.91515154034E+03  0.93708578088E+02 0.  0.
         11    1    3    3    0    0  0.11719365200E+03 -0.68874020606E+02  0.41675937959E+03  0.43836784013E+03  0.00000000000E+00 0. -1.
        -11    1    3    3    0    0  0.16916576165E+03 -0.15579454680E+03  0.41765260810E+03  0.47678370021E+03  0.00000000000E+00 0.  1.
         22    1    1    2    0    0 -0.28635941366E+03  0.22466856741E+03 -0.84111937849E+03  0.91649303754E+03  0.00000000000E+00 0.  1.
<mgrwt>
<rscale>  0 0.18316323E+04</rscale>
<asrwt>0</asrwt>
<pdfrwt beam="1">  1        2 0.14037978E+00 0.18316323E+04</pdfrwt>
<pdfrwt beam="2">  1       -2 0.14141169E+00 0.18316323E+04</pdfrwt>
<totfact> 0.94741796E+00</totfact>
</mgrwt>
</event>
<event>
 6    1  0.1001928E-005  0.3548038E+04  0.7818608E-02  0.8102499E-01
         -2   -1    0    0    0  501 -0.00000000000E+00  0.00000000000E+00  0.16630970543E+04  0.16630970543E+04  0.00000000000E+00 0.  1.
          2   -1    0    0  501    0  0.00000000000E+00 -0.00000000000E+00 -0.18923388528E+04  0.18923388528E+04  0.00000000000E+00 0. -1.
         23    2    1    2    0    0 -0.11326103572E+03 -0.13973575034E+04  0.97264531844E+03  0.17088258518E+04  0.92794512694E+02 0.  0.
         11    1    3    3    0    0 -0.19857853600E+02 -0.34255784570E+03  0.28668166793E+03  0.44713151390E+03  0.00000000000E+00 0.  1.
        -11    1    3    3    0    0 -0.93403182124E+02 -0.10547996577E+04  0.68596365052E+03  0.12616943379E+04  0.00000000000E+00 0. -1.
         22    1    1    2    0    0  0.11326103572E+03  0.13973575034E+04 -0.12018871170E+04  0.18466100554E+04  0.00000000000E+00 0. -1.
<mgrwt>
<rscale>  0 0.35480379E+04</rscale>
<asrwt>0</asrwt>
<pdfrwt beam="1">  1        2 0.29112905E+00 0.35480379E+04</pdfrwt>
<pdfrwt beam="2">  1       -2 0.25586109E+00 0.35480379E+04</pdfrwt>
<totfact> 0.37125532E-01</totfact>
</mgrwt>
</event>
<event>
 6    1  0.1001928E-005  0.6496013E+03  0.7818608E-02  0.9807528E-01
          1   -1    0    0  501    0  0.00000000000E+00  0.00000000000E+00  0.31485961353E+03  0.31485961353E+03  0.00000000000E+00 0. -1.
         -1   -1    0    0    0  501 -0.00000000000E+00 -0.00000000000E+00 -0.33505558855E+03  0.33505558855E+03  0.00000000000E+00 0.  1.
         23    2    1    2    0    0 -0.16711963569E+03  0.18382230030E+03  0.18919007481E+03  0.32501194173E+03  0.90112524901E+02 0.  0.
         11    1    3    3    0    0 -0.47546700899E+02  0.10256575299E+03  0.11957084490E+03  0.16455275568E+03  0.00000000000E+00 0. -1.
        -11    1    3    3    0    0 -0.11957293479E+03  0.81256547315E+02  0.69619229902E+02  0.16045918605E+03  0.00000000000E+00 0.  1.
         22    1    1    2    0    0  0.16711963569E+03 -0.18382230030E+03 -0.20938604982E+03  0.32490326034E+03  0.00000000000E+00 0.  1.
<mgrwt>
<rscale>  0 0.64960133E+03</rscale>
<asrwt>0</asrwt>
<pdfrwt beam="1">  1        1 0.48439941E-01 0.64960133E+03</pdfrwt>
<pdfrwt beam="2">  1       -1 0.51547013E-01 0.64960133E+03</pdfrwt>
<totfact> 0.31596218E+02</totfact>
</mgrwt>
</event>
<event>
 6    1  0.1001928E-005  0.4291283E+04  0.7818608E-02  0.7948232E-01
         -2   -1    0    0    0  501 -0.00000000000E+00  0.00000000000E+00  0.14240543064E+04  0.14240543064E+04  0.00000000000E+00 0.  1.
          2   -1    0    0  501    0  0.00000000000E+00 -0.00000000000E+00 -0.32328671451E+04  0.32328671451E+04  0.00000000000E+00 0. -1.
         23    2    1    2    0    0  0.98815913297E+03 -0.12288574547E+04  0.67271151602E+03  0.17167663129E+04  0.90535480292E+02 0.  0.
         13    1    3    3    0    0  0.64297857407E+03 -0.76592634507E+03  0.46772286049E+03  0.11040060177E+04  0.00000000000E+00 0. -1.
        -13    1    3    3    0    0  0.34518055890E+03 -0.46293110964E+03  0.20498865553E+03  0.61276029523E+03  0.00000000000E+00 0.  1.
         22    1    1    2    0    0 -0.98815913297E+03  0.12288574547E+04 -0.24815243547E+04  0.29401551386E+04  0.00000000000E+00 0. -1.
<mgrwt>
<rscale>  0 0.42912834E+04</rscale>
<asrwt>0</asrwt>
<pdfrwt beam="1">  1        2 0.49736417E+00 0.42912834E+04</pdfrwt>
<pdfrwt beam="2">  1       -2 0.21908528E+00 0.42912834E+04</pdfrwt>
<totfact> 0.95144048E-02</totfact>
</mgrwt>
</event>
<event>
 6    1  0.1569062E-005  0.3883158E+04  0.7818608E-02  0.8028541E-01
         -2   -1    0    0    0  501 -0.00000000000E+00  0.00000000000E+00  0.13057599106E+04  0.13057599106E+04  0.00000000000E+00 0.  1.
          2   -1    0    0  501    0  0.00000000000E+00 -0.00000000000E+00 -0.28869999144E+04  0.28869999144E+04  0.00000000000E+00 0. -1.
         23    2    1    2    0    0  0.12060451417E+04  0.30144501779E+03 -0.23998194651E+04  0.27043088460E+04  0.93482015152E+02 0.  0.
         13    1    3    3    0    0  0.28853107545E+03  0.10199236833E+03 -0.53097161588E+03  0.61284866123E+03  0.00000000000E+00 0.  1.
        -13    1    3    3    0    0  0.91751406620E+03  0.19945264946E+03 -0.18688478492E+04  0.20914601848E+04  0.00000000000E+00 0. -1.
         22    1    1    2    0    0 -0.12060451417E+04 -0.30144501779E+03  0.81857946126E+03  0.14884509790E+04  0.00000000000E+00 0.  1.
<mgrwt>
<rscale>  0 0.38831579E+04</rscale>
<asrwt>0</asrwt>
<pdfrwt beam="1">  1        2 0.44415383E+00 0.38831579E+04</pdfrwt>
<pdfrwt beam="2">  1       -2 0.20088614E+00 0.38831579E+04</pdfrwt>
<totfact> 0.21377282E-01</totfact>
</mgrwt>
</event>
<event>
 6    1  0.1001928E-005  0.2579586E+04  0.7818608E-02  0.8375168E-01
         -2   -1    0    0    0  501 -0.00000000000E+00  0.00000000000E+00  0.13405634244E+04  0.13405634244E+04  0.00000000000E+00 0.  1.
          2   -1    0    0  501    0  0.00000000000E+00 -0.00000000000E+00 -0.12409456434E+04  0.12409456434E+04  0.00000000000E+00 0. -1.
         23    2    1    2    0    0  0.10574170251E+03 -0.47310141658E+03  0.12442684479E+04  0.13384356962E+04  0.90553213732E+02 0.  0.
         11    1    3    3    0    0 -0.12686638763E+02 -0.68511352035E+02  0.13864293410E+03  0.15516642464E+03  0.00000000000E+00 0. -1.
        -11    1    3    3    0    0  0.11842834127E+03 -0.40459006455E+03  0.11056255138E+04  0.11832692716E+04  0.00000000000E+00 0.  1.
         22    1    1    2    0    0 -0.10574170251E+03  0.47310141658E+03 -0.11446506669E+04  0.12430733716E+04  0.00000000000E+00 0. -1.
<mgrwt>
<rscale>  0 0.25795863E+04</rscale>
<asrwt>0</asrwt>
<pdfrwt beam="1">  1        2 0.19091471E+00 0.25795863E+04</pdfrwt>
<pdfrwt beam="2">  1       -2 0.20624053E+00 0.25795863E+04</pdfrwt>
<totfact> 0.19213454E+00</totfact>
</mgrwt>
</event>
<event>
 6    1  0.1001928E-005  0.1785691E+04  0.7818608E-02  0.8713946E-01
          2   -1    0    0  501    0  0.00000000000E+00  0.00000000000E+00  0.11032270602E+04  0.11032270602E+04  0.00000000000E+00 0.  1.
         -2   -1    0    0    0  501 -0.00000000000E+00 -0.00000000000E+00 -0.72258267672E+03  0.72258267672E+03  0.00000000000E+00 0. -1.
         23    2    1    2    0    0 -0.70159269993E+03  0.51705949950E+03  0.37798297809E+03  0.95426517373E+03  0.90377250713E+02 0.  0.
         13    1    3    3    0    0 -0.41437160338E+03  0.33738488333E+03  0.19211730929E+03  0.56783927806E+03  0.00000000000E+00 0.  1.
        -13    1    3    3    0    0 -0.28722109656E+03  0.17967461617E+03  0.18586566880E+03  0.38642589566E+03  0.00000000000E+00 0. -1.
         22    1    1    2    0    0  0.70159269993E+03 -0.51705949950E+03  0.26614054215E+01  0.87154456323E+03  0.00000000000E+00 0. -1.
<mgrwt>
<rscale>  0 0.17856906E+04</rscale>
<asrwt>0</asrwt>
<pdfrwt beam="1">  1        2 0.16972724E+00 0.17856906E+04</pdfrwt>
<pdfrwt beam="2">  1       -2 0.11116657E+00 0.17856906E+04</pdfrwt>
<totfact> 0.13128509E+01</totfact>
</mgrwt>
</event>
<event>
 6    1  0.1001928E-005  0.2239903E+04  0.7818608E-02  0.8502001E-01
          1   -1    0    0  501    0  0.00000000000E+00  0.00000000000E+00  0.60787247824E+03  0.60787247824E+03  0.00000000000E+00 0. -1.
         -1   -1    0    0    0  501 -0.00000000000E+00 -0.00000000000E+00 -0.20634115869E+04  0.20634115869E+04  0.00000000000E+00 0.  1.
         23    2    1    2    0    0 -0.68358383989E+03  0.39734295285E+03  0.21381384884E+03  0.82414909849E+03  0.91307646110E+02 0.  0.
         11    1    3    3    0    0 -0.29574125960E+03  0.20375829815E+03  0.13440662421E+03  0.38346509271E+03  0.00000000000E+00 0.  1.
        -11    1    3    3    0    0 -0.38784258030E+03  0.19358465470E+03  0.79407224627E+02  0.44068400578E+03  0.00000000000E+00 0. -1.
         22    1    1    2    0    0  0.68358383989E+03 -0.39734295285E+03 -0.16693529575E+04  0.18471349667E+04  0.00000000000E+00 0.  1.
<mgrwt>
<rscale>  0 0.22399028E+04</rscale>
<asrwt>0</asrwt>
<pdfrwt beam="1">  1        1 0.93518840E-01 0.22399028E+04</pdfrwt>
<pdfrwt beam="2">  1       -1 0.31744795E+00 0.22399028E+04</pdfrwt>
<totfact> 0.77692406E-01</totfact>
</mgrwt>
</event>
<event>
 6    1  0.1001928E-005  0.5801617E+04  0.7818608E-02  0.7715497E-01
          2   -1    0    0  501    0  0.00000000000E+00  0.00000000000E+00  0.32682003670E+04  0.32682003670E+04  0.00000000000E+00 0. -1.
         -2   -1    0    0    0  501 -0.00000000000E+00 -0.00000000000E+00 -0.25747168488E+04  0.25747168488E+04  0.00000000000E+00 0.  1.
         23    2    1    2    0    0  0.25260129059E+04 -0.14018855118E+04  0.90190893740E+02  0.28916486446E+04  0.86448236642E+02 0.  0.
         13    1    3    3    0    0  0.22919784760E+04 -0.12982512100E+04  0.73500982745E+02  0.26351515959E+04  0.00000000000E+00 0. -1.
        -13    1    3    3    0    0  0.23403442984E+03 -0.10363430175E+03  0.16689910995E+02  0.25649704867E+03  0.00000000000E+00 0.  1.
         22    1    1    2    0    0 -0.25260129059E+04  0.14018855118E+04  0.60329262446E+03  0.29512685712E+04  0.00000000000E+00 0. -1.
<mgrwt>
<rscale>  0 0.58016172E+04</rscale>
<asrwt>0</asrwt>
<pdfrwt beam="1">  1        2 0.50280006E+00 0.58016172E+04</pdfrwt>
<pdfrwt beam="2">  1       -2 0.39611028E+00 0.58016172E+04</pdfrwt>
<totfact> 0.62896827E-03</totfact>
</mgrwt>
</event>
<event>
 6    1  0.1001928E-005  0.2481746E+04  0.7818608E-02  0.8409518E-01
          2   -1    0    0  501    0  0.00000000000E+00  0.00000000000E+00  0.16604471559E+04  0.16604471559E+04  0.00000000000E+00 0. -1.
         -2   -1    0    0    0  501 -0.00000000000E+00 -0.00000000000E+00 -0.92731988048E+03  0.92731988048E+03  0.00000000000E+00 0.  1.
         23    2    1    2    0    0 -0.92635173071E+03 -0.69569876592E+03 -0.92056336109E+02  0.11654266078E+04  0.87295517404E+02 0.  0.
         13    1    3    3    0    0 -0.11589252830E+03 -0.10447378880E+03 -0.39012509633E+02  0.16083478035E+03  0.00000000000E+00 0.  1.
        -13    1    3    3    0    0 -0.81045920240E+03 -0.59122497713E+03 -0.53043826476E+02  0.10045918275E+04  0.00000000000E+00 0. -1.
         22    1    1    2    0    0  0.92635173071E+03  0.69569876592E+03  0.82518361152E+03  0.14223404285E+04  0.00000000000E+00 0. -1.
<mgrwt>
<rscale>  0 0.24817459E+04</rscale>
<asrwt>0</asrwt>
<pdfrwt beam="1">  1        2 0.25545341E+00 0.24817459E+04</pdfrwt>
<pdfrwt beam="2">  1       -2 0.14266460E+00 0.24817459E+04</pdfrwt>
<totfact> 0.31516005E+00</totfact>
</mgrwt>
</event>
<event>
 6    1  0.1001928E-005  0.7540659E+04  0.7818608E-02  0.7524109E-01
         -2   -1    0    0    0  501 -0.00000000000E+00  0.00000000000E+00  0.40907511477E+04  0.40907511477E+04  0.00000000000E+00 0.  1.
          2   -1    0    0  501    0  0.00000000000E+00 -0.00000000000E+00 -0.34750061121E+04  0.34750061121E+04  0.00000000000E+00 0. -1.
         23    2    1    2    0    0  0.28311645394E+04 -0.12379451350E+04  0.24746269174E+04  0.39597286053E+04  0.87586765155E+02 0.  0.
         11    1    3    3    0    0  0.14856534880E+04 -0.60362794726E+03  0.12686105294E+04  0.20447263045E+04  0.00000000000E+00 0.  1.
        -11    1    3    3    0    0  0.13455110514E+04 -0.63431718776E+03  0.12060163880E+04  0.19150023008E+04  0.00000000000E+00 0. -1.
         22    1    1    2    0    0 -0.28311645394E+04  0.12379451350E+04 -0.18588818818E+04  0.36060286545E+04  0.00000000000E+00 0. -1.
<mgrwt>
<rscale>  0 0.75406592E+04</rscale>
<asrwt>0</asrwt>
<pdfrwt beam="1">  1        2 0.53461632E+00 0.75406592E+04</pdfrwt>
<pdfrwt beam="2">  1       -2 0.62934633E+00 0.75406592E+04</pdfrwt>
<totfact> 0.20688145E-04</totfact>
</mgrwt>
</event>
<event>
 6    1  0.1001928E-005  0.6610363E+03  0.7818608E-02  0.9786288E-01
         -2   -1    0    0    0  501 -0.00000000000E+00  0.00000000000E+00  0.58820078003E+02  0.58820078003E+02  0.00000000000E+00 0. -1.
          2   -1    0    0  501    0  0.00000000000E+00 -0.00000000000E+00 -0.18572269608E+04  0.18572269608E+04  0.00000000000E+00 0.  1.
         23    2    1    2    0    0  0.13377931771E+03  0.41942077107E+02 -0.17637297425E+04  0.17716221526E+04  0.90809709882E+02 0.  0.
         11    1    3    3    0    0  0.12959119028E+03  0.24788936947E+02 -0.11347820655E+04  0.11424266735E+04  0.00000000000E+00 0. -1.
        -11    1    3    3    0    0  0.41881274268E+01  0.17153140160E+02 -0.62894767698E+03  0.62919547917E+03  0.00000000000E+00 0.  1.
         22    1    1    2    0    0 -0.13377931771E+03 -0.41942077107E+02 -0.34677140252E+02  0.14442488613E+03  0.00000000000E+00 0. -1.
<mgrwt>
<rscale>  0 0.66103626E+03</rscale>
<asrwt>0</asrwt>
<pdfrwt beam="1">  1        2 0.28572721E+00 0.66103626E+03</pdfrwt>
<pdfrwt beam="2">  1       -2 0.90492434E-02 0.66103626E+03</pdfrwt>
<totfact> 0.66394463E+02</totfact>
</mgrwt>
</event>
<event>
 6    1  0.1001928E-005  0.1143931E+04  0.7818608E-02  0.9163400E-01
          2   -1    0    0  501    0  0.00000000000E+00  0.00000000000E+00  0.60117861741E+03  0.60117861741E+03  0.00000000000E+00 0. -1.
         -2   -1    0    0    0  501 -0.00000000000E+00 -0.00000000000E+00 -0.54417227265E+03  0.54417227265E+03  0.00000000000E+00 0.  1.
         23    2    1    2    0    0 -0.26497413667E+03 -0.49585002092E+03 -0.54242350650E+02  0.57224111996E+03  0.91864739822E+02 0.  0.
         13    1    3    3    0    0 -0.91737385768E+02 -0.22242451256E+03 -0.62008467127E+02  0.24846219376E+03  0.00000000000E+00 0. -1.
        -13    1    3    3    0    0 -0.17323675090E+03 -0.27342550836E+03  0.77661164770E+01  0.32377892620E+03  0.00000000000E+00 0.  1.
         22    1    1    2    0    0  0.26497413667E+03  0.49585002092E+03  0.11124869541E+03  0.57310977010E+03  0.00000000000E+00 0. -1.
<mgrwt>
<rscale>  0 0.11439314E+04</rscale>
<asrwt>0</asrwt>
<pdfrwt beam="1">  1        2 0.92489018E-01 0.11439314E+04</pdfrwt>
<pdfrwt beam="2">  1       -2 0.83718811E-01 0.11439314E+04</pdfrwt>
<totfact> 0.61144637E+01</totfact>
</mgrwt>
</event>
<event>
 6    1  0.1127966E-005  0.4201257E+04  0.7818608E-02  0.7965133E-01
         -2   -1    0    0    0  501 -0.00000000000E+00  0.00000000000E+00  0.26974453928E+04  0.26974453928E+04  0.00000000000E+00 0.  1.
          2   -1    0    0  501    0  0.00000000000E+00 -0.00000000000E+00 -0.16358592695E+04  0.16358592695E+04  0.00000000000E+00 0. -1.
         23    2    1    2    0    0  0.49147333376E+03  0.48871022747E+03  0.25752880499E+04  0.26684691609E+04  0.90749097745E+02 0.  0.
         13    1    3    3    0    0  0.18863379249E+03  0.21486104953E+03  0.12174630534E+04  0.12505855687E+04  0.00000000000E+00 0.  1.
        -13    1    3    3    0    0  0.30283954127E+03  0.27384917794E+03  0.13578249965E+04  0.14178835922E+04  0.00000000000E+00 0. -1.
         22    1    1    2    0    0 -0.49147333376E+03 -0.48871022747E+03 -0.15137019265E+04  0.16648355014E+04  0.00000000000E+00 0. -1.
<mgrwt>
<rscale>  0 0.42012575E+04</rscale>
<asrwt>0</asrwt>
<pdfrwt beam="1">  1        2 0.25167066E+00 0.42012575E+04</pdfrwt>
<pdfrwt beam="2">  1       -2 0.41499160E+00 0.42012575E+04</pdfrwt>
<totfact> 0.48895732E-02</totfact>
</mgrwt>
</event>
<event>
 6    1  0.1001928E-005  0.2096032E+04  0.7818608E-02  0.8562993E-01
         -2   -1    0    0    0  501 -0.00000000000E+00  0.00000000000E+00  0.70052068368E+03  0.70052068368E+03  0.00000000000E+00 0.  1.
          2   -1    0    0  501    0  0.00000000000E+00 -0.00000000000E+00 -0.15678869059E+04  0.15678869059E+04  0.00000000000E+00 0. -1.
         23    2    1    2    0    0  0.81615116491E+03  0.64779861223E+03 -0.33442989185E+03  0.10980371789E+04  0.89980707241E+02 0.  0.
         13    1    3    3    0    0  0.56690596113E+03  0.45529361543E+03 -0.27606125023E+03  0.77774318312E+03  0.00000000000E+00 0. -1.
        -13    1    3    3    0    0  0.24924520378E+03  0.19250499680E+03 -0.58368641614E+02  0.32029399577E+03  0.00000000000E+00 0.  1.
         22    1    1    2    0    0 -0.81615116491E+03 -0.64779861223E+03 -0.53293633037E+03  0.11703704107E+04  0.00000000000E+00 0.  1.
<mgrwt>
<rscale>  0 0.20960317E+04</rscale>
<asrwt>0</asrwt>
<pdfrwt beam="1">  1        2 0.24121337E+00 0.20960317E+04</pdfrwt>
<pdfrwt beam="2">  1       -2 0.10777241E+00 0.20960317E+04</pdfrwt>
<totfact> 0.73984005E+00</totfact>
</mgrwt>
</event>
<event>
 6    1  0.1001928E-005  0.6776756E+03  0.7818608E-02  0.9756190E-01
         -1   -1    0    0    0  501 -0.00000000000E+00  0.00000000000E+00  0.15541902481E+03  0.15541902481E+03  0.00000000000E+00 0.  1.
          1   -1    0    0  501    0  0.00000000000E+00 -0.00000000000E+00 -0.73871933470E+03  0.73871933470E+03  0.00000000000E+00 0. -1.
         23    2    1    2    0    0 -0.71260134707E+02 -0.23080887609E+03 -0.59900936831E+03  0.65206911612E+03  0.89616766201E+02 0.  0.
         11    1    3    3    0    0 -0.54775802693E+02 -0.85856543343E+02 -0.16200204491E+03  0.19135411453E+03  0.00000000000E+00 0. -1.
        -11    1    3    3    0    0 -0.16484332014E+02 -0.14495233275E+03 -0.43700732341E+03  0.46071500158E+03  0.00000000000E+00 0.  1.
         22    1    1    2    0    0  0.71260134707E+02  0.23080887609E+03  0.15709058423E+02  0.24206924340E+03  0.00000000000E+00 0.  1.
<mgrwt>
<rscale>  0 0.67767555E+03</rscale>
<asrwt>0</asrwt>
<pdfrwt beam="1">  1        1 0.11364913E+00 0.67767555E+03</pdfrwt>
<pdfrwt beam="2">  1       -1 0.23910619E-01 0.67767555E+03</pdfrwt>
<totfact> 0.38332902E+02</totfact>
</mgrwt>
</event>
<event>
 6    1  0.1001928E-005  0.2024082E+04  0.7818608E-02  0.8595443E-01
         -1   -1    0    0    0  501 -0.00000000000E+00  0.00000000000E+00  0.46541540733E+03  0.46541540733E+03  0.00000000000E+00 0. -1.
          1   -1    0    0  501    0  0.00000000000E+00 -0.00000000000E+00 -0.22006735369E+04  0.22006735369E+04  0.00000000000E+00 0.  1.
         23    2    1    2    0    0 -0.10451212093E+03  0.38054366712E+03 -0.20939069658E+04  0.21328298573E+04  0.93704605440E+02 0.  0.
         13    1    3    3    0    0 -0.39131278752E+02  0.26617379109E+03 -0.12426736897E+04  0.12714627966E+04  0.00000000000E+00 0. -1.
        -13    1    3    3    0    0 -0.65380842178E+02  0.11436987603E+03 -0.85123327606E+03  0.86136706075E+03  0.00000000000E+00 0.  1.
         22    1    1    2    0    0  0.10451212093E+03 -0.38054366712E+03  0.35864883621E+03  0.53325908686E+03  0.00000000000E+00 0. -1.
<mgrwt>
<rscale>  0 0.20240824E+04</rscale>
<asrwt>0</asrwt>
<pdfrwt beam="1">  1        1 0.33856516E+00 0.20240824E+04</pdfrwt>
<pdfrwt beam="2">  1       -1 0.71602370E-01 0.20240824E+04</pdfrwt>
<totfact> 0.39670757E+00</totfact>
</mgrwt>
</event>
<event>
 6    1  0.1001928E-005  0.8929256E+03  0.7818608E-02  0.9434468E-01
         -2   -1    0    0    0  501 -0.00000000000E+00  0.00000000000E+00  0.12853094653E+04  0.12853094653E+04  0.00000000000E+00 0.  1.
          2   -1    0    0  501    0  0.00000000000E+00 -0.00000000000E+00 -0.15508252234E+03  0.15508252234E+03  0.00000000000E+00 0. -1.
         23    2    1    2    0    0 -0.29211419589E+03 -0.18914881589E+03  0.10100898945E+04  0.10722332061E+04  0.91074011053E+02 0.  0.
         11    1    3    3    0    0 -0.25280970684E+03 -0.12002777138E+03  0.80581682971E+03  0.85302999761E+03  0.00000000000E+00 0. -1.
        -11    1    3    3    0    0 -0.39304489048E+02 -0.69121044502E+02  0.20427306475E+03  0.21920320854E+03  0.00000000000E+00 0.  1.
         22    1    1    2    0    0  0.29211419589E+03  0.18914881589E+03  0.12013704855E+03  0.36815878154E+03  0.00000000000E+00 0. -1.
<mgrwt>
<rscale>  0 0.89292560E+03</rscale>
<asrwt>0</asrwt>
<pdfrwt beam="1">  1        2 0.23858850E-01 0.89292560E+03</pdfrwt>
<pdfrwt beam="2">  1       -2 0.19773991E+00 0.89292560E+03</pdfrwt>
<totfact> 0.32065306E+01</totfact>
</mgrwt>
</event>
<event>
 6    1  0.1001928E-005  0.1478575E+04  0.7818608E-02  0.8898827E-01
          2   -1    0    0  501    0  0.00000000000E+00  0.00000000000E+00  0.82529861112E+03  0.82529861112E+03  0.00000000000E+00 0. -1.
         -2   -1    0    0    0  501 -0.00000000000E+00 -0.00000000000E+00 -0.66224036797E+03  0.66224036797E+03  0.00000000000E+00 0.  1.
         23    2    1    2    0    0  0.42524103272E+03 -0.28172142316E+03 -0.45222966983E+03  0.68830427511E+03  0.95153584767E+02 0.  0.
         13    1    3    3    0    0  0.17843678278E+03 -0.10079088545E+03 -0.24156137831E+03  0.31678129290E+03  0.00000000000E+00 0. -1.
        -13    1    3    3    0    0  0.24680424994E+03 -0.18093053771E+03 -0.21066829151E+03  0.37152298221E+03  0.00000000000E+00 0.  1.
         22    1    1    2    0    0 -0.42524103272E+03  0.28172142316E+03  0.61528791298E+03  0.79923470397E+03  0.00000000000E+00 0. -1.
<mgrwt>
<rscale>  0 0.14785751E+04</rscale>
<asrwt>0</asrwt>
<pdfrwt beam="1">  1        2 0.12696902E+00 0.14785751E+04</pdfrwt>
<pdfrwt beam="2">  1       -2 0.10188313E+00 0.14785751E+04</pdfrwt>
<totfact> 0.25265274E+01</totfact>
</mgrwt>
</event>
<event>
 6    1  0.1001928E-005  0.3208417E+04  0.7818608E-02  0.8186598E-01
          2   -1    0    0  501    0  0.00000000000E+00  0.00000000000E+00  0.29960397276E+04  0.29960397276E+04  0.00000000000E+00 0. -1.
         -2   -1    0    0    0  501 -0.00000000000E+00 -0.00000000000E+00 -0.85896215357E+03  0.85896215357E+03  0.00000000000E+00 0.  1.
         23    2    1    2    0    0 -0.34613175726E+03 -0.42638226132E+03 -0.74024429625E+03  0.92573743914E+03  0.86134557226E+02 0.  0.
         11    1    3    3    0    0 -0.99262323602E+02 -0.17070052615E+03 -0.21927501401E+03  0.29508170103E+03  0.00000000000E+00 0.  1.
        -11    1    3    3    0    0 -0.24686943366E+03 -0.25568173517E+03 -0.52096928224E+03  0.63065573811E+03  0.00000000000E+00 0. -1.
         22    1    1    2    0    0  0.34613175726E+03  0.42638226132E+03  0.28773218703E+04  0.29292644421E+04  0.00000000000E+00 0. -1.
<mgrwt>
<rscale>  0 0.32084169E+04</rscale>
<asrwt>0</asrwt>
<pdfrwt beam="1">  1        2 0.46092919E+00 0.32084169E+04</pdfrwt>
<pdfrwt beam="2">  1       -2 0.13214802E+00 0.32084169E+04</pdfrwt>
<totfact> 0.61343820E-01</totfact>
</mgrwt>
</event>
<event>
 6    1  0.1001928E-005  0.2214637E+04  0.7818608E-02  0.8512361E-01
          2   -1    0    0  501    0  0.00000000000E+00  0.00000000000E+00  0.10944749792E+04  0.10944749792E+04  0.00000000000E+00 0. -1.
         -2   -1    0    0    0  501 -0.00000000000E+00 -0.00000000000E+00 -0.11203123044E+04  0.11203123044E+04  0.00000000000E+00 0.  1.
         23    2    1    2    0    0  0.10378320948E+04 -0.26643305459E+03  0.25901384841E+03  0.11060843384E+04  0.90842502831E+02 0.  0.
         11    1    3    3    0    0  0.46025447810E+03 -0.13151337330E+03  0.16027631359E+03  0.50479545230E+03  0.00000000000E+00 0. -1.
        -11    1    3    3    0    0  0.57757761673E+03 -0.13491968130E+03  0.98737534824E+02  0.60128888609E+03  0.00000000000E+00 0.  1.
         22    1    1    2    0    0 -0.10378320948E+04  0.26643305459E+03 -0.28485117364E+03  0.11087029452E+04  0.00000000000E+00 0.  1.
<mgrwt>
<rscale>  0 0.22146366E+04</rscale>
<asrwt>0</asrwt>
<pdfrwt beam="1">  1        2 0.16838077E+00 0.22146366E+04</pdfrwt>
<pdfrwt beam="2">  1       -2 0.17235574E+00 0.22146366E+04</pdfrwt>
<totfact> 0.41110833E+00</totfact>
</mgrwt>
</event>
<event>
 6    1  0.1001928E-005  0.3714043E+04  0.7818608E-02  0.8064857E-01
          1   -1    0    0  501    0  0.00000000000E+00  0.00000000000E+00  0.15568526011E+04  0.15568526011E+04  0.00000000000E+00 0. -1.
         -1   -1    0    0    0  501 -0.00000000000E+00 -0.00000000000E+00 -0.22150645955E+04  0.22150645955E+04  0.00000000000E+00 0.  1.
         23    2    1    2    0    0 -0.13254547396E+04 -0.12877789812E+04 -0.50255959289E+03  0.19173464535E+04  0.91903791293E+02 0.  0.
         13    1    3    3    0    0 -0.61309202080E+03 -0.53621914130E+03 -0.20444715200E+03  0.83976867733E+03  0.00000000000E+00 0. -1.
        -13    1    3    3    0    0 -0.71236271882E+03 -0.75155983995E+03 -0.29811244089E+03  0.10775777761E+04  0.00000000000E+00 0.  1.
         22    1    1    2    0    0  0.13254547396E+04  0.12877789812E+04 -0.15565240157E+03  0.18545707432E+04  0.00000000000E+00 0. -1.
<mgrwt>
<rscale>  0 0.37140431E+04</rscale>
<asrwt>0</asrwt>
<pdfrwt beam="1">  1        1 0.23951579E+00 0.37140431E+04</pdfrwt>
<pdfrwt beam="2">  1       -1 0.34077917E+00 0.37140431E+04</pdfrwt>
<totfact> 0.85591156E-02</totfact>
</mgrwt>
</event>
<event>
 6    1  0.1001928E-005  0.6494010E+03  0.7818608E-02  0.9807904E-01
         -1   -1    0    0    0  501 -0.00000000000E+00  0.00000000000E+00  0.87342768858E+02  0.87342768858E+02  0.00000000000E+00 0.  1.
          1   -1    0    0  501    0  0.00000000000E+00 -0.00000000000E+00 -0.12070879351E+04  0.12070879351E+04  0.00000000000E+00 0. -1.
         23    2    1    2    0    0  0.10330374843E+03 -0.20613840210E+03 -0.10082076559E+04  0.10382953462E+04  0.91705198191E+02 0.  0.
         11    1    3    3    0    0  0.90387393949E+02 -0.13539853120E+03 -0.52193935866E+03  0.54673882005E+03  0.00000000000E+00 0.  1.
        -11    1    3    3    0    0  0.12916354479E+02 -0.70739870894E+02 -0.48626829720E+03  0.49155652615E+03  0.00000000000E+00 0. -1.
         22    1    1    2    0    0 -0.10330374843E+03  0.20613840210E+03 -0.11153751036E+03  0.25613535772E+03  0.00000000000E+00 0.  1.
<mgrwt>
<rscale>  0 0.64940096E+03</rscale>
<asrwt>0</asrwt>
<pdfrwt beam="1">  1        1 0.18570583E+00 0.64940096E+03</pdfrwt>
<pdfrwt beam="2">  1       -1 0.13437349E-01 0.64940096E+03</pdfrwt>
<totfact> 0.42256124E+02</totfact>
</mgrwt>
</event>
<event>
 6    1  0.1001928E-005  0.2383473E+04  0.7818608E-02  0.8445717E-01
         -2   -1    0    0    0  501 -0.00000000000E+00  0.00000000000E+00  0.44197950237E+03  0.44197950237E+03  0.00000000000E+00 0.  1.
          2   -1    0    0  501    0  0.00000000000E+00 -0.00000000000E+00 -0.32133526359E+04  0.32133526359E+04  0.00000000000E+00 0. -1.
         23    2    1    2    0    0 -0.10328826740E+04 -0.14695964941E+01 -0.48141902922E+03  0.11432137936E+04  0.91239893059E+02 0.  0.
         13    1    3    3    0    0 -0.34039312900E+03 -0.31957944752E+02 -0.12715285173E+03  0.36476929724E+03  0.00000000000E+00 0.  1.
        -13    1    3    3    0    0 -0.69248954501E+03  0.30488348258E+02 -0.35426617750E+03  0.77844449632E+03  0.00000000000E+00 0. -1.
         22    1    1    2    0    0  0.10328826740E+04  0.14695964941E+01 -0.22899541043E+04  0.25121183447E+04  0.00000000000E+00 0. -1.
<mgrwt>
<rscale>  0 0.23834731E+04</rscale>
<asrwt>0</asrwt>
<pdfrwt beam="1">  1        2 0.49436195E+00 0.23834731E+04</pdfrwt>
<pdfrwt beam="2">  1       -2 0.67996845E-01 0.23834731E+04</pdfrwt>
<totfact> 0.22687773E+00</totfact>
</mgrwt>
</event>
<event>
 6    1  0.1001928E-005  0.8980630E+03  0.7818608E-02  0.9428006E-01
          1   -1    0    0  501    0  0.00000000000E+00  0.00000000000E+00  0.89032147406E+03  0.89032147406E+03  0.00000000000E+00 0. -1.
         -1   -1    0    0    0  501 -0.00000000000E+00 -0.00000000000E+00 -0.22646796701E+03  0.22646796701E+03  0.00000000000E+00 0.  1.
         23    2    1    2    0    0 -0.11302258181E+03  0.33019748630E+03  0.67590905424E+03  0.76757629674E+03  0.10254675886E+03 0.  0.
         11    1    3    3    0    0 -0.49764580612E+01  0.59217237585E+02  0.20668905663E+03  0.21506234559E+03  0.00000000000E+00 0.  1.
        -11    1    3    3    0    0 -0.10804612375E+03  0.27098024871E+03  0.46921999761E+03  0.55251395114E+03  0.00000000000E+00 0. -1.
         22    1    1    2    0    0  0.11302258181E+03 -0.33019748630E+03 -0.12055547186E+02  0.34921314433E+03  0.00000000000E+00 0.  1.
<mgrwt>
<rscale>  0 0.89806301E+03</rscale>
<asrwt>0</asrwt>
<pdfrwt beam="1">  1        1 0.13697253E+00 0.89806301E+03</pdfrwt>
<pdfrwt beam="2">  1       -1 0.34841226E-01 0.89806301E+03</pdfrwt>
<totfact> 0.14593136E+02</totfact>
</mgrwt>
</event>
<event>
 6    1  0.1001928E-005  0.1398698E+04  0.7818608E-02  0.8954761E-01
         -2   -1    0    0    0  501 -0.00000000000E+00  0.00000000000E+00  0.33406891960E+03  0.33406891960E+03  0.00000000000E+00 0.  1.
          2   -1    0    0  501    0  0.00000000000E+00 -0.00000000000E+00 -0.14640367392E+04  0.14640367392E+04  0.00000000000E+00 0. -1.
         23    2    1    2    0    0  0.54935385225E+03 -0.27095123935E+03 -0.99387963594E+03  0.11706311790E+04  0.85885956095E+02 0.  0.
         13    1    3    3    0    0  0.20141979012E+03 -0.12434503331E+03 -0.45134210060E+03  0.50964822273E+03  0.00000000000E+00 0. -1.
        -13    1    3    3    0    0  0.34793406213E+03 -0.14660620604E+03 -0.54253753534E+03  0.66098295628E+03  0.00000000000E+00 0.  1.
         22    1    1    2    0    0 -0.54935385225E+03  0.27095123935E+03 -0.13608818370E+03  0.62747447982E+03  0.00000000000E+00 0.  1.
<mgrwt>
<rscale>  0 0.13986982E+04</rscale>
<asrwt>0</asrwt>
<pdfrwt beam="1">  1        2 0.22523642E+00 0.13986982E+04</pdfrwt>
<pdfrwt beam="2">  1       -2 0.51395219E-01 0.13986982E+04</pdfrwt>
<totfact> 0.46307828E+01</totfact>
</mgrwt>
</event>
<event>
 6    1  0.1001928E-005  0.2022788E+04  0.7818608E-02  0.8596040E-01
         -1   -1    0    0    0  501 -0.00000000000E+00  0.00000000000E+00  0.16143511022E+04  0.16143511022E+04  0.00000000000E+00 0.  1.
          1   -1    0    0  501    0  0.00000000000E+00 -0.00000000000E+00 -0.63363995186E+03  0.63363995186E+03  0.00000000000E+00 0. -1.
         23    2    1    2    0    0  0.24226151981E+03  0.57951593103E+03  0.13695595921E+04  0.15092539771E+04  0.87319716392E+02 0.  0.
         13    1    3    3    0    0 -0.60405320274E+01  0.35521390978E+02  0.85493865855E+02  0.92776388930E+02  0.00000000000E+00 0. -1.
        -13    1    3    3    0    0  0.24830205184E+03  0.54399454005E+03  0.12840657262E+04  0.14164775882E+04  0.00000000000E+00 0.  1.
         22    1    1    2    0    0 -0.24226151981E+03 -0.57951593103E+03 -0.38884844170E+03  0.73873707699E+03  0.00000000000E+00 0. -1.
<mgrwt>
<rscale>  0 0.20227875E+04</rscale>
<asrwt>0</asrwt>
<pdfrwt beam="1">  1        1 0.97483071E-01 0.20227875E+04</pdfrwt>
<pdfrwt beam="2">  1       -1 0.24836171E+00 0.20227875E+04</pdfrwt>
<totfact> 0.20923606E+00</totfact>
</mgrwt>
</event>
<event>
 6    1  0.1001928E-005  0.3943776E+03  0.7818608E-02  0.1045744E+00
         -2   -1    0    0    0  501 -0.00000000000E+00  0.00000000000E+00  0.45792156380E+02  0.45792156380E+02  0.00000000000E+00 0.  1.
          2   -1    0    0  501    0  0.00000000000E+00 -0.00000000000E+00 -0.84912855001E+03  0.84912855001E+03  0.00000000000E+00 0. -1.
         23    2    1    2    0    0  0.10831998664E+03  0.62047475708E+02 -0.73950819033E+03  0.75471675394E+03  0.84509800356E+02 0.  0.
         11    1    3    3    0    0  0.48262900305E+02 -0.17268250278E+02 -0.25286250657E+03  0.25800571164E+03  0.00000000000E+00 0. -1.
        -11    1    3    3    0    0  0.60057086334E+02  0.79315725986E+02 -0.48664568377E+03  0.49671104229E+03  0.00000000000E+00 0.  1.
         22    1    1    2    0    0 -0.10831998664E+03 -0.62047475708E+02 -0.63828203297E+02  0.14020395245E+03  0.00000000000E+00 0.  1.
<mgrwt>
<rscale>  0 0.39437762E+03</rscale>
<asrwt>0</asrwt>
<pdfrwt beam="1">  1        2 0.13063517E+00 0.39437762E+03</pdfrwt>
<pdfrwt beam="2">  1       -2 0.70449469E-02 0.39437762E+03</pdfrwt>
<totfact> 0.38065460E+03</totfact>
</mgrwt>
</event>
<event>
 6    1  0.1001928E-005  0.1076994E+04  0.7818608E-02  0.9227910E-01
          2   -1    0    0  501    0  0.00000000000E+00  0.00000000000E+00  0.97045722808E+03  0.97045722808E+03  0.00000000000E+00 0. -1.
         -2   -1    0    0    0  501 -0.00000000000E+00 -0.00000000000E+00 -0.29880671827E+03  0.29880671827E+03  0.00000000000E+00 0.  1.
         23    2    1    2    0    0  0.11626609913E+03 -0.50468932400E+03  0.49483616461E+03  0.72200492885E+03  0.90549256874E+02 0.  0.
         13    1    3    3    0    0 -0.31793055061E+01 -0.14959637392E+03  0.11728161662E+03  0.19011617677E+03  0.00000000000E+00 0. -1.
        -13    1    3    3    0    0  0.11944540464E+03 -0.35509295008E+03  0.37755454799E+03  0.53188875208E+03  0.00000000000E+00 0.  1.
         22    1    1    2    0    0 -0.11626609913E+03  0.50468932400E+03  0.17681434520E+03  0.54725901750E+03  0.00000000000E+00 0.  1.
<mgrwt>
<rscale>  0 0.10769942E+04</rscale>
<asrwt>0</asrwt>
<pdfrwt beam="1">  1        2 0.14930111E+00 0.10769942E+04</pdfrwt>
<pdfrwt beam="2">  1       -2 0.45970265E-01 0.10769942E+04</pdfrwt>
<totfact> 0.11738053E+02</totfact>
</mgrwt>
</event>
<event>
 6    1  0.1001928E-005  0.2288998E+04  0.7818608E-02  0.8482272E-01
          1   -1    0    0  501    0  0.00000000000E+00  0.00000000000E+00  0.14702584670E+04  0.14702584670E+04  0.00000000000E+00 0. -1.
         -1   -1    0    0    0  501 -0.00000000000E+00 -0.00000000000E+00 -0.89091685004E+03  0.89091685004E+03  0.00000000000E+00 0.  1.
         23    2    1    2    0    0  0.49060416375E+03 -0.35064827170E+03  0.12907243722E+04  0.14285917656E+04  0.10610547512E+03 0.  0.
         11    1    3    3    0    0  0.10826045632E+03 -0.49774273912E+02  0.17858746822E+03  0.21468881795E+03  0.00000000000E+00 0.  1.
        -11    1    3    3    0    0  0.38234370743E+03 -0.30087399779E+03  0.11121369040E+04  0.12139029477E+04  0.00000000000E+00 0. -1.
         22    1    1    2    0    0 -0.49060416375E+03  0.35064827170E+03 -0.71138275525E+03  0.93258355143E+03  0.00000000000E+00 0.  1.
<mgrwt>
<rscale>  0 0.22889981E+04</rscale>
<asrwt>0</asrwt>
<pdfrwt beam="1">  1        1 0.22619361E+00 0.22889981E+04</pdfrwt>
<pdfrwt beam="2">  1       -1 0.13706413E+00 0.22889981E+04</pdfrwt>
<totfact> 0.27496741E+00</totfact>
</mgrwt>
</event>
<event>
 6    1  0.1001928E-005  0.1033254E+04  0.7818608E-02  0.9272806E-01
          1   -1    0    0  501    0  0.00000000000E+00  0.00000000000E+00  0.16199148203E+04  0.16199148203E+04  0.00000000000E+00 0. -1.
         -1   -1    0    0    0  501 -0.00000000000E+00 -0.00000000000E+00 -0.16476374897E+03  0.16476374897E+03  0.00000000000E+00 0.  1.
         23    2    1    2    0    0  0.20756403033E+03 -0.34475564745E+03  0.12812728225E+04  0.13463032408E+04  0.94515011768E+02 0.  0.
         11    1    3    3    0    0  0.28917969870E+02 -0.49355687090E+01  0.83126797779E+02  0.88151422728E+02  0.00000000000E+00 0.  1.
        -11    1    3    3    0    0  0.17864606046E+03 -0.33982007874E+03  0.11981460247E+04  0.12581518181E+04  0.00000000000E+00 0. -1.
         22    1    1    2    0    0 -0.20756403033E+03  0.34475564745E+03  0.17387824877E+03  0.43837532838E+03  0.00000000000E+00 0.  1.
<mgrwt>
<rscale>  0 0.10332536E+04</rscale>
<asrwt>0</asrwt>
<pdfrwt beam="1">  1        1 0.24921765E+00 0.10332536E+04</pdfrwt>
<pdfrwt beam="2">  1       -1 0.25348270E-01 0.10332536E+04</pdfrwt>
<totfact> 0.74047043E+01</totfact>
</mgrwt>
</event>
<event>
 6    1  0.1001928E-005  0.1825612E+04  0.7818608E-02  0.8692797E-01
          1   -1    0    0  501    0  0.00000000000E+00  0.00000000000E+00  0.23909320845E+04  0.23909320845E+04  0.00000000000E+00 0. -1.
         -1   -1    0    0    0  501 -0.00000000000E+00 -0.00000000000E+00 -0.34848935190E+03  0.34848935190E+03  0.00000000000E+00 0.  1.
         23    2    1    2    0    0  0.11022836195E+03 -0.48068468319E+03  0.21726305867E+04  0.22293656220E+04  0.80866272314E+02 0.  0.
         13    1    3    3    0    0  0.82959858631E+02 -0.24269598044E+03  0.98721456716E+03  0.10199883718E+04  0.00000000000E+00 0.  1.
        -13    1    3    3    0    0  0.27268503320E+02 -0.23798870275E+03  0.11854160195E+04  0.12093772502E+04  0.00000000000E+00 0. -1.
         22    1    1    2    0    0 -0.11022836195E+03  0.48068468319E+03 -0.13018785408E+03  0.51005581438E+03  0.00000000000E+00 0.  1.
<mgrwt>
<rscale>  0 0.18256115E+04</rscale>
<asrwt>0</asrwt>
<pdfrwt beam="1">  1        1 0.36783569E+00 0.18256115E+04</pdfrwt>
<pdfrwt beam="2">  1       -1 0.53613748E-01 0.18256115E+04</pdfrwt>
<totfact> 0.53311696E+00</totfact>
</mgrwt>
</event>
<event>
 6    1  0.1001928E-005  0.3200291E+04  0.7818608E-02  0.8188740E-01
          2   -1    0    0  501    0  0.00000000000E+00  0.00000000000E+00  0.19846558447E+04  0.19846558447E+04  0.00000000000E+00 0. -1.
         -2   -1    0    0    0  501 -0.00000000000E+00 -0.00000000000E+00 -0.12901307951E+04  0.12901307951E+04  0.00000000000E+00 0.  1.
         23    2    1    2    0    0 -0.67164734438E+03 -0.76212823988E+03  0.16109359435E+04  0.19066643735E+04  0.91130729242E+02 0.  0.
         11    1    3    3    0    0 -0.63277736944E+03 -0.74443086380E+03  0.15505894167E+04  0.18327334911E+04  0.00000000000E+00 0. -1.
        -11    1    3    3    0    0 -0.38869974937E+02 -0.17697376086E+02  0.60346526830E+02  0.73930882400E+02  0.00000000000E+00 0.  1.
         22    1    1    2    0    0  0.67164734438E+03  0.76212823988E+03 -0.91641089386E+03  0.13681222663E+04  0.00000000000E+00 0.  1.
<mgrwt>
<rscale>  0 0.32002910E+04</rscale>
<asrwt>0</asrwt>
<pdfrwt beam="1">  1        2 0.30533167E+00 0.32002910E+04</pdfrwt>
<pdfrwt beam="2">  1       -2 0.19848166E+00 0.32002910E+04</pdfrwt>
<totfact> 0.78092632E-01</totfact>
</mgrwt>
</event>
<event>
 6    1  0.1001928E-005  0.1623459E+04  0.7818608E-02  0.8806265E-01
         -2   -1    0    0    0  501 -0.00000000000E+00  0.00000000000E+00  0.30868784299E+03  0.30868784299E+03  0.00000000000E+00 0.  1.
          2   -1    0    0  501    0  0.00000000000E+00 -0.00000000000E+00 -0.21345338227E+04  0.21345338227E+04  0.00000000000E+00 0. -1.
         23    2    1    2    0    0 -0.22282800800E+03 -0.17203265545E+02 -0.20861469048E+04  0.21001402685E+04  0.92908372657E+02 0.  0.
         13    1    3    3    0    0 -0.14864170385E+03 -0.15689564970E+02 -0.17241580999E+04  0.17306246480E+04  0.00000000000E+00 0.  1.
        -13    1    3    3    0    0 -0.74186304153E+02 -0.15137005757E+01 -0.36198880485E+03  0.36951562057E+03  0.00000000000E+00 0. -1.
         22    1    1    2    0    0  0.22282800800E+03  0.17203265545E+02  0.26030092506E+03  0.34308139717E+03  0.00000000000E+00 0.  1.
<mgrwt>
<rscale>  0 0.16234588E+04</rscale>
<asrwt>0</asrwt>
<pdfrwt beam="1">  1        2 0.32838982E+00 0.16234588E+04</pdfrwt>
<pdfrwt beam="2">  1       -2 0.47490437E-01 0.16234588E+04</pdfrwt>
<totfact> 0.22616138E+01</totfact>
</mgrwt>
</event>
<event>
 6    1  0.1001928E-005  0.2502789E+04  0.7818608E-02  0.8401992E-01
         -2   -1    0    0    0  501 -0.00000000000E+00  0.00000000000E+00  0.77472402148E+03  0.77472402148E+03  0.00000000000E+00 0.  1.
          2   -1    0    0  501    0  0.00000000000E+00 -0.00000000000E+00 -0.20213502815E+04  0.20213502815E+04  0.00000000000E+00 0. -1.
         23    2    1    2    0    0  0.22261838577E+03 -0.46653757159E+03 -0.18953918551E+04  0.19665485054E+04  0.87100449816E+02 0.  0.
         13    1    3    3    0    0  0.65755218829E+02 -0.21129339070E+03 -0.69753819665E+03  0.73179791032E+03  0.00000000000E+00 0.  1.
        -13    1    3    3    0    0  0.15686316695E+03 -0.25524418089E+03 -0.11978536584E+04  0.12347505951E+04  0.00000000000E+00 0. -1.
         22    1    1    2    0    0 -0.22261838577E+03  0.46653757159E+03  0.64876559511E+03  0.82952579754E+03  0.00000000000E+00 0.  1.
<mgrwt>
<rscale>  0 0.25027893E+04</rscale>
<asrwt>0</asrwt>
<pdfrwt beam="1">  1        2 0.31097696E+00 0.25027893E+04</pdfrwt>
<pdfrwt beam="2">  1       -2 0.11918831E+00 0.25027893E+04</pdfrwt>
<totfact> 0.31303520E+00</totfact>
</mgrwt>
</event>
<event>
 6    1  0.1001928E-005  0.1656329E+04  0.7818608E-02  0.8786671E-01
         -2   -1    0    0    0  501 -0.00000000000E+00  0.00000000000E+00  0.51585768680E+03  0.51585768680E+03  0.00000000000E+00 0.  1.
          2   -1    0    0  501    0  0.00000000000E+00 -0.00000000000E+00 -0.13295455566E+04  0.13295455566E+04  0.00000000000E+00 0. -1.
         23    2    1    2    0    0  0.18670232747E+03 -0.66395552965E+03 -0.91421115183E+03  0.11484099618E+04  0.85841166004E+02 0.  0.
         11    1    3    3    0    0  0.13085196399E+03 -0.34304874500E+03 -0.52920662971E+03  0.64409963115E+03  0.00000000000E+00 0. -1.
        -11    1    3    3    0    0  0.55850363484E+02 -0.32090678465E+03 -0.38500452212E+03  0.50431033064E+03  0.00000000000E+00 0.  1.
         22    1    1    2    0    0 -0.18670232747E+03  0.66395552965E+03  0.10052328199E+03  0.69699328164E+03  0.00000000000E+00 0.  1.
<mgrwt>
<rscale>  0 0.16563288E+04</rscale>
<asrwt>0</asrwt>
<pdfrwt beam="1">  1        2 0.20454547E+00 0.16563288E+04</pdfrwt>
<pdfrwt beam="2">  1       -2 0.79362722E-01 0.16563288E+04</pdfrwt>
<totfact> 0.21352955E+01</totfact>
</mgrwt>
</event>
<event>
 6    1  0.1001928E-005  0.1014401E+04  0.7818608E-02  0.9292889E-01
         -1   -1    0    0    0  501 -0.00000000000E+00  0.00000000000E+00  0.10414273336E+04  0.10414273336E+04  0.00000000000E+00 0.  1.
          1   -1    0    0  501    0  0.00000000000E+00 -0.00000000000E+00 -0.24701906166E+03  0.24701906166E+03  0.00000000000E+00 0. -1.
         23    2    1    2    0    0 -0.51302125550E+01 -0.10278788422E+03  0.10259724517E+04  0.10350422960E+04  0.90007858558E+02 0.  0.
         11    1    3    3    0    0 -0.28850689138E+01  0.43618440988E+01  0.39486013671E+03  0.39489476683E+03  0.00000000000E+00 0. -1.
        -11    1    3    3    0    0 -0.22451436412E+01 -0.10714972832E+03  0.63111231498E+03  0.64014752914E+03  0.00000000000E+00 0.  1.
         22    1    1    2    0    0  0.51302125550E+01  0.10278788422E+03 -0.23156417972E+03  0.25340409932E+03  0.00000000000E+00 0. -1.
<mgrwt>
<rscale>  0 0.10144011E+04</rscale>
<asrwt>0</asrwt>
<pdfrwt beam="1">  1        1 0.38002933E-01 0.10144011E+04</pdfrwt>
<pdfrwt beam="2">  1       -1 0.16021959E+00 0.10144011E+04</pdfrwt>
<totfact> 0.32956860E+01</totfact>
</mgrwt>
</event>
<event>
 6    1  0.1001928E-005  0.4006522E+04  0.7818608E-02  0.8003232E-01
         -2   -1    0    0    0  501 -0.00000000000E+00  0.00000000000E+00  0.89307945893E+03  0.89307945893E+03  0.00000000000E+00 0.  1.
          2   -1    0    0  501    0  0.00000000000E+00 -0.00000000000E+00 -0.44935031848E+04  0.44935031848E+04  0.00000000000E+00 0. -1.
         23    2    1    2    0    0  0.11680604971E+04  0.66728266888E+03  0.19285894717E+03  0.13618311082E+04  0.88078992183E+02 0.  0.
         13    1    3    3    0    0  0.97364466180E+03  0.53421883065E+03  0.13114318550E+03  0.11182898647E+04  0.00000000000E+00 0. -1.
        -13    1    3    3    0    0  0.19441583526E+03  0.13306383823E+03  0.61715761664E+02  0.24354124350E+03  0.00000000000E+00 0.  1.
         22    1    1    2    0    0 -0.11680604971E+04 -0.66728266888E+03 -0.37932826730E+04  0.40247515355E+04  0.00000000000E+00 0. -1.
<mgrwt>
<rscale>  0 0.40065224E+04</rscale>
<asrwt>0</asrwt>
<pdfrwt beam="1">  1        2 0.69130818E+00 0.40065224E+04</pdfrwt>
<pdfrwt beam="2">  1       -2 0.13739684E+00 0.40065224E+04</pdfrwt>
<totfact> 0.36868733E-02</totfact>
</mgrwt>
</event>
<event>
 6    1  0.1001928E-005  0.9365168E+03  0.7818608E-02  0.9381051E-01
          1   -1    0    0  501    0  0.00000000000E+00  0.00000000000E+00  0.10940643371E+04  0.10940643371E+04  0.00000000000E+00 0. -1.
         -1   -1    0    0    0  501 -0.00000000000E+00 -0.00000000000E+00 -0.20041412166E+03  0.20041412166E+03  0.00000000000E+00 0.  1.
         23    2    1    2    0    0 -0.46142068617E+03 -0.43643771434E+02  0.42615592881E+03  0.63617401823E+03  0.91075119535E+02 0.  0.
         11    1    3    3    0    0 -0.35499430885E+03 -0.65090406941E+02  0.35579611123E+03  0.50680232158E+03  0.00000000000E+00 0. -1.
        -11    1    3    3    0    0 -0.10642637732E+03  0.21446635507E+02  0.70359817577E+02  0.12937169665E+03  0.00000000000E+00 0.  1.
         22    1    1    2    0    0  0.46142068617E+03  0.43643771434E+02  0.46749428666E+03  0.65830444057E+03  0.00000000000E+00 0. -1.
<mgrwt>
<rscale>  0 0.93651683E+03</rscale>
<asrwt>0</asrwt>
<pdfrwt beam="1">  1        1 0.16831759E+00 0.93651683E+03</pdfrwt>
<pdfrwt beam="2">  1       -1 0.30832943E-01 0.93651683E+03</pdfrwt>
<totfact> 0.12513873E+02</totfact>
</mgrwt>
</event>
<event>
 6    1  0.1001928E-005  0.3114598E+04  0.7818608E-02  0.8211743E-01
         -1   -1    0    0    0  501 -0.00000000000E+00  0.00000000000E+00  0.12828844356E+04  0.12828844356E+04  0.00000000000E+00 0.  1.
          1   -1    0    0  501    0  0.00000000000E+00 -0.00000000000E+00 -0.18904114837E+04  0.18904114837E+04  0.00000000000E+00 0. -1.
         23    2    1    2    0    0  0.15083844322E+04 -0.32102331338E+03 -0.92493003146E+02  0.15473993572E+04  0.87236759166E+02 0.  0.
         13    1    3    3    0    0  0.64102377117E+03 -0.17725668094E+03 -0.23344616533E+02  0.66548957712E+03  0.00000000000E+00 0. -1.
        -13    1    3    3    0    0  0.86736066102E+03 -0.14376663243E+03 -0.69148386613E+02  0.88190978011E+03  0.00000000000E+00 0.  1.
         22    1    1    2    0    0 -0.15083844322E+04  0.32102331338E+03 -0.51503404494E+03  0.16258965620E+04  0.00000000000E+00 0. -1.
<mgrwt>
<rscale>  0 0.31145975E+04</rscale>
<asrwt>0</asrwt>
<pdfrwt beam="1">  1        1 0.29083254E+00 0.31145975E+04</pdfrwt>
<pdfrwt beam="2">  1       -1 0.19736684E+00 0.31145975E+04</pdfrwt>
<totfact> 0.46784965E-01</totfact>
</mgrwt>
</event>
<event>
 6    1  0.1001928E-005  0.3323382E+04  0.7818608E-02  0.8156971E-01
         -1   -1    0    0    0  501 -0.00000000000E+00  0.00000000000E+00  0.13238817104E+04  0.13238817104E+04  0.00000000000E+00 0.  1.
          1   -1    0    0  501    0  0.00000000000E+00 -0.00000000000E+00 -0.20856975469E+04  0.20856975469E+04  0.00000000000E+00 0. -1.
         23    2    1    2    0    0 -0.99012563653E+03  0.47950802748E+03  0.89476646879E+03  0.14209763158E+04  0.91049063446E+02 0.  0.
         13    1    3    3    0    0 -0.67092992536E+03  0.28045497465E+03  0.56882416992E+03  0.92323501549E+03  0.00000000000E+00 0.  1.
        -13    1    3    3    0    0 -0.31919571118E+03  0.19905305283E+03  0.32594229887E+03  0.49774130034E+03  0.00000000000E+00 0. -1.
         22    1    1    2    0    0  0.99012563653E+03 -0.47950802748E+03 -0.16565823053E+04  0.19886029414E+04  0.00000000000E+00 0. -1.
<mgrwt>
<rscale>  0 0.33233819E+04</rscale>
<asrwt>0</asrwt>
<pdfrwt beam="1">  1        1 0.32087655E+00 0.33233819E+04</pdfrwt>
<pdfrwt beam="2">  1       -1 0.20367411E+00 0.33233819E+04</pdfrwt>
<totfact> 0.30641490E-01</totfact>
</mgrwt>
</event>
<event>
 6    1  0.1001928E-005  0.4077143E+03  0.7818608E-02  0.1041141E+00
          1   -1    0    0  501    0  0.00000000000E+00  0.00000000000E+00  0.61337717644E+03  0.61337717644E+03  0.00000000000E+00 0. -1.
         -1   -1    0    0    0  501 -0.00000000000E+00 -0.00000000000E+00 -0.67752342063E+02  0.67752342063E+02  0.00000000000E+00 0.  1.
         23    2    1    2    0    0 -0.12870990507E+03  0.10465582677E+03  0.45312624547E+03  0.49119513328E+03  0.91816027399E+02 0.  0.
         13    1    3    3    0    0 -0.14089291986E+03  0.85525318842E+02  0.41866845748E+03  0.44994296563E+03  0.00000000000E+00 0.  1.
        -13    1    3    3    0    0  0.12183014793E+02  0.19130507923E+02  0.34457787982E+02  0.41252167645E+02  0.00000000000E+00 0. -1.
         22    1    1    2    0    0  0.12870990507E+03 -0.10465582677E+03  0.92498588908E+02  0.18993438522E+03  0.00000000000E+00 0.  1.
<mgrwt>
<rscale>  0 0.40771431E+03</rscale>
<asrwt>0</asrwt>
<pdfrwt beam="1">  1        1 0.94365716E-01 0.40771431E+03</pdfrwt>
<pdfrwt beam="2">  1       -1 0.10423438E-01 0.40771431E+03</pdfrwt>
<totfact> 0.19550612E+03</totfact>
</mgrwt>
</event>
<event>
 6    1  0.1001928E-005  0.1882468E+04  0.7818608E-02  0.8663633E-01
         -2   -1    0    0    0  501 -0.00000000000E+00  0.00000000000E+00  0.16726544215E+04  0.16726544215E+04  0.00000000000E+00 0.  1.
          2   -1    0    0  501    0  0.00000000000E+00 -0.00000000000E+00 -0.52965010939E+03  0.52965010939E+03  0.00000000000E+00 0. -1.
         23    2    1    2    0    0  0.33734276419E+03 -0.37262009324E+03  0.15010925964E+04  0.15851553644E+04  0.82417666366E+02 0.  0.
         11    1    3    3    0    0  0.32296575177E+03 -0.33626223402E+03  0.13208937137E+04  0.14007638522E+04  0.00000000000E+00 0. -1.
        -11    1    3    3    0    0  0.14377012418E+02 -0.36357859229E+02  0.18019888272E+03  0.18439151213E+03  0.00000000000E+00 0.  1.
         22    1    1    2    0    0 -0.33734276419E+03  0.37262009324E+03 -0.35808828428E+03  0.61714916655E+03  0.00000000000E+00 0. -1.
<mgrwt>
<rscale>  0 0.18824682E+04</rscale>
<asrwt>0</asrwt>
<pdfrwt beam="1">  1        2 0.81484633E-01 0.18824682E+04</pdfrwt>
<pdfrwt beam="2">  1       -2 0.25733145E+00 0.18824682E+04</pdfrwt>
<totfact> 0.31276596E+00</totfact>
</mgrwt>
</event>
<event>
 6    1  0.1001928E-005  0.2810372E+04  0.7818608E-02  0.8300056E-01
          1   -1    0    0  501    0  0.00000000000E+00  0.00000000000E+00  0.15993905533E+04  0.15993905533E+04  0.00000000000E+00 0. -1.
         -1   -1    0    0    0  501 -0.00000000000E+00 -0.00000000000E+00 -0.12345623235E+04  0.12345623235E+04  0.00000000000E+00 0.  1.
         23    2    1    2    0    0 -0.11215177476E+04 -0.78098860588E+03  0.50737922405E+03  0.14598837204E+04  0.77984225673E+02 0.  0.
         11    1    3    3    0    0 -0.86199029714E+03 -0.58278367698E+03  0.41783849999E+03  0.11212729813E+04  0.00000000000E+00 0. -1.
        -11    1    3    3    0    0 -0.25952745042E+03 -0.19820492891E+03  0.89540724062E+02  0.33861073910E+03  0.00000000000E+00 0.  1.
         22    1    1    2    0    0  0.11215177476E+04  0.78098860588E+03 -0.14255099420E+03  0.13740691564E+04  0.00000000000E+00 0.  1.
<mgrwt>
<rscale>  0 0.28103717E+04</rscale>
<asrwt>0</asrwt>
<pdfrwt beam="1">  1        1 0.24606009E+00 0.28103717E+04</pdfrwt>
<pdfrwt beam="2">  1       -1 0.18993266E+00 0.28103717E+04</pdfrwt>
<totfact> 0.85464958E-01</totfact>
</mgrwt>
</event>
<event>
 6    1  0.1001928E-005  0.2345728E+04  0.7818608E-02  0.8460106E-01
          3   -1    0    0  501    0  0.00000000000E+00  0.00000000000E+00  0.18407181057E+04  0.18407181057E+04  0.00000000000E+00 0. -1.
         -3   -1    0    0    0  501 -0.00000000000E+00 -0.00000000000E+00 -0.74732232897E+03  0.74732232897E+03  0.00000000000E+00 0.  1.
         23    2    1    2    0    0 -0.80099414200E+03  0.47116221543E+03  0.13336094253E+04  0.16282029246E+04  0.94579150484E+02 0.  0.
         13    1    3    3    0    0 -0.37415440844E+03  0.22815291705E+03  0.71060457934E+03  0.83486773988E+03  0.00000000000E+00 0. -1.
        -13    1    3    3    0    0 -0.42683973357E+03  0.24300929838E+03  0.62300484593E+03  0.79333518471E+03  0.00000000000E+00 0.  1.
         22    1    1    2    0    0  0.80099414200E+03 -0.47116221543E+03 -0.24021364855E+03  0.95983751006E+03  0.00000000000E+00 0. -1.
<mgrwt>
<rscale>  0 0.23457278E+04</rscale>
<asrwt>0</asrwt>
<pdfrwt beam="1">  1        3 0.28318740E+00 0.23457278E+04</pdfrwt>
<pdfrwt beam="2">  1       -3 0.11497267E+00 0.23457278E+04</pdfrwt>
<totfact> 0.70838646E-02</totfact>
</mgrwt>
</event>
<event>
 6    1  0.1001928E-005  0.1680027E+04  0.7818608E-02  0.8772838E-01
         -2   -1    0    0    0  501 -0.00000000000E+00  0.00000000000E+00  0.64678293639E+03  0.64678293639E+03  0.00000000000E+00 0.  1.
          2   -1    0    0  501    0  0.00000000000E+00 -0.00000000000E+00 -0.10909735689E+04  0.10909735689E+04  0.00000000000E+00 0. -1.
         23    2    1    2    0    0 -0.72520350877E+02 -0.74009911058E+03  0.17581142284E+03  0.76955794951E+03  0.91125663118E+02 0.  0.
         11    1    3    3    0    0 -0.63621885522E+02 -0.22651041982E+03  0.64744790418E+02  0.24402172544E+03  0.00000000000E+00 0.  1.
        -11    1    3    3    0    0 -0.88984653555E+01 -0.51358869077E+03  0.11106663242E+03  0.52553622407E+03  0.00000000000E+00 0. -1.
         22    1    1    2    0    0  0.72520350877E+02  0.74009911058E+03 -0.62000205537E+03  0.96819855580E+03  0.00000000000E+00 0.  1.
<mgrwt>
<rscale>  0 0.16800275E+04</rscale>
<asrwt>0</asrwt>
<pdfrwt beam="1">  1        2 0.16784209E+00 0.16800275E+04</pdfrwt>
<pdfrwt beam="2">  1       -2 0.99505068E-01 0.16800275E+04</pdfrwt>
<totfact> 0.17581092E+01</totfact>
</mgrwt>
</event>
<event>
 6    1  0.1001928E-005  0.5310524E+04  0.7818608E-02  0.7782313E-01
         -2   -1    0    0    0  501 -0.00000000000E+00  0.00000000000E+00  0.19239142290E+04  0.19239142290E+04  0.00000000000E+00 0.  1.
          2   -1    0    0  501    0  0.00000000000E+00 -0.00000000000E+00 -0.36646214094E+04  0.36646214094E+04  0.00000000000E+00 0. -1.
         23    2    1    2    0    0 -0.97220548585E+03  0.17224085879E+04 -0.27336472755E+04  0.33754371583E+04  0.94200490522E+02 0.  0.
         11    1    3    3    0    0 -0.12668130626E+03  0.22534607339E+03 -0.30538712630E+03  0.40011286290E+03  0.00000000000E+00 0.  1.
        -11    1    3    3    0    0 -0.84552417959E+03  0.14970625145E+04 -0.24282601492E+04  0.29753242954E+04  0.00000000000E+00 0. -1.
         22    1    1    2    0    0  0.97220548585E+03 -0.17224085879E+04  0.99294009511E+03  0.22130984802E+04  0.00000000000E+00 0.  1.
<mgrwt>
<rscale>  0 0.53105244E+04</rscale>
<asrwt>0</asrwt>
<pdfrwt beam="1">  1        2 0.56378791E+00 0.53105244E+04</pdfrwt>
<pdfrwt beam="2">  1       -2 0.29598681E+00 0.53105244E+04</pdfrwt>
<totfact> 0.14764640E-02</totfact>
</mgrwt>
</event>
<event>
 6    1  0.1001928E-005  0.1480051E+04  0.7818608E-02  0.8897828E-01
         -2   -1    0    0    0  501 -0.00000000000E+00  0.00000000000E+00  0.36127316049E+03  0.36127316049E+03  0.00000000000E+00 0.  1.
          2   -1    0    0  501    0  0.00000000000E+00 -0.00000000000E+00 -0.15158550491E+04  0.15158550491E+04  0.00000000000E+00 0. -1.
         23    2    1    2    0    0 -0.44349581995E+03  0.16809074534E+03  0.13626668907E+03  0.50190710319E+03  0.91646542223E+02 0.  0.
         11    1    3    3    0    0 -0.24551382658E+03  0.10323368025E+03  0.29952043536E+02  0.26801372482E+03  0.00000000000E+00 0.  1.
        -11    1    3    3    0    0 -0.19798199337E+03  0.64857065094E+02  0.10631464554E+03  0.23389337837E+03  0.00000000000E+00 0. -1.
         22    1    1    2    0    0  0.44349581995E+03 -0.16809074534E+03 -0.12908485777E+04  0.13752211064E+04  0.00000000000E+00 0. -1.
<mgrwt>
<rscale>  0 0.14800510E+04</rscale>
<asrwt>0</asrwt>
<pdfrwt beam="1">  1        2 0.23320847E+00 0.14800510E+04</pdfrwt>
<pdfrwt beam="2">  1       -2 0.55580485E-01 0.14800510E+04</pdfrwt>
<totfact> 0.36592426E+01</totfact>
</mgrwt>
</event>
<event>
 6    1  0.1001928E-005  0.3120875E+04  0.7818608E-02  0.8210032E-01
         -2   -1    0    0    0  501 -0.00000000000E+00  0.00000000000E+00  0.86675271971E+03  0.86675271971E+03  0.00000000000E+00 0. -1.
          2   -1    0    0  501    0  0.00000000000E+00 -0.00000000000E+00 -0.28092957002E+04  0.28092957002E+04  0.00000000000E+00 0.  1.
         23    2    1    2    0    0 -0.91150554064E+03 -0.80407454726E+03  0.17800683554E+03  0.12318492156E+04  0.91585087515E+02 0.  0.
         13    1    3    3    0    0 -0.18189040454E+03 -0.12823275942E+03  0.58874083024E+02  0.23020407795E+03  0.00000000000E+00 0.  1.
        -13    1    3    3    0    0 -0.72961513610E+03 -0.67584178784E+03  0.11913275251E+03  0.10016451376E+04  0.00000000000E+00 0. -1.
         22    1    1    2    0    0  0.91150554064E+03  0.80407454726E+03 -0.21205498160E+04  0.24441992043E+04  0.00000000000E+00 0.  1.
<mgrwt>
<rscale>  0 0.31208747E+04</rscale>
<asrwt>0</asrwt>
<pdfrwt beam="1">  1        2 0.43219934E+00 0.31208747E+04</pdfrwt>
<pdfrwt beam="2">  1       -2 0.13334657E+00 0.31208747E+04</pdfrwt>
<totfact> 0.78726764E-01</totfact>
</mgrwt>
</event>
<event>
 6    1  0.1001928E-005  0.1006843E+04  0.7818608E-02  0.9301071E-01
         -1   -1    0    0    0  501 -0.00000000000E+00  0.00000000000E+00  0.24169228850E+03  0.24169228850E+03  0.00000000000E+00 0.  1.
          1   -1    0    0  501    0  0.00000000000E+00 -0.00000000000E+00 -0.10485775652E+04  0.10485775652E+04  0.00000000000E+00 0. -1.
         23    2    1    2    0    0  0.10659174893E+03  0.44358000399E+03 -0.14358399137E+03  0.48522723620E+03  0.81878491034E+02 0.  0.
         13    1    3    3    0    0  0.39245164647E+02  0.32276189419E+03 -0.97922294116E+02  0.33956471986E+03  0.00000000000E+00 0. -1.
        -13    1    3    3    0    0  0.67346584285E+02  0.12081810980E+03 -0.45661697259E+02  0.14566251634E+03  0.00000000000E+00 0.  1.
         22    1    1    2    0    0 -0.10659174893E+03 -0.44358000399E+03 -0.66330128536E+03  0.80504261753E+03  0.00000000000E+00 0. -1.
<mgrwt>
<rscale>  0 0.10068428E+04</rscale>
<asrwt>0</asrwt>
<pdfrwt beam="1">  1        1 0.16131963E+00 0.10068428E+04</pdfrwt>
<pdfrwt beam="2">  1       -1 0.37183428E-01 0.10068428E+04</pdfrwt>
<totfact> 0.96642414E+01</totfact>
</mgrwt>
</event>
<event>
 6    1  0.1001928E-005  0.7404944E+03  0.7818608E-02  0.9650382E-01
          1   -1    0    0  501    0  0.00000000000E+00  0.00000000000E+00  0.43258144613E+03  0.43258144613E+03  0.00000000000E+00 0. -1.
         -1   -1    0    0    0  501 -0.00000000000E+00 -0.00000000000E+00 -0.31689519506E+03  0.31689519506E+03  0.00000000000E+00 0.  1.
         23    2    1    2    0    0 -0.99650092992E+02  0.34904486659E+03  0.94365024586E+02  0.38586000981E+03  0.90668237976E+02 0.  0.
         11    1    3    3    0    0 -0.14092084700E+02  0.21151237389E+03  0.59556601622E+02  0.22018869171E+03  0.00000000000E+00 0. -1.
        -11    1    3    3    0    0 -0.85558008292E+02  0.13753249269E+03  0.34808422964E+02  0.16567131809E+03  0.00000000000E+00 0.  1.
         22    1    1    2    0    0  0.99650092992E+02 -0.34904486659E+03  0.21321226482E+02  0.36361663139E+03  0.00000000000E+00 0. -1.
<mgrwt>
<rscale>  0 0.74049438E+03</rscale>
<asrwt>0</asrwt>
<pdfrwt beam="1">  1        1 0.66550992E-01 0.74049438E+03</pdfrwt>
<pdfrwt beam="2">  1       -1 0.48753107E-01 0.74049438E+03</pdfrwt>
<totfact> 0.23042324E+02</totfact>
</mgrwt>
</event>
<event>
 6    1  0.1001928E-005  0.3513181E+04  0.7818608E-02  0.8110673E-01
          2   -1    0    0  501    0  0.00000000000E+00  0.00000000000E+00  0.25933910164E+04  0.25933910164E+04  0.00000000000E+00 0. -1.
         -2   -1    0    0    0  501 -0.00000000000E+00 -0.00000000000E+00 -0.11897975844E+04  0.11897975844E+04  0.00000000000E+00 0.  1.
         23    2    1    2    0    0  0.11104090887E+04 -0.56065760239E+02  0.21650710373E+04  0.24355982116E+04  0.91947474361E+02 0.  0.
         11    1    3    3    0    0  0.86343125130E+03 -0.54742223023E+01  0.16647783977E+04  0.18753747909E+04  0.00000000000E+00 0.  1.
        -11    1    3    3    0    0  0.24697783736E+03 -0.50591537937E+02  0.50029263968E+03  0.56022342077E+03  0.00000000000E+00 0. -1.
         22    1    1    2    0    0 -0.11104090887E+04  0.56065760239E+02 -0.76147760531E+03  0.13475903892E+04  0.00000000000E+00 0.  1.
<mgrwt>
<rscale>  0 0.35131811E+04</rscale>
<asrwt>0</asrwt>
<pdfrwt beam="1">  1        2 0.39898323E+00 0.35131811E+04</pdfrwt>
<pdfrwt beam="2">  1       -2 0.18304578E+00 0.35131811E+04</pdfrwt>
<totfact> 0.43539791E-01</totfact>
</mgrwt>
</event>
<event>
 6    1  0.1001928E-005  0.2486586E+04  0.7818608E-02  0.8407780E-01
         -2   -1    0    0    0  501 -0.00000000000E+00  0.00000000000E+00  0.92259513205E+03  0.92259513205E+03  0.00000000000E+00 0.  1.
          2   -1    0    0  501    0  0.00000000000E+00 -0.00000000000E+00 -0.16754673229E+04  0.16754673229E+04  0.00000000000E+00 0. -1.
         23    2    1    2    0    0  0.12306260634E+04  0.14167960425E+03 -0.28824591232E+03  0.12750389492E+04  0.90138769261E+02 0.  0.
         11    1    3    3    0    0  0.88611724937E+03  0.13496286175E+03 -0.23233512857E+03  0.92595807985E+03  0.00000000000E+00 0. -1.
        -11    1    3    3    0    0  0.34450881404E+03  0.67167425057E+01 -0.55910783751E+02  0.34908086932E+03  0.00000000000E+00 0.  1.
         22    1    1    2    0    0 -0.12306260634E+04 -0.14167960425E+03 -0.46462627856E+03  0.13230235058E+04  0.00000000000E+00 0. -1.
<mgrwt>
<rscale>  0 0.24865864E+04</rscale>
<asrwt>0</asrwt>
<pdfrwt beam="1">  1        2 0.25776420E+00 0.24865864E+04</pdfrwt>
<pdfrwt beam="2">  1       -2 0.14193771E+00 0.24865864E+04</pdfrwt>
<totfact> 0.31317010E+00</totfact>
</mgrwt>
</event>
<event>
 6    1  0.1001928E-005  0.9158155E+03  0.7818608E-02  0.9406024E-01
          2   -1    0    0  501    0  0.00000000000E+00  0.00000000000E+00  0.38594161677E+04  0.38594161677E+04  0.00000000000E+00 0. -1.
         -2   -1    0    0    0  501 -0.00000000000E+00 -0.00000000000E+00 -0.54329329745E+02  0.54329329745E+02  0.00000000000E+00 0.  1.
         23    2    1    2    0    0 -0.20395025101E+03  0.39010526634E+03  0.23763725983E+04  0.24187531221E+04  0.97170551348E+02 0.  0.
         13    1    3    3    0    0 -0.12000029765E+03  0.15632106609E+03  0.12387015788E+04  0.12542798525E+04  0.00000000000E+00 0.  1.
        -13    1    3    3    0    0 -0.83949953358E+02  0.23378420025E+03  0.11376710195E+04  0.11644732695E+04  0.00000000000E+00 0. -1.
         22    1    1    2    0    0  0.20395025101E+03 -0.39010526634E+03  0.14287142397E+04  0.14949923753E+04  0.00000000000E+00 0.  1.
<mgrwt>
<rscale>  0 0.91581547E+03</rscale>
<asrwt>0</asrwt>
<pdfrwt beam="1">  1        2 0.59375612E+00 0.91581547E+03</pdfrwt>
<pdfrwt beam="2">  1       -2 0.83583615E-02 0.91581547E+03</pdfrwt>
<totfact> 0.43274567E+01</totfact>
</mgrwt>
</event>
<event>
 6    1  0.1001928E-005  0.1381621E+04  0.7818608E-02  0.8967231E-01
         -1   -1    0    0    0  501 -0.00000000000E+00  0.00000000000E+00  0.36928316539E+03  0.36928316539E+03  0.00000000000E+00 0.  1.
          1   -1    0    0  501    0  0.00000000000E+00 -0.00000000000E+00 -0.12922845564E+04  0.12922845564E+04  0.00000000000E+00 0. -1.
         23    2    1    2    0    0 -0.42564181587E+03  0.23471643970E+03 -0.10487582730E+04  0.11594944644E+04  0.90943583008E+02 0.  0.
         13    1    3    3    0    0 -0.20229700359E+03  0.64419064006E+02 -0.49402094557E+03  0.53770864614E+03  0.00000000000E+00 0. -1.
        -13    1    3    3    0    0 -0.22334481229E+03  0.17029737569E+03 -0.55473732743E+03  0.62178581826E+03  0.00000000000E+00 0.  1.
         22    1    1    2    0    0  0.42564181587E+03 -0.23471643970E+03  0.12575688194E+03  0.50207325744E+03  0.00000000000E+00 0.  1.
<mgrwt>
<rscale>  0 0.13816207E+04</rscale>
<asrwt>0</asrwt>
<pdfrwt beam="1">  1        1 0.19881301E+00 0.13816207E+04</pdfrwt>
<pdfrwt beam="2">  1       -1 0.56812793E-01 0.13816207E+04</pdfrwt>
<totfact> 0.28054211E+01</totfact>
</mgrwt>
</event>
<event>
 6    1  0.1001928E-005  0.1596659E+04  0.7818608E-02  0.8822603E-01
          2   -1    0    0  501    0  0.00000000000E+00  0.00000000000E+00  0.19662386320E+04  0.19662386320E+04  0.00000000000E+00 0. -1.
         -2   -1    0    0    0  501 -0.00000000000E+00 -0.00000000000E+00 -0.32413676946E+03  0.32413676946E+03  0.00000000000E+00 0.  1.
         23    2    1    2    0    0  0.49769897782E+03 -0.52526329778E+03  0.34781304144E+03  0.80754386789E+03  0.86875671263E+02 0.  0.
         13    1    3    3    0    0  0.12134814182E+03 -0.18056935535E+03  0.85760704449E+02  0.23384944310E+03  0.00000000000E+00 0.  1.
        -13    1    3    3    0    0  0.37635083600E+03 -0.34469394243E+03  0.26205233699E+03  0.57369442479E+03  0.00000000000E+00 0. -1.
         22    1    1    2    0    0 -0.49769897782E+03  0.52526329778E+03  0.12942888211E+04  0.14828315336E+04  0.00000000000E+00 0.  1.
<mgrwt>
<rscale>  0 0.15966593E+04</rscale>
<asrwt>0</asrwt>
<pdfrwt beam="1">  1        2 0.30249824E+00 0.15966593E+04</pdfrwt>
<pdfrwt beam="2">  1       -2 0.49867197E-01 0.15966593E+04</pdfrwt>
<totfact> 0.25465152E+01</totfact>
</mgrwt>
</event>
<event>
 6    1  0.1001928E-005  0.1347596E+04  0.7818608E-02  0.8992650E-01
         -2   -1    0    0    0  501 -0.00000000000E+00  0.00000000000E+00  0.22851528943E+03  0.22851528943E+03  0.00000000000E+00 0.  1.
          2   -1    0    0  501    0  0.00000000000E+00 -0.00000000000E+00 -0.19867536164E+04  0.19867536164E+04  0.00000000000E+00 0. -1.
         23    2    1    2    0    0  0.50457022846E+02 -0.63745948854E+03 -0.54964150786E+03  0.84793325506E+03  0.89356069716E+02 0.  0.
         11    1    3    3    0    0  0.21600939206E+01 -0.12915730813E+03 -0.67820810731E+02  0.14589701374E+03  0.00000000000E+00 0. -1.
        -11    1    3    3    0    0  0.48296928926E+02 -0.50830218040E+03 -0.48182069712E+03  0.70203624132E+03  0.00000000000E+00 0.  1.
         22    1    1    2    0    0 -0.50457022846E+02  0.63745948854E+03 -0.12085968191E+04  0.13673356508E+04  0.00000000000E+00 0. -1.
<mgrwt>
<rscale>  0 0.13475958E+04</rscale>
<asrwt>0</asrwt>
<pdfrwt beam="1">  1        2 0.30565441E+00 0.13475958E+04</pdfrwt>
<pdfrwt beam="2">  1       -2 0.35156198E-01 0.13475958E+04</pdfrwt>
<totfact> 0.50462006E+01</totfact>
</mgrwt>
</event>
<event>
 6    1  0.1001928E-005  0.6676646E+03  0.7818608E-02  0.9774186E-01
          1   -1    0    0  501    0  0.00000000000E+00  0.00000000000E+00  0.11390689633E+04  0.11390689633E+04  0.00000000000E+00 0. -1.
         -1   -1    0    0    0  501 -0.00000000000E+00 -0.00000000000E+00 -0.97837800533E+02  0.97837800533E+02  0.00000000000E+00 0.  1.
         23    2    1    2    0    0  0.13445508880E+03 -0.12336813452E+03  0.10349229408E+04  0.10543207261E+04  0.85022540757E+02 0.  0.
         13    1    3    3    0    0  0.43138243635E+02 -0.83732545657E+02  0.64739249816E+03  0.65420875409E+03  0.00000000000E+00 0. -1.
        -13    1    3    3    0    0  0.91316845163E+02 -0.39635588859E+02  0.38753044269E+03  0.40011197198E+03  0.00000000000E+00 0.  1.
         22    1    1    2    0    0 -0.13445508880E+03  0.12336813452E+03  0.63082219207E+01  0.18258603775E+03  0.00000000000E+00 0.  1.
<mgrwt>
<rscale>  0 0.66766459E+03</rscale>
<asrwt>0</asrwt>
<pdfrwt beam="1">  1        1 0.17524137E+00 0.66766459E+03</pdfrwt>
<pdfrwt beam="2">  1       -1 0.15051970E-01 0.66766459E+03</pdfrwt>
<totfact> 0.39374843E+02</totfact>
</mgrwt>
</event>
<event>
 6    1  0.1127676E-005  0.3854310E+04  0.7818608E-02  0.8034599E-01
         -1   -1    0    0    0  501 -0.00000000000E+00  0.00000000000E+00  0.15442852844E+04  0.15442852844E+04  0.00000000000E+00 0.  1.
          1   -1    0    0  501    0  0.00000000000E+00 -0.00000000000E+00 -0.24049486365E+04  0.24049486365E+04  0.00000000000E+00 0. -1.
         23    2    1    2    0    0  0.47649730254E+03  0.15959009114E+04 -0.14216810878E+04  0.21917669090E+04  0.93357751205E+02 0.  0.
         11    1    3    3    0    0  0.27509902026E+03  0.10270541181E+04 -0.86305627082E+03  0.13694472458E+04  0.00000000000E+00 0. -1.
        -11    1    3    3    0    0  0.20139828228E+03  0.56884679332E+03 -0.55862481694E+03  0.82231966320E+03  0.00000000000E+00 0.  1.
         22    1    1    2    0    0 -0.47649730254E+03 -0.15959009114E+04  0.56101773569E+03  0.17574670119E+04  0.00000000000E+00 0.  1.
<mgrwt>
<rscale>  0 0.38543102E+04</rscale>
<asrwt>0</asrwt>
<pdfrwt beam="1">  1        1 0.36999210E+00 0.38543102E+04</pdfrwt>
<pdfrwt beam="2">  1       -1 0.23758235E+00 0.38543102E+04</pdfrwt>
<totfact> 0.10500383E-01</totfact>
</mgrwt>
</event>
<event>
 6    1  0.1001928E-005  0.1905291E+04  0.7818608E-02  0.8652227E-01
         -1   -1    0    0    0  501 -0.00000000000E+00  0.00000000000E+00  0.11505089371E+04  0.11505089371E+04  0.00000000000E+00 0.  1.
          1   -1    0    0  501    0  0.00000000000E+00 -0.00000000000E+00 -0.78881059380E+03  0.78881059380E+03  0.00000000000E+00 0. -1.
         23    2    1    2    0    0  0.67565659447E+03 -0.18491528430E+03 -0.47289967512E+03  0.84970521916E+03  0.87517773735E+02 0.  0.
         11    1    3    3    0    0  0.14203569227E+03 -0.37827021121E+01 -0.10591807631E+03  0.17722044353E+03  0.00000000000E+00 0.  1.
        -11    1    3    3    0    0  0.53362090219E+03 -0.18113258219E+03 -0.36698159881E+03  0.67248477563E+03  0.00000000000E+00 0. -1.
         22    1    1    2    0    0 -0.67565659447E+03  0.18491528430E+03  0.83459801847E+03  0.10896143118E+04  0.00000000000E+00 0.  1.
<mgrwt>
<rscale>  0 0.19052912E+04</rscale>
<asrwt>0</asrwt>
<pdfrwt beam="1">  1        1 0.12135548E+00 0.19052912E+04</pdfrwt>
<pdfrwt beam="2">  1       -1 0.17700138E+00 0.19052912E+04</pdfrwt>
<totfact> 0.46259880E+00</totfact>
</mgrwt>
</event>
<event>
 6    1  0.1001928E-005  0.4553783E+04  0.7818608E-02  0.7901288E-01
         -1   -1    0    0    0  501 -0.00000000000E+00  0.00000000000E+00  0.12111638543E+04  0.12111638543E+04  0.00000000000E+00 0.  1.
          1   -1    0    0  501    0  0.00000000000E+00 -0.00000000000E+00 -0.42803752706E+04  0.42803752706E+04  0.00000000000E+00 0. -1.
         23    2    1    2    0    0  0.14711696547E+04 -0.96696009493E+03  0.20469722959E+03  0.17743049650E+04  0.83097382499E+02 0.  0.
         11    1    3    3    0    0  0.10739851094E+04 -0.68295824287E+03  0.17996363027E+03  0.12854037828E+04  0.00000000000E+00 0.  1.
        -11    1    3    3    0    0  0.39718454536E+03 -0.28400185206E+03  0.24733599316E+02  0.48890118223E+03  0.00000000000E+00 0. -1.
         22    1    1    2    0    0 -0.14711696547E+04  0.96696009493E+03 -0.32739086459E+04  0.37172341599E+04  0.00000000000E+00 0. -1.
<mgrwt>
<rscale>  0 0.45537834E+04</rscale>
<asrwt>0</asrwt>
<pdfrwt beam="1">  1        1 0.65851928E+00 0.45537834E+04</pdfrwt>
<pdfrwt beam="2">  1       -1 0.18633290E+00 0.45537834E+04</pdfrwt>
<totfact> 0.74150837E-03</totfact>
</mgrwt>
</event>
<event>
 6    1  0.1001928E-005  0.2342372E+04  0.7818608E-02  0.8461399E-01
          1   -1    0    0  501    0  0.00000000000E+00  0.00000000000E+00  0.22891023302E+04  0.22891023302E+04  0.00000000000E+00 0. -1.
         -1   -1    0    0    0  501 -0.00000000000E+00 -0.00000000000E+00 -0.59922013843E+03  0.59922013843E+03  0.00000000000E+00 0.  1.
         23    2    1    2    0    0  0.64114574001E+03  0.51584178027E+03 -0.17840596388E+03  0.84683741240E+03  0.90245846918E+02 0.  0.
         13    1    3    3    0    0  0.27156052485E+03  0.25709865099E+03 -0.46780105123E+02  0.37687294043E+03  0.00000000000E+00 0. -1.
        -13    1    3    3    0    0  0.36958521516E+03  0.25874312929E+03 -0.13162585876E+03  0.46996447197E+03  0.00000000000E+00 0.  1.
         22    1    1    2    0    0 -0.64114574001E+03 -0.51584178027E+03  0.18682881556E+04  0.20414850562E+04  0.00000000000E+00 0. -1.
<mgrwt>
<rscale>  0 0.23423716E+04</rscale>
<asrwt>0</asrwt>
<pdfrwt beam="1">  1        1 0.35216958E+00 0.23423716E+04</pdfrwt>
<pdfrwt beam="2">  1       -1 0.92187715E-01 0.23423716E+04</pdfrwt>
<totfact> 0.19524646E+00</totfact>
</mgrwt>
</event>
<event>
 6    1  0.1001928E-005  0.1256758E+04  0.7818608E-02  0.9064577E-01
         -1   -1    0    0    0  501 -0.00000000000E+00  0.00000000000E+00  0.66941341590E+03  0.66941341590E+03  0.00000000000E+00 0.  1.
          1   -1    0    0  501    0  0.00000000000E+00 -0.00000000000E+00 -0.58986031187E+03  0.58986031187E+03  0.00000000000E+00 0. -1.
         23    2    1    2    0    0  0.60220476152E+03  0.95300700217E+02 -0.98597614624E+02  0.62408046835E+03  0.89566417300E+02 0.  0.
         13    1    3    3    0    0  0.29821321026E+03  0.53646254699E+02 -0.93885648592E+02  0.31721215996E+03  0.00000000000E+00 0.  1.
        -13    1    3    3    0    0  0.30399155126E+03  0.41654445518E+02 -0.47119660327E+01  0.30686830839E+03  0.00000000000E+00 0. -1.
         22    1    1    2    0    0 -0.60220476152E+03 -0.95300700217E+02  0.17815071866E+03  0.63519325942E+03  0.00000000000E+00 0. -1.
<mgrwt>
<rscale>  0 0.12567584E+04</rscale>
<asrwt>0</asrwt>
<pdfrwt beam="1">  1        1 0.90747741E-01 0.12567584E+04</pdfrwt>
<pdfrwt beam="2">  1       -1 0.10298668E+00 0.12567584E+04</pdfrwt>
<totfact> 0.30829307E+01</totfact>
</mgrwt>
</event>
<event>
 6    1  0.1001928E-005  0.1911971E+04  0.7818608E-02  0.8648920E-01
         -2   -1    0    0    0  501 -0.00000000000E+00  0.00000000000E+00  0.61638384866E+03  0.61638384866E+03  0.00000000000E+00 0.  1.
          2   -1    0    0  501    0  0.00000000000E+00 -0.00000000000E+00 -0.14826936004E+04  0.14826936004E+04  0.00000000000E+00 0. -1.
         23    2    1    2    0    0 -0.10112008380E+02  0.31023426445E+03 -0.14242913847E+04  0.14605705546E+04  0.91174803800E+02 0.  0.
         13    1    3    3    0    0  0.13520565595E+02  0.96518388017E+02 -0.63836060503E+03  0.64575759149E+03  0.00000000000E+00 0.  1.
        -13    1    3    3    0    0 -0.23632573975E+02  0.21371587643E+03 -0.78593077967E+03  0.81481296309E+03  0.00000000000E+00 0. -1.
         22    1    1    2    0    0  0.10112008380E+02 -0.31023426445E+03  0.55798163296E+03  0.63850689446E+03  0.00000000000E+00 0.  1.
<mgrwt>
<rscale>  0 0.19119711E+04</rscale>
<asrwt>0</asrwt>
<pdfrwt beam="1">  1        2 0.22810671E+00 0.19119711E+04</pdfrwt>
<pdfrwt beam="2">  1       -2 0.94828285E-01 0.19119711E+04</pdfrwt>
<totfact> 0.11371046E+01</totfact>
</mgrwt>
</event>
<event>
 6    1  0.1001928E-005  0.3816676E+04  0.7818608E-02  0.8042586E-01
         -2   -1    0    0    0  501 -0.00000000000E+00  0.00000000000E+00  0.11261975992E+04  0.11261975992E+04  0.00000000000E+00 0.  1.
          2   -1    0    0  501    0  0.00000000000E+00 -0.00000000000E+00 -0.32336722650E+04  0.32336722650E+04  0.00000000000E+00 0. -1.
         23    2    1    2    0    0  0.50736665117E+03  0.91306154185E+03 -0.28772701629E+04  0.30623000567E+04  0.88858029692E+02 0.  0.
         11    1    3    3    0    0  0.14706748653E+03  0.21743279600E+03 -0.63499528422E+03  0.68711343849E+03  0.00000000000E+00 0.  1.
        -11    1    3    3    0    0  0.36029916464E+03  0.69562874585E+03 -0.22422748786E+04  0.23751866182E+04  0.00000000000E+00 0. -1.
         22    1    1    2    0    0 -0.50736665117E+03 -0.91306154185E+03  0.76979549704E+03  0.12975698074E+04  0.00000000000E+00 0.  1.
<mgrwt>
<rscale>  0 0.38166760E+04</rscale>
<asrwt>0</asrwt>
<pdfrwt beam="1">  1        2 0.49748803E+00 0.38166760E+04</pdfrwt>
<pdfrwt beam="2">  1       -2 0.17326117E+00 0.38166760E+04</pdfrwt>
<totfact> 0.19922719E-01</totfact>
</mgrwt>
</event>
<event>
 6    1  0.1001928E-005  0.1508243E+04  0.7818608E-02  0.8878990E-01
         -2   -1    0    0    0  501 -0.00000000000E+00  0.00000000000E+00  0.30020099008E+03  0.30020099008E+03  0.00000000000E+00 0.  1.
          2   -1    0    0  501    0  0.00000000000E+00 -0.00000000000E+00 -0.18943946611E+04  0.18943946611E+04  0.00000000000E+00 0. -1.
         23    2    1    2    0    0  0.43531076121E+03  0.87154467033E+02  0.83997248275E+02  0.45867626321E+03  0.78974785640E+02 0.  0.
         13    1    3    3    0    0  0.23492849121E+03  0.26425216854E+02  0.10064503771E+02  0.23662413720E+03  0.00000000000E+00 0. -1.
        -13    1    3    3    0    0  0.20038227000E+03  0.60729250179E+02  0.73932744504E+02  0.22205212601E+03  0.00000000000E+00 0.  1.
         22    1    1    2    0    0 -0.43531076121E+03 -0.87154467033E+02 -0.16781909193E+04  0.17359193880E+04  0.00000000000E+00 0. -1.
<mgrwt>
<rscale>  0 0.15082429E+04</rscale>
<asrwt>0</asrwt>
<pdfrwt beam="1">  1        2 0.29144533E+00 0.15082429E+04</pdfrwt>
<pdfrwt beam="2">  1       -2 0.46184768E-01 0.15082429E+04</pdfrwt>
<totfact> 0.32830667E+01</totfact>
</mgrwt>
</event>
<event>
 6    1  0.1841161E-005  0.3901827E+04  0.7818608E-02  0.8024649E-01
          1   -1    0    0  501    0  0.00000000000E+00  0.00000000000E+00  0.18748402221E+04  0.18748402221E+04  0.00000000000E+00 0. -1.
         -1   -1    0    0    0  501 -0.00000000000E+00 -0.00000000000E+00 -0.20300738943E+04  0.20300738943E+04  0.00000000000E+00 0.  1.
         23    2    1    2    0    0 -0.19107957880E+04 -0.37677710748E+03  0.28751371299E+02  0.19486544127E+04  0.57670150789E+02 0.  0.
         11    1    3    3    0    0 -0.10688116986E+04 -0.23905677182E+03  0.23049656952E+02  0.10954624018E+04  0.00000000000E+00 0. -1.
        -11    1    3    3    0    0 -0.84198408948E+03 -0.13772033566E+03  0.57017143474E+01  0.85319201083E+03  0.00000000000E+00 0.  1.
         22    1    1    2    0    0  0.19107957880E+04  0.37677710748E+03 -0.18398504346E+03  0.19562597038E+04  0.00000000000E+00 0. -1.
<mgrwt>
<rscale>  0 0.39018274E+04</rscale>
<asrwt>0</asrwt>
<pdfrwt beam="1">  1        1 0.28843696E+00 0.39018274E+04</pdfrwt>
<pdfrwt beam="2">  1       -1 0.31231906E+00 0.39018274E+04</pdfrwt>
<totfact> 0.78516913E-02</totfact>
</mgrwt>
</event>
<event>
 6    1  0.1001928E-005  0.3357664E+04  0.7818608E-02  0.8148376E-01
         -2   -1    0    0    0  501 -0.00000000000E+00  0.00000000000E+00  0.91765598409E+03  0.91765598409E+03  0.00000000000E+00 0.  1.
          2   -1    0    0  501    0  0.00000000000E+00 -0.00000000000E+00 -0.30713878360E+04  0.30713878360E+04  0.00000000000E+00 0. -1.
         23    2    1    2    0    0  0.36962634233E+03 -0.16362913746E+04 -0.10897774614E+04  0.20025715598E+04  0.92762283913E+02 0.  0.
         13    1    3    3    0    0  0.16859589809E+03 -0.84632124976E+03 -0.51174776673E+03  0.10032796277E+04  0.00000000000E+00 0.  1.
        -13    1    3    3    0    0  0.20103044424E+03 -0.78997012486E+03 -0.57802969466E+03  0.99929193212E+03  0.00000000000E+00 0. -1.
         22    1    1    2    0    0 -0.36962634233E+03  0.16362913746E+04 -0.10639543905E+04  0.19864722602E+04  0.00000000000E+00 0. -1.
<mgrwt>
<rscale>  0 0.33576643E+04</rscale>
<asrwt>0</asrwt>
<pdfrwt beam="1">  1        2 0.47252121E+00 0.33576643E+04</pdfrwt>
<pdfrwt beam="2">  1       -2 0.14117784E+00 0.33576643E+04</pdfrwt>
<totfact> 0.45809453E-01</totfact>
</mgrwt>
</event>
<event>
 6    1  0.1001928E-005  0.1011400E+04  0.7818608E-02  0.9296129E-01
          1   -1    0    0  501    0  0.00000000000E+00  0.00000000000E+00  0.13125664825E+04  0.13125664825E+04  0.00000000000E+00 0. -1.
         -1   -1    0    0    0  501 -0.00000000000E+00 -0.00000000000E+00 -0.19483401618E+03  0.19483401618E+03  0.00000000000E+00 0.  1.
         23    2    1    2    0    0  0.46228232584E+03 -0.87539058256E+02  0.30407419306E+03  0.56750272703E+03  0.90720421027E+02 0.  0.
         11    1    3    3    0    0  0.28820512231E+03 -0.98808048821E+02  0.18940188353E+03  0.35874544808E+03  0.00000000000E+00 0. -1.
        -11    1    3    3    0    0  0.17407720353E+03  0.11268990565E+02  0.11467230954E+03  0.20875727894E+03  0.00000000000E+00 0.  1.
         22    1    1    2    0    0 -0.46228232584E+03  0.87539058256E+02  0.81365827325E+03  0.93989777164E+03  0.00000000000E+00 0. -1.
<mgrwt>
<rscale>  0 0.10114002E+04</rscale>
<asrwt>0</asrwt>
<pdfrwt beam="1">  1        1 0.20193330E+00 0.10114002E+04</pdfrwt>
<pdfrwt beam="2">  1       -1 0.29974465E-01 0.10114002E+04</pdfrwt>
<totfact> 0.90647806E+01</totfact>
</mgrwt>
</event>
<event>
 6    1  0.1001928E-005  0.2962768E+04  0.7818608E-02  0.8254443E-01
          2   -1    0    0  501    0  0.00000000000E+00  0.00000000000E+00  0.15124223123E+04  0.15124223123E+04  0.00000000000E+00 0. -1.
         -2   -1    0    0    0  501 -0.00000000000E+00 -0.00000000000E+00 -0.14509826909E+04  0.14509826909E+04  0.00000000000E+00 0.  1.
         23    2    1    2    0    0 -0.13696560346E+04 -0.42638868879E+03  0.39564902512E+03  0.14904960133E+04  0.85295062823E+02 0.  0.
         11    1    3    3    0    0 -0.11236449500E+04 -0.37734783168E+03  0.30681200576E+03  0.12243786043E+04  0.00000000000E+00 0. -1.
        -11    1    3    3    0    0 -0.24601108457E+03 -0.49040857112E+02  0.88837019362E+02  0.26611740907E+03  0.00000000000E+00 0.  1.
         22    1    1    2    0    0  0.13696560346E+04  0.42638868879E+03 -0.33420940364E+03  0.14729089899E+04  0.00000000000E+00 0.  1.
<mgrwt>
<rscale>  0 0.29627680E+04</rscale>
<asrwt>0</asrwt>
<pdfrwt beam="1">  1        2 0.23268036E+00 0.29627680E+04</pdfrwt>
<pdfrwt beam="2">  1       -2 0.22322811E+00 0.29627680E+04</pdfrwt>
<totfact> 0.10113716E+00</totfact>
</mgrwt>
</event>
<event>
 6    1  0.1001928E-005  0.4301876E+04  0.7818608E-02  0.7946271E-01
         -1   -1    0    0    0  501 -0.00000000000E+00  0.00000000000E+00  0.46972181883E+04  0.46972181883E+04  0.00000000000E+00 0.  1.
          1   -1    0    0  501    0  0.00000000000E+00 -0.00000000000E+00 -0.98495215620E+03  0.98495215620E+03  0.00000000000E+00 0. -1.
         23    2    1    2    0    0 -0.32397532785E+03  0.86022868171E+03  0.44241141639E+04  0.45195521093E+04  0.92799436202E+02 0.  0.
         11    1    3    3    0    0 -0.48608890513E+02  0.63529798960E+02  0.32947228838E+03  0.33904402134E+03  0.00000000000E+00 0. -1.
        -11    1    3    3    0    0 -0.27536643734E+03  0.79669888275E+03  0.40946418755E+04  0.41805080880E+04  0.00000000000E+00 0.  1.
         22    1    1    2    0    0  0.32397532785E+03 -0.86022868171E+03 -0.71184813187E+03  0.11626182352E+04  0.00000000000E+00 0. -1.
<mgrwt>
<rscale>  0 0.43018764E+04</rscale>
<asrwt>0</asrwt>
<pdfrwt beam="1">  1        1 0.15153110E+00 0.43018764E+04</pdfrwt>
<pdfrwt beam="2">  1       -1 0.72264894E+00 0.43018764E+04</pdfrwt>
<totfact> 0.19692234E-03</totfact>
</mgrwt>
</event>
<event>
 6    1  0.1001928E-005  0.2425669E+04  0.7818608E-02  0.8429955E-01
         -1   -1    0    0    0  501 -0.00000000000E+00  0.00000000000E+00  0.16859203022E+04  0.16859203022E+04  0.00000000000E+00 0.  1.
          1   -1    0    0  501    0  0.00000000000E+00 -0.00000000000E+00 -0.87250136337E+03  0.87250136337E+03  0.00000000000E+00 0. -1.
         23    2    1    2    0    0  0.29040940661E+03 -0.59500756598E+03 -0.66201971380E+03  0.94123557712E+03  0.96346682153E+02 0.  0.
         11    1    3    3    0    0  0.17386470069E+03 -0.44540703230E+03 -0.49984146098E+03  0.69170647293E+03  0.00000000000E+00 0. -1.
        -11    1    3    3    0    0  0.11654470592E+03 -0.14960053368E+03 -0.16217825281E+03  0.24952910419E+03  0.00000000000E+00 0.  1.
         22    1    1    2    0    0 -0.29040940661E+03  0.59500756598E+03  0.14754386526E+04  0.16171860884E+04  0.00000000000E+00 0.  1.
<mgrwt>
<rscale>  0 0.24256692E+04</rscale>
<asrwt>0</asrwt>
<pdfrwt beam="1">  1        1 0.13423098E+00 0.24256692E+04</pdfrwt>
<pdfrwt beam="2">  1       -1 0.25937235E+00 0.24256692E+04</pdfrwt>
<totfact> 0.10384346E+00</totfact>
</mgrwt>
</event>
<event>
 6    1  0.1001928E-005  0.2028225E+04  0.7818608E-02  0.8593537E-01
          1   -1    0    0  501    0  0.00000000000E+00  0.00000000000E+00  0.23550773563E+04  0.23550773563E+04  0.00000000000E+00 0. -1.
         -1   -1    0    0    0  501 -0.00000000000E+00 -0.00000000000E+00 -0.43668390490E+03  0.43668390490E+03  0.00000000000E+00 0.  1.
         23    2    1    2    0    0  0.34681575948E+03 -0.94960719139E+03  0.90477369031E+03  0.13601677403E+04  0.96983824089E+02 0.  0.
         13    1    3    3    0    0  0.79994165798E+02 -0.27566571214E+03  0.31058054970E+03  0.42290770773E+03  0.00000000000E+00 0.  1.
        -13    1    3    3    0    0  0.26682159368E+03 -0.67394147925E+03  0.59419314061E+03  0.93726003257E+03  0.00000000000E+00 0. -1.
         22    1    1    2    0    0 -0.34681575948E+03  0.94960719139E+03  0.10136197611E+04  0.14315935209E+04  0.00000000000E+00 0.  1.
<mgrwt>
<rscale>  0 0.20282252E+04</rscale>
<asrwt>0</asrwt>
<pdfrwt beam="1">  1        1 0.36231959E+00 0.20282252E+04</pdfrwt>
<pdfrwt beam="2">  1       -1 0.67182141E-01 0.20282252E+04</pdfrwt>
<totfact> 0.35436855E+00</totfact>
</mgrwt>
</event>
<event>
 6    1  0.1001928E-005  0.9101770E+03  0.7818608E-02  0.9412948E-01
         -1   -1    0    0    0  501 -0.00000000000E+00  0.00000000000E+00  0.20553578653E+03  0.20553578653E+03  0.00000000000E+00 0.  1.
          1   -1    0    0  501    0  0.00000000000E+00 -0.00000000000E+00 -0.10076373625E+04  0.10076373625E+04  0.00000000000E+00 0. -1.
         23    2    1    2    0    0  0.33049975437E+03 -0.98122970304E+02 -0.79353579377E+03  0.86830857044E+03  0.73501786223E+02 0.  0.
         11    1    3    3    0    0  0.24021412076E+02 -0.26668805711E+02 -0.56997053509E+02  0.67356644401E+02  0.00000000000E+00 0. -1.
        -11    1    3    3    0    0  0.30647834229E+03 -0.71454164593E+02 -0.73653874026E+03  0.80095192604E+03  0.00000000000E+00 0.  1.
         22    1    1    2    0    0 -0.33049975437E+03  0.98122970304E+02 -0.85657821991E+01  0.34486457859E+03  0.00000000000E+00 0.  1.
<mgrwt>
<rscale>  0 0.91017699E+03</rscale>
<asrwt>0</asrwt>
<pdfrwt beam="1">  1        1 0.15502113E+00 0.91017699E+03</pdfrwt>
<pdfrwt beam="2">  1       -1 0.31620890E-01 0.91017699E+03</pdfrwt>
<totfact> 0.13959288E+02</totfact>
</mgrwt>
</event>
<event>
 6    1  0.1001928E-005  0.2065020E+04  0.7818608E-02  0.8576811E-01
          2   -1    0    0  501    0  0.00000000000E+00  0.00000000000E+00  0.13659123119E+04  0.13659123119E+04  0.00000000000E+00 0. -1.
         -2   -1    0    0    0  501 -0.00000000000E+00 -0.00000000000E+00 -0.78048726319E+03  0.78048726319E+03  0.00000000000E+00 0.  1.
         23    2    1    2    0    0  0.94862330687E+03  0.37067701137E+03  0.13036280281E+03  0.10308865663E+04  0.91896829221E+02 0.  0.
         13    1    3    3    0    0  0.10215104394E+03  0.71775167245E+02  0.12001040471E+02  0.12542143112E+03  0.00000000000E+00 0. -1.
        -13    1    3    3    0    0  0.84647226293E+03  0.29890184412E+03  0.11836176234E+03  0.90546513523E+03  0.00000000000E+00 0.  1.
         22    1    1    2    0    0 -0.94862330687E+03 -0.37067701137E+03  0.45506224594E+03  0.11155130088E+04  0.00000000000E+00 0. -1.
<mgrwt>
<rscale>  0 0.20650203E+04</rscale>
<asrwt>0</asrwt>
<pdfrwt beam="1">  1        2 0.21014036E+00 0.20650203E+04</pdfrwt>
<pdfrwt beam="2">  1       -2 0.12007496E+00 0.20650203E+04</pdfrwt>
<totfact> 0.74187732E+00</totfact>
</mgrwt>
</event>
<event>
 6    1  0.1001928E-005  0.2752649E+04  0.7818608E-02  0.8318121E-01
         -1   -1    0    0    0  501 -0.00000000000E+00  0.00000000000E+00  0.73980510989E+03  0.73980510989E+03  0.00000000000E+00 0.  1.
          1   -1    0    0  501    0  0.00000000000E+00 -0.00000000000E+00 -0.25604980027E+04  0.25604980027E+04  0.00000000000E+00 0. -1.
         23    2    1    2    0    0  0.18371334015E+03  0.30691880568E+03 -0.25029176623E+04  0.25299912403E+04  0.91154304183E+02 0.  0.
         13    1    3    3    0    0  0.13276024880E+03  0.16276045083E+03 -0.12139147758E+04  0.12319518380E+04  0.00000000000E+00 0.  1.
        -13    1    3    3    0    0  0.50953091345E+02  0.14415835485E+03 -0.12890028864E+04  0.12980394023E+04  0.00000000000E+00 0. -1.
         22    1    1    2    0    0 -0.18371334015E+03 -0.30691880568E+03  0.68222476944E+03  0.77031187233E+03  0.00000000000E+00 0.  1.
<mgrwt>
<rscale>  0 0.27526493E+04</rscale>
<asrwt>0</asrwt>
<pdfrwt beam="1">  1        1 0.39392278E+00 0.27526493E+04</pdfrwt>
<pdfrwt beam="2">  1       -1 0.11381617E+00 0.27526493E+04</pdfrwt>
<totfact> 0.75169957E-01</totfact>
</mgrwt>
</event>
<event>
 6    1  0.1001928E-005  0.2007124E+04  0.7818608E-02  0.8603297E-01
         -2   -1    0    0    0  501 -0.00000000000E+00  0.00000000000E+00  0.13117705986E+04  0.13117705986E+04  0.00000000000E+00 0.  1.
          2   -1    0    0  501    0  0.00000000000E+00 -0.00000000000E+00 -0.76776904793E+03  0.76776904793E+03  0.00000000000E+00 0. -1.
         23    2    1    2    0    0  0.53668259925E+02  0.34829840482E+03  0.12435100281E+04  0.12962745759E+04  0.99088471340E+02 0.  0.
         13    1    3    3    0    0 -0.24859260200E+02  0.55801959109E+02  0.26596377372E+03  0.27288930062E+03  0.00000000000E+00 0. -1.
        -13    1    3    3    0    0  0.78527520125E+02  0.29249644571E+03  0.97754625442E+03  0.10233852753E+04  0.00000000000E+00 0.  1.
         22    1    1    2    0    0 -0.53668259925E+02 -0.34829840482E+03 -0.69950847743E+03  0.78326507066E+03  0.00000000000E+00 0. -1.
<mgrwt>
<rscale>  0 0.20071242E+04</rscale>
<asrwt>0</asrwt>
<pdfrwt beam="1">  1        2 0.11811832E+00 0.20071242E+04</pdfrwt>
<pdfrwt beam="2">  1       -2 0.20181086E+00 0.20071242E+04</pdfrwt>
<totfact> 0.43680162E+00</totfact>
</mgrwt>
</event>
<event>
 6    1  0.1001928E-005  0.2216070E+04  0.7818608E-02  0.8511769E-01
          2   -1    0    0  501    0  0.00000000000E+00  0.00000000000E+00  0.21510377544E+04  0.21510377544E+04  0.00000000000E+00 0. -1.
         -2   -1    0    0    0  501 -0.00000000000E+00 -0.00000000000E+00 -0.57076734676E+03  0.57076734676E+03  0.00000000000E+00 0.  1.
         23    2    1    2    0    0  0.27984423072E+03  0.94114954079E+03  0.16588915964E+03  0.10000183646E+04  0.91881796934E+02 0.  0.
         13    1    3    3    0    0  0.75332092533E+02  0.18235885743E+03  0.64804080851E+02  0.20767581935E+03  0.00000000000E+00 0. -1.
        -13    1    3    3    0    0  0.20451213819E+03  0.75879068336E+03  0.10108507879E+03  0.79234254523E+03  0.00000000000E+00 0.  1.
         22    1    1    2    0    0 -0.27984423072E+03 -0.94114954079E+03  0.14143812480E+04  0.17217867366E+04  0.00000000000E+00 0. -1.
<mgrwt>
<rscale>  0 0.22160705E+04</rscale>
<asrwt>0</asrwt>
<pdfrwt beam="1">  1        2 0.33092888E+00 0.22160705E+04</pdfrwt>
<pdfrwt beam="2">  1       -2 0.87810362E-01 0.22160705E+04</pdfrwt>
<totfact> 0.56163848E+00</totfact>
</mgrwt>
</event>
<event>
 6    1  0.1001928E-005  0.2892640E+04  0.7818608E-02  0.8275071E-01
          2   -1    0    0  501    0  0.00000000000E+00  0.00000000000E+00  0.33358332690E+04  0.33358332690E+04  0.00000000000E+00 0.  1.
         -2   -1    0    0    0  501 -0.00000000000E+00 -0.00000000000E+00 -0.62708219929E+03  0.62708219929E+03  0.00000000000E+00 0. -1.
         23    2    1    2    0    0  0.62046236612E+03  0.90091733457E+03  0.26489581792E+04  0.28673787134E+04  0.90860659413E+02 0.  0.
         11    1    3    3    0    0  0.56857390618E+02  0.12727234297E+03  0.38160700846E+03  0.40626951776E+03  0.00000000000E+00 0. -1.
        -11    1    3    3    0    0  0.56360497551E+03  0.77364499160E+03  0.22673511708E+04  0.24611091957E+04  0.00000000000E+00 0.  1.
         22    1    1    2    0    0 -0.62046236612E+03 -0.90091733457E+03  0.59792890475E+02  0.10955367549E+04  0.00000000000E+00 0. -1.
<mgrwt>
<rscale>  0 0.28926401E+04</rscale>
<asrwt>0</asrwt>
<pdfrwt beam="1">  1        2 0.51320511E+00 0.28926401E+04</pdfrwt>
<pdfrwt beam="2">  1       -2 0.96474186E-01 0.28926401E+04</pdfrwt>
<totfact> 0.81775307E-01</totfact>
</mgrwt>
</event>
<event>
 6    1  0.1001928E-005  0.2505709E+04  0.7818608E-02  0.8400955E-01
          1   -1    0    0  501    0  0.00000000000E+00  0.00000000000E+00  0.12749800689E+04  0.12749800689E+04  0.00000000000E+00 0. -1.
         -1   -1    0    0    0  501 -0.00000000000E+00 -0.00000000000E+00 -0.12311127355E+04  0.12311127355E+04  0.00000000000E+00 0.  1.
         23    2    1    2    0    0  0.99487661547E+03 -0.62700976579E+03  0.44916195526E+03  0.12622341078E+04  0.92562165805E+02 0.  0.
         11    1    3    3    0    0  0.12428700977E+03 -0.10049635130E+03  0.89036880197E+02  0.18295995042E+03  0.00000000000E+00 0.  1.
        -11    1    3    3    0    0  0.87058960569E+03 -0.52651341449E+03  0.36012507506E+03  0.10792741574E+04  0.00000000000E+00 0. -1.
         22    1    1    2    0    0 -0.99487661547E+03  0.62700976579E+03 -0.40529462183E+03  0.12438586965E+04  0.00000000000E+00 0.  1.
<mgrwt>
<rscale>  0 0.25057088E+04</rscale>
<asrwt>0</asrwt>
<pdfrwt beam="1">  1        1 0.19615078E+00 0.25057088E+04</pdfrwt>
<pdfrwt beam="2">  1       -1 0.18940196E+00 0.25057088E+04</pdfrwt>
<totfact> 0.14936441E+00</totfact>
</mgrwt>
</event>
<event>
 6    1  0.1001928E-005  0.2627752E+04  0.7818608E-02  0.8358835E-01
          1   -1    0    0  501    0  0.00000000000E+00  0.00000000000E+00  0.20258858112E+04  0.20258858112E+04  0.00000000000E+00 0. -1.
         -1   -1    0    0    0  501 -0.00000000000E+00 -0.00000000000E+00 -0.85210648521E+03  0.85210648521E+03  0.00000000000E+00 0.  1.
         23    2    1    2    0    0 -0.35544352951E+03 -0.58933743678E+03  0.18113857312E+04  0.19398022065E+04  0.89753084116E+02 0.  0.
         11    1    3    3    0    0 -0.30747326692E+03 -0.54820370381E+03  0.16869474823E+04  0.18002385727E+04  0.00000000000E+00 0. -1.
        -11    1    3    3    0    0 -0.47970262586E+02 -0.41133732968E+02  0.12443824891E+03  0.13956363377E+03  0.00000000000E+00 0.  1.
         22    1    1    2    0    0  0.35544352951E+03  0.58933743678E+03 -0.63760640514E+03  0.93819008998E+03  0.00000000000E+00 0.  1.
<mgrwt>
<rscale>  0 0.26277522E+04</rscale>
<asrwt>0</asrwt>
<pdfrwt beam="1">  1        1 0.31167474E+00 0.26277522E+04</pdfrwt>
<pdfrwt beam="2">  1       -1 0.13109331E+00 0.26277522E+04</pdfrwt>
<totfact> 0.12482058E+00</totfact>
</mgrwt>
</event>
<event>
 6    1  0.1001928E-005  0.1051885E+04  0.7818608E-02  0.9253400E-01
          1   -1    0    0  501    0  0.00000000000E+00  0.00000000000E+00  0.81776413394E+03  0.81776413394E+03  0.00000000000E+00 0. -1.
         -1   -1    0    0    0  501 -0.00000000000E+00 -0.00000000000E+00 -0.33825803661E+03  0.33825803661E+03  0.00000000000E+00 0.  1.
         23    2    1    2    0    0 -0.16091976718E+03 -0.16032245113E+03  0.75804285784E+03  0.79660432630E+03  0.91383907470E+02 0.  0.
         13    1    3    3    0    0 -0.61987125195E+02 -0.68856026200E+02  0.46403937562E+03  0.47319773685E+03  0.00000000000E+00 0. -1.
        -13    1    3    3    0    0 -0.98932641980E+02 -0.91466424935E+02  0.29400348223E+03  0.32340658945E+03  0.00000000000E+00 0.  1.
         22    1    1    2    0    0  0.16091976718E+03  0.16032245113E+03 -0.27853676051E+03  0.35941784424E+03  0.00000000000E+00 0.  1.
<mgrwt>
<rscale>  0 0.10518846E+04</rscale>
<asrwt>0</asrwt>
<pdfrwt beam="1">  1        1 0.12580987E+00 0.10518846E+04</pdfrwt>
<pdfrwt beam="2">  1       -1 0.52039698E-01 0.10518846E+04</pdfrwt>
<totfact> 0.79280313E+01</totfact>
</mgrwt>
</event>
<event>
 6    1  0.1116276E-005  0.4050305E+04  0.7818608E-02  0.7994475E-01
          2   -1    0    0  501    0  0.00000000000E+00  0.00000000000E+00  0.17378556342E+04  0.17378556342E+04  0.00000000000E+00 0. -1.
         -2   -1    0    0    0  501 -0.00000000000E+00 -0.00000000000E+00 -0.23599448110E+04  0.23599448110E+04  0.00000000000E+00 0.  1.
         23    2    1    2    0    0 -0.13736071862E+04 -0.14557919277E+04 -0.61663053717E+03  0.20962618782E+04  0.89184101359E+02 0.  0.
         11    1    3    3    0    0 -0.77392327138E+03 -0.86148150377E+03 -0.39187019568E+03  0.12225669150E+04  0.00000000000E+00 0.  1.
        -11    1    3    3    0    0 -0.59968391478E+03 -0.59431042393E+03 -0.22476034149E+03  0.87369496322E+03  0.00000000000E+00 0. -1.
         22    1    1    2    0    0  0.13736071862E+04  0.14557919277E+04 -0.54586396477E+01  0.20015385670E+04  0.00000000000E+00 0. -1.
<mgrwt>
<rscale>  0 0.40503054E+04</rscale>
<asrwt>0</asrwt>
<pdfrwt beam="1">  1        2 0.26736240E+00 0.40503054E+04</pdfrwt>
<pdfrwt beam="2">  1       -2 0.36306843E+00 0.40503054E+04</pdfrwt>
<totfact> 0.94341507E-02</totfact>
</mgrwt>
</event>
<event>
 6    1  0.1001928E-005  0.2337242E+04  0.7818608E-02  0.8463380E-01
         -1   -1    0    0    0  501 -0.00000000000E+00  0.00000000000E+00  0.18507857597E+04  0.18507857597E+04  0.00000000000E+00 0.  1.
          1   -1    0    0  501    0  0.00000000000E+00 -0.00000000000E+00 -0.73788907753E+03  0.73788907753E+03  0.00000000000E+00 0. -1.
         23    2    1    2    0    0  0.12931727363E+03 -0.11460058991E+04  0.36037271511E+03  0.12115964811E+04  0.89694265916E+02 0.  0.
         13    1    3    3    0    0  0.10948225978E+03 -0.72773324214E+03  0.19444518537E+03  0.76117735584E+03  0.00000000000E+00 0.  1.
        -13    1    3    3    0    0  0.19835013852E+02 -0.41827265691E+03  0.16592752974E+03  0.45041912528E+03  0.00000000000E+00 0. -1.
         22    1    1    2    0    0 -0.12931727363E+03  0.11460058991E+04  0.75252396711E+03  0.13770783562E+04  0.00000000000E+00 0. -1.
<mgrwt>
<rscale>  0 0.23372416E+04</rscale>
<asrwt>0</asrwt>
<pdfrwt beam="1">  1        1 0.11352140E+00 0.23372416E+04</pdfrwt>
<pdfrwt beam="2">  1       -1 0.28473627E+00 0.23372416E+04</pdfrwt>
<totfact> 0.93882713E-01</totfact>
</mgrwt>
</event>
<event>
 6    1  0.1001928E-005  0.2103476E+04  0.7818608E-02  0.8559714E-01
         -1   -1    0    0    0  501 -0.00000000000E+00  0.00000000000E+00  0.86313540282E+03  0.86313540282E+03  0.00000000000E+00 0.  1.
          1   -1    0    0  501    0  0.00000000000E+00 -0.00000000000E+00 -0.12815516495E+04  0.12815516495E+04  0.00000000000E+00 0. -1.
         23    2    1    2    0    0 -0.98692749445E+03  0.78778828725E+02 -0.56457766151E+03  0.11438897990E+04  0.97488221055E+02 0.  0.
         13    1    3    3    0    0 -0.21064780788E+03  0.52290005791E+02 -0.14570093847E+03  0.26141061023E+03  0.00000000000E+00 0. -1.
        -13    1    3    3    0    0 -0.77627968657E+03  0.26488822934E+02 -0.41887672304E+03  0.88247918878E+03  0.00000000000E+00 0.  1.
         22    1    1    2    0    0  0.98692749445E+03 -0.78778828725E+02  0.14616141478E+03  0.10007972534E+04  0.00000000000E+00 0.  1.
<mgrwt>
<rscale>  0 0.21034758E+04</rscale>
<asrwt>0</asrwt>
<pdfrwt beam="1">  1        1 0.19716179E+00 0.21034758E+04</pdfrwt>
<pdfrwt beam="2">  1       -1 0.13279006E+00 0.21034758E+04</pdfrwt>
<totfact> 0.41201314E+00</totfact>
</mgrwt>
</event>
<event>
 6    1  0.1001928E-005  0.1832266E+04  0.7818608E-02  0.8689326E-01
         -2   -1    0    0    0  501 -0.00000000000E+00  0.00000000000E+00  0.43335856192E+03  0.43335856192E+03  0.00000000000E+00 0. -1.
          2   -1    0    0  501    0  0.00000000000E+00 -0.00000000000E+00 -0.19367334125E+04  0.19367334125E+04  0.00000000000E+00 0.  1.
         23    2    1    2    0    0 -0.49627469601E+03  0.64509286529E+03 -0.12912395835E+04  0.15290005702E+04  0.90053888609E+02 0.  0.
         13    1    3    3    0    0 -0.35582288829E+03  0.43387546928E+03 -0.95757989583E+03  0.11098725637E+04  0.00000000000E+00 0. -1.
        -13    1    3    3    0    0 -0.14045180772E+03  0.21121739601E+03 -0.33365968771E+03  0.41912800655E+03  0.00000000000E+00 0.  1.
         22    1    1    2    0    0  0.49627469601E+03 -0.64509286529E+03 -0.21213526707E+03  0.84109140424E+03  0.00000000000E+00 0.  1.
<mgrwt>
<rscale>  0 0.18322664E+04</rscale>
<asrwt>0</asrwt>
<pdfrwt beam="1">  1        2 0.29795899E+00 0.18322664E+04</pdfrwt>
<pdfrwt beam="2">  1       -2 0.66670547E-01 0.18322664E+04</pdfrwt>
<totfact> 0.14098948E+01</totfact>
</mgrwt>
</event>
<event>
 6    1  0.1001928E-005  0.2210644E+04  0.7818608E-02  0.8514011E-01
         -1   -1    0    0    0  501 -0.00000000000E+00  0.00000000000E+00  0.75249095601E+03  0.75249095601E+03  0.00000000000E+00 0.  1.
          1   -1    0    0  501    0  0.00000000000E+00 -0.00000000000E+00 -0.16235895675E+04  0.16235895675E+04  0.00000000000E+00 0. -1.
         23    2    1    2    0    0  0.10179812181E+04 -0.42580182475E+03 -0.43684100584E+03  0.11902590267E+04  0.91068830684E+02 0.  0.
         13    1    3    3    0    0  0.59162575020E+03 -0.22704471176E+03 -0.20656790689E+03  0.66651378800E+03  0.00000000000E+00 0. -1.
        -13    1    3    3    0    0  0.42635546787E+03 -0.19875711299E+03 -0.23027309895E+03  0.52374523869E+03  0.00000000000E+00 0.  1.
         22    1    1    2    0    0 -0.10179812181E+04  0.42580182475E+03 -0.43425760568E+03  0.11858214968E+04  0.00000000000E+00 0. -1.
<mgrwt>
<rscale>  0 0.22106438E+04</rscale>
<asrwt>0</asrwt>
<pdfrwt beam="1">  1        1 0.24978301E+00 0.22106438E+04</pdfrwt>
<pdfrwt beam="2">  1       -1 0.11576784E+00 0.22106438E+04</pdfrwt>
<totfact> 0.33075600E+00</totfact>
</mgrwt>
</event>
<event>
 6    1  0.1001928E-005  0.1960093E+04  0.7818608E-02  0.8625509E-01
         -1   -1    0    0    0  501 -0.00000000000E+00  0.00000000000E+00  0.85272179919E+03  0.85272179919E+03  0.00000000000E+00 0.  1.
          1   -1    0    0  501    0  0.00000000000E+00 -0.00000000000E+00 -0.11263823208E+04  0.11263823208E+04  0.00000000000E+00 0. -1.
         23    2    1    2    0    0  0.20733360308E+03  0.47542452899E+03 -0.97420813321E+03  0.11074489922E+04  0.91356870895E+02 0.  0.
         11    1    3    3    0    0  0.10247686251E+03  0.33709630149E+03 -0.67987362328E+03  0.76574380015E+03  0.00000000000E+00 0.  1.
        -11    1    3    3    0    0  0.10485674057E+03  0.13832822750E+03 -0.29433450992E+03  0.34170519209E+03  0.00000000000E+00 0. -1.
         22    1    1    2    0    0 -0.20733360308E+03 -0.47542452899E+03  0.70054761157E+03  0.87165512779E+03  0.00000000000E+00 0.  1.
<mgrwt>
<rscale>  0 0.19600926E+04</rscale>
<asrwt>0</asrwt>
<pdfrwt beam="1">  1        1 0.17328959E+00 0.19600926E+04</pdfrwt>
<pdfrwt beam="2">  1       -1 0.13118797E+00 0.19600926E+04</pdfrwt>
<totfact> 0.55885988E+00</totfact>
</mgrwt>
</event>
<event>
 6    1  0.1001928E-005  0.4844295E+04  0.7818608E-02  0.7852986E-01
         -1   -1    0    0    0  501 -0.00000000000E+00  0.00000000000E+00  0.24316392224E+04  0.24316392224E+04  0.00000000000E+00 0. -1.
          1   -1    0    0  501    0  0.00000000000E+00 -0.00000000000E+00 -0.24126925534E+04  0.24126925534E+04  0.00000000000E+00 0.  1.
         23    2    1    2    0    0  0.76842783189E+03 -0.16240658534E+04  0.16325986767E+04  0.24293899481E+04  0.92118682506E+02 0.  0.
         13    1    3    3    0    0  0.55941136282E+03 -0.11588932219E+04  0.11139189548E+04  0.17019958903E+04  0.00000000000E+00 0. -1.
        -13    1    3    3    0    0  0.20901646908E+03 -0.46517263156E+03  0.51867972188E+03  0.72739405784E+03  0.00000000000E+00 0.  1.
         22    1    1    2    0    0 -0.76842783189E+03  0.16240658534E+04 -0.16136520077E+04  0.24149418277E+04  0.00000000000E+00 0.  1.
<mgrwt>
<rscale>  0 0.48442947E+04</rscale>
<asrwt>0</asrwt>
<pdfrwt beam="1">  1        1 0.37118347E+00 0.48442947E+04</pdfrwt>
<pdfrwt beam="2">  1       -1 0.37409834E+00 0.48442947E+04</pdfrwt>
<totfact> 0.12205217E-02</totfact>
</mgrwt>
</event>
<event>
 6    1  0.1012411E-005  0.2395771E+04  0.7818608E-02  0.8441088E-01
          1   -1    0    0  501    0  0.00000000000E+00  0.00000000000E+00  0.84575485762E+03  0.84575485762E+03  0.00000000000E+00 0. -1.
         -1   -1    0    0    0  501 -0.00000000000E+00 -0.00000000000E+00 -0.16966264101E+04  0.16966264101E+04  0.00000000000E+00 0.  1.
         23    2    1    2    0    0  0.19467494406E+03  0.40757336854E+03 -0.16014430825E+04  0.16663835473E+04  0.90552723310E+02 0.  0.
         11    1    3    3    0    0  0.78498820421E+02  0.26564582286E+03 -0.99032603720E+03  0.10283362427E+04  0.00000000000E+00 0.  1.
        -11    1    3    3    0    0  0.11617612364E+03  0.14192754569E+03 -0.61111704528E+03  0.63804730464E+03  0.00000000000E+00 0. -1.
         22    1    1    2    0    0 -0.19467494406E+03 -0.40757336854E+03  0.75057152999E+03  0.87599772044E+03  0.00000000000E+00 0. -1.
<mgrwt>
<rscale>  0 0.23957713E+04</rscale>
<asrwt>0</asrwt>
<pdfrwt beam="1">  1        1 0.13011613E+00 0.23957713E+04</pdfrwt>
<pdfrwt beam="2">  1       -1 0.26101945E+00 0.23957713E+04</pdfrwt>
<totfact> 0.10697351E+00</totfact>
</mgrwt>
</event>
<event>
 6    1  0.1001928E-005  0.2161462E+04  0.7818608E-02  0.8534642E-01
         -1   -1    0    0    0  501 -0.00000000000E+00  0.00000000000E+00  0.41397766674E+03  0.41397766674E+03  0.00000000000E+00 0.  1.
          1   -1    0    0  501    0  0.00000000000E+00 -0.00000000000E+00 -0.28213585825E+04  0.28213585825E+04  0.00000000000E+00 0. -1.
         23    2    1    2    0    0  0.86264077479E+03 -0.36890461095E+03 -0.20029020245E+04  0.22136499511E+04  0.91596221953E+02 0.  0.
         11    1    3    3    0    0  0.52614006551E+03 -0.26311670418E+03 -0.11874433704E+04  0.13251699990E+04  0.00000000000E+00 0. -1.
        -11    1    3    3    0    0  0.33650070928E+03 -0.10578790677E+03 -0.81545865416E+03  0.88847995206E+03  0.00000000000E+00 0.  1.
         22    1    1    2    0    0 -0.86264077479E+03  0.36890461095E+03 -0.40447889121E+03  0.10216862981E+04  0.00000000000E+00 0.  1.
<mgrwt>
<rscale>  0 0.21614620E+04</rscale>
<asrwt>0</asrwt>
<pdfrwt beam="1">  1        1 0.43405517E+00 0.21614620E+04</pdfrwt>
<pdfrwt beam="2">  1       -1 0.63688871E-01 0.21614620E+04</pdfrwt>
<totfact> 0.18415275E+00</totfact>
</mgrwt>
</event>
<event>
 6    1  0.1001928E-005  0.4640537E+04  0.7818608E-02  0.7886484E-01
         -2   -1    0    0    0  501 -0.00000000000E+00  0.00000000000E+00  0.41516012052E+04  0.41516012052E+04  0.00000000000E+00 0.  1.
          2   -1    0    0  501    0  0.00000000000E+00 -0.00000000000E+00 -0.12967638161E+04  0.12967638161E+04  0.00000000000E+00 0. -1.
         23    2    1    2    0    0 -0.20947749116E+04  0.55303303545E+03  0.24000875381E+04  0.32346069280E+04  0.91292495358E+02 0.  0.
         13    1    3    3    0    0 -0.91981703368E+03  0.21998065552E+03  0.11066322414E+04  0.14557093741E+04  0.00000000000E+00 0.  1.
        -13    1    3    3    0    0 -0.11749578779E+04  0.33305237992E+03  0.12934552968E+04  0.17788975539E+04  0.00000000000E+00 0. -1.
         22    1    1    2    0    0  0.20947749116E+04 -0.55303303545E+03  0.45474985100E+03  0.22137580932E+04  0.00000000000E+00 0. -1.
<mgrwt>
<rscale>  0 0.46405371E+04</rscale>
<asrwt>0</asrwt>
<pdfrwt beam="1">  1        2 0.19950213E+00 0.46405371E+04</pdfrwt>
<pdfrwt beam="2">  1       -2 0.63870787E+00 0.46405371E+04</pdfrwt>
<totfact> 0.45914111E-03</totfact>
</mgrwt>
</event>
<event>
 6    1  0.1257043E-005  0.3649448E+04  0.7818608E-02  0.8079258E-01
         -2   -1    0    0    0  501 -0.00000000000E+00  0.00000000000E+00  0.24504571261E+04  0.24504571261E+04  0.00000000000E+00 0.  1.
          2   -1    0    0  501    0  0.00000000000E+00 -0.00000000000E+00 -0.13587738724E+04  0.13587738724E+04  0.00000000000E+00 0. -1.
         23    2    1    2    0    0 -0.15246513094E+04  0.98292103243E+03  0.35178065512E+03  0.18501109851E+04  0.92009002410E+02 0.  0.
         11    1    3    3    0    0 -0.71532396368E+03  0.46086580207E+03  0.21181202823E+03  0.87689793924E+03  0.00000000000E+00 0. -1.
        -11    1    3    3    0    0 -0.80932734574E+03  0.52205523036E+03  0.13996862689E+03  0.97321304585E+03  0.00000000000E+00 0.  1.
         22    1    1    2    0    0  0.15246513094E+04 -0.98292103243E+03  0.73990259863E+03  0.19591200134E+04  0.00000000000E+00 0.  1.
<mgrwt>
<rscale>  0 0.36494477E+04</rscale>
<asrwt>0</asrwt>
<pdfrwt beam="1">  1        2 0.20904213E+00 0.36494477E+04</pdfrwt>
<pdfrwt beam="2">  1       -2 0.37699340E+00 0.36494477E+04</pdfrwt>
<totfact> 0.12979670E-01</totfact>
</mgrwt>
</event>
<event>
 6    1  0.1393756E-005  0.1674194E+04  0.7818608E-02  0.8776221E-01
         -2   -1    0    0    0  501 -0.00000000000E+00  0.00000000000E+00  0.59746016718E+03  0.59746016718E+03  0.00000000000E+00 0.  1.
          2   -1    0    0  501    0  0.00000000000E+00 -0.00000000000E+00 -0.11728508510E+04  0.11728508510E+04  0.00000000000E+00 0. -1.
         23    2    1    2    0    0 -0.46064894286E+03  0.13215506573E+03  0.43438827553E+03  0.65258298475E+03  0.86654302331E+02 0.  0.
         13    1    3    3    0    0 -0.15418365890E+03  0.44818380669E+02  0.20271729177E+03  0.25860314828E+03  0.00000000000E+00 0. -1.
        -13    1    3    3    0    0 -0.30646528396E+03  0.87336685058E+02  0.23167098377E+03  0.39397983647E+03  0.00000000000E+00 0.  1.
         22    1    1    2    0    0  0.46064894286E+03 -0.13215506573E+03 -0.10097789594E+04  0.11177280334E+04  0.00000000000E+00 0. -1.
<mgrwt>
<rscale>  0 0.16741943E+04</rscale>
<asrwt>0</asrwt>
<pdfrwt beam="1">  1        2 0.18043859E+00 0.16741943E+04</pdfrwt>
<pdfrwt beam="2">  1       -2 0.91916949E-01 0.16741943E+04</pdfrwt>
<totfact> 0.18875458E+01</totfact>
</mgrwt>
</event>
<event>
 6    1  0.1345769E-005  0.2851213E+04  0.7818608E-02  0.8287543E-01
          4   -1    0    0  501    0  0.00000000000E+00  0.00000000000E+00  0.17303008630E+04  0.17303008630E+04  0.00000000000E+00 0. -1.
         -4   -1    0    0    0  501 -0.00000000000E+00 -0.00000000000E+00 -0.11745666260E+04  0.11745666260E+04  0.00000000000E+00 0.  1.
         23    2    1    2    0    0 -0.55397619003E+03 -0.11592412023E+04 -0.34795497941E+03  0.13340766105E+04  0.89207347190E+02 0.  0.
         13    1    3    3    0    0 -0.33350810814E+03 -0.78826445434E+03 -0.24780168489E+03  0.89106351244E+03  0.00000000000E+00 0. -1.
        -13    1    3    3    0    0 -0.22046808189E+03 -0.37097674794E+03 -0.10015329452E+03  0.44301309806E+03  0.00000000000E+00 0.  1.
         22    1    1    2    0    0  0.55397619003E+03  0.11592412023E+04  0.90368921641E+03  0.15707908785E+04  0.00000000000E+00 0. -1.
<mgrwt>
<rscale>  0 0.28512128E+04</rscale>
<asrwt>0</asrwt>
<pdfrwt beam="1">  1        4 0.26620013E+00 0.28512128E+04</pdfrwt>
<pdfrwt beam="2">  1       -4 0.18070256E+00 0.28512128E+04</pdfrwt>
<totfact> 0.15338685E-02</totfact>
</mgrwt>
</event>
<event>
 6    1  0.1001928E-005  0.1667286E+04  0.7818608E-02  0.8780246E-01
          1   -1    0    0  501    0  0.00000000000E+00  0.00000000000E+00  0.22627810608E+04  0.22627810608E+04  0.00000000000E+00 0.  1.
         -1   -1    0    0    0  501 -0.00000000000E+00 -0.00000000000E+00 -0.30712663001E+03  0.30712663001E+03  0.00000000000E+00 0. -1.
         23    2    1    2    0    0 -0.52112307238E+03 -0.59215195203E+03  0.57725822914E+03  0.98176749561E+03  0.91799572301E+02 0.  0.
         13    1    3    3    0    0 -0.14816696089E+03 -0.14539886400E+03  0.10696281649E+03  0.23352798990E+03  0.00000000000E+00 0.  1.
        -13    1    3    3    0    0 -0.37295611148E+03 -0.44675308803E+03  0.47029541265E+03  0.74823950572E+03  0.00000000000E+00 0. -1.
         22    1    1    2    0    0  0.52112307238E+03  0.59215195203E+03  0.13783962016E+04  0.15881401952E+04  0.00000000000E+00 0.  1.
<mgrwt>
<rscale>  0 0.16672856E+04</rscale>
<asrwt>0</asrwt>
<pdfrwt beam="1">  1        1 0.34812015E+00 0.16672856E+04</pdfrwt>
<pdfrwt beam="2">  1       -1 0.47250252E-01 0.16672856E+04</pdfrwt>
<totfact> 0.84230132E+00</totfact>
</mgrwt>
</event>
<event>
 6    1  0.1001928E-005  0.2881560E+04  0.7818608E-02  0.8278385E-01
          2   -1    0    0  501    0  0.00000000000E+00  0.00000000000E+00  0.22875680982E+04  0.22875680982E+04  0.00000000000E+00 0. -1.
         -2   -1    0    0    0  501 -0.00000000000E+00 -0.00000000000E+00 -0.90744686446E+03  0.90744686446E+03  0.00000000000E+00 0.  1.
         23    2    1    2    0    0  0.71764367952E+01  0.13488198162E+04  0.13372063280E+03  0.13584745041E+04  0.90583514151E+02 0.  0.
         13    1    3    3    0    0  0.70548257129E+01  0.10638786789E+04  0.68127913750E+02  0.10660811539E+04  0.00000000000E+00 0. -1.
        -13    1    3    3    0    0  0.12161108229E+00  0.28494113726E+03  0.65592719049E+02  0.29239335027E+03  0.00000000000E+00 0.  1.
         22    1    1    2    0    0 -0.71764367952E+01 -0.13488198162E+04  0.12464006009E+04  0.18365404585E+04  0.00000000000E+00 0. -1.
<mgrwt>
<rscale>  0 0.28815596E+04</rscale>
<asrwt>0</asrwt>
<pdfrwt beam="1">  1        2 0.35193355E+00 0.28815596E+04</pdfrwt>
<pdfrwt beam="2">  1       -2 0.13960721E+00 0.28815596E+04</pdfrwt>
<totfact> 0.14408540E+00</totfact>
</mgrwt>
</event>
<event>
 6    1  0.1016108E-005  0.2855849E+04  0.7818608E-02  0.8286136E-01
         -1   -1    0    0    0  501 -0.00000000000E+00  0.00000000000E+00  0.19577103224E+04  0.19577103224E+04  0.00000000000E+00 0.  1.
          1   -1    0    0  501    0  0.00000000000E+00 -0.00000000000E+00 -0.10415066341E+04  0.10415066341E+04  0.00000000000E+00 0. -1.
         23    2    1    2    0    0 -0.32990036333E+03  0.44687870693E+03  0.18383835927E+04  0.19226712749E+04  0.92063940526E+02 0.  0.
         13    1    3    3    0    0 -0.12823323375E+03  0.19163009926E+03  0.91713437786E+03  0.94567506271E+03  0.00000000000E+00 0. -1.
        -13    1    3    3    0    0 -0.20166712958E+03  0.25524860767E+03  0.92124921481E+03  0.97699621220E+03  0.00000000000E+00 0.  1.
         22    1    1    2    0    0  0.32990036333E+03 -0.44687870693E+03 -0.92217990441E+03  0.10765456816E+04  0.00000000000E+00 0. -1.
<mgrwt>
<rscale>  0 0.28558489E+04</rscale>
<asrwt>0</asrwt>
<pdfrwt beam="1">  1        1 0.16023179E+00 0.28558489E+04</pdfrwt>
<pdfrwt beam="2">  1       -1 0.30118620E+00 0.28558489E+04</pdfrwt>
<totfact> 0.39270123E-01</totfact>
</mgrwt>
</event>
<event>
 6    1  0.1039243E-005  0.5394125E+04  0.7818608E-02  0.7770428E-01
         -2   -1    0    0    0  501 -0.00000000000E+00  0.00000000000E+00  0.31764121000E+04  0.31764121000E+04  0.00000000000E+00 0.  1.
          2   -1    0    0  501    0  0.00000000000E+00 -0.00000000000E+00 -0.22900509987E+04  0.22900509987E+04  0.00000000000E+00 0. -1.
         23    2    1    2    0    0 -0.23807852254E+04  0.44535054287E+03  0.16439280656E+04  0.29286721103E+04  0.90252142536E+02 0.  0.
         13    1    3    3    0    0 -0.10847691351E+04  0.24643638203E+03  0.73777949814E+03  0.13348309087E+04  0.00000000000E+00 0. -1.
        -13    1    3    3    0    0 -0.12960160902E+04  0.19891416084E+03  0.90614856751E+03  0.15938412016E+04  0.00000000000E+00 0.  1.
         22    1    1    2    0    0  0.23807852254E+04 -0.44535054287E+03 -0.75756696433E+03  0.25377909884E+04  0.00000000000E+00 0. -1.
<mgrwt>
<rscale>  0 0.53941248E+04</rscale>
<asrwt>0</asrwt>
<pdfrwt beam="1">  1        2 0.35231554E+00 0.53941248E+04</pdfrwt>
<pdfrwt beam="2">  1       -2 0.48867878E+00 0.53941248E+04</pdfrwt>
<totfact> 0.63454175E-03</totfact>
</mgrwt>
</event>
<event>
 6    1  0.1001928E-005  0.9418984E+03  0.7818608E-02  0.9374671E-01
          1   -1    0    0  501    0  0.00000000000E+00  0.00000000000E+00  0.18674856082E+03  0.18674856082E+03  0.00000000000E+00 0.  1.
         -1   -1    0    0    0  501 -0.00000000000E+00 -0.00000000000E+00 -0.11876565744E+04  0.11876565744E+04  0.00000000000E+00 0. -1.
         23    2    1    2    0    0  0.23140132389E+03 -0.40601374606E+03 -0.52460964966E+03  0.70713167842E+03  0.80163529297E+02 0.  0.
         13    1    3    3    0    0  0.16822026416E+03 -0.34971633296E+03 -0.45093378270E+03  0.59492927915E+03  0.00000000000E+00 0. -1.
        -13    1    3    3    0    0  0.63181059730E+02 -0.56297413096E+02 -0.73675866962E+02  0.11220239927E+03  0.00000000000E+00 0.  1.
         22    1    1    2    0    0 -0.23140132389E+03  0.40601374606E+03 -0.47629836395E+03  0.66727345683E+03  0.00000000000E+00 0.  1.
<mgrwt>
<rscale>  0 0.94189841E+03</rscale>
<asrwt>0</asrwt>
<pdfrwt beam="1">  1        1 0.28730547E-01 0.94189841E+03</pdfrwt>
<pdfrwt beam="2">  1       -1 0.18271640E+00 0.94189841E+03</pdfrwt>
<totfact> 0.32628973E+01</totfact>
</mgrwt>
</event>
<event>
 6    1  0.1001928E-005  0.1784890E+04  0.7818608E-02  0.8714377E-01
         -1   -1    0    0    0  501 -0.00000000000E+00  0.00000000000E+00  0.39614473077E+03  0.39614473077E+03  0.00000000000E+00 0.  1.
          1   -1    0    0  501    0  0.00000000000E+00 -0.00000000000E+00 -0.20105221203E+04  0.20105221203E+04  0.00000000000E+00 0. -1.
         23    2    1    2    0    0 -0.83966755417E+03  0.26376467850E+03 -0.62959559425E+03  0.10859062401E+04  0.90489462644E+02 0.  0.
         11    1    3    3    0    0 -0.48526301840E+03  0.17253197504E+03 -0.31818864435E+03  0.60538540851E+03  0.00000000000E+00 0. -1.
        -11    1    3    3    0    0 -0.35440453577E+03  0.91232703454E+02 -0.31140694990E+03  0.48052083160E+03  0.00000000000E+00 0.  1.
         22    1    1    2    0    0  0.83966755417E+03 -0.26376467850E+03 -0.98478179525E+03  0.13207606109E+04  0.00000000000E+00 0. -1.
<mgrwt>
<rscale>  0 0.17848896E+04</rscale>
<asrwt>0</asrwt>
<pdfrwt beam="1">  1        1 0.30931109E+00 0.17848896E+04</pdfrwt>
<pdfrwt beam="2">  1       -1 0.60945344E-01 0.17848896E+04</pdfrwt>
<totfact> 0.75633913E+00</totfact>
</mgrwt>
</event>
<event>
 6    1  0.1023038E-005  0.3334465E+04  0.7818608E-02  0.8154181E-01
          2   -1    0    0  501    0  0.00000000000E+00  0.00000000000E+00  0.18717398481E+04  0.18717398481E+04  0.00000000000E+00 0. -1.
         -2   -1    0    0    0  501 -0.00000000000E+00 -0.00000000000E+00 -0.14850701813E+04  0.14850701813E+04  0.00000000000E+00 0.  1.
         23    2    1    2    0    0  0.10614870595E+03  0.12464208801E+04 -0.91422523866E+03  0.15520496261E+04  0.90651511761E+02 0.  0.
         11    1    3    3    0    0  0.18185914798E+02  0.69554230497E+03 -0.48398788389E+03  0.84755772503E+03  0.00000000000E+00 0.  1.
        -11    1    3    3    0    0  0.87962791148E+02  0.55087857516E+03 -0.43023735477E+03  0.70449190105E+03  0.00000000000E+00 0. -1.
         22    1    1    2    0    0 -0.10614870595E+03 -0.12464208801E+04  0.13008949054E+04  0.18047604033E+04  0.00000000000E+00 0. -1.
<mgrwt>
<rscale>  0 0.33344655E+04</rscale>
<asrwt>0</asrwt>
<pdfrwt beam="1">  1        2 0.28795998E+00 0.33344655E+04</pdfrwt>
<pdfrwt beam="2">  1       -2 0.22847234E+00 0.33344655E+04</pdfrwt>
<totfact> 0.57315676E-01</totfact>
</mgrwt>
</event>
<event>
 6    1  0.1001928E-005  0.1169753E+04  0.7818608E-02  0.9139752E-01
         -4   -1    0    0    0  501 -0.00000000000E+00  0.00000000000E+00  0.38578770482E+03  0.38578770482E+03  0.00000000000E+00 0.  1.
          4   -1    0    0  501    0  0.00000000000E+00 -0.00000000000E+00 -0.88670640142E+03  0.88670640142E+03  0.00000000000E+00 0. -1.
         23    2    1    2    0    0  0.16672747536E+03 -0.45110190920E+03  0.10356164611E+03  0.50003862646E+03  0.89569134642E+02 0.  0.
         13    1    3    3    0    0  0.13604091159E+03 -0.36277701338E+03  0.11891237667E+03  0.40528316569E+03  0.00000000000E+00 0.  1.
        -13    1    3    3    0    0  0.30686563769E+02 -0.88324895821E+02 -0.15350730555E+02  0.94755460773E+02  0.00000000000E+00 0. -1.
         22    1    1    2    0    0 -0.16672747536E+03  0.45110190920E+03 -0.60448034271E+03  0.77245547978E+03  0.00000000000E+00 0.  1.
<mgrwt>
<rscale>  0 0.11697528E+04</rscale>
<asrwt>0</asrwt>
<pdfrwt beam="1">  1        4 0.13641637E+00 0.11697528E+04</pdfrwt>
<pdfrwt beam="2">  1       -4 0.59351955E-01 0.11697528E+04</pdfrwt>
<totfact> 0.20221895E+00</totfact>
</mgrwt>
</event>
<event>
 6    1  0.1001928E-005  0.1728615E+04  0.7818608E-02  0.8745210E-01
          2   -1    0    0  501    0  0.00000000000E+00  0.00000000000E+00  0.43115679934E+03  0.43115679934E+03  0.00000000000E+00 0. -1.
         -2   -1    0    0    0  501 -0.00000000000E+00 -0.00000000000E+00 -0.17326123329E+04  0.17326123329E+04  0.00000000000E+00 0.  1.
         23    2    1    2    0    0  0.35242833097E+03 -0.78447115488E+03 -0.72343055854E+03  0.11275676108E+04  0.91957721639E+02 0.  0.
         13    1    3    3    0    0  0.25432205129E+03 -0.46806932036E+03 -0.42030102838E+03  0.67854369712E+03  0.00000000000E+00 0. -1.
        -13    1    3    3    0    0  0.98106279674E+02 -0.31640183451E+03 -0.30312953015E+03  0.44902391367E+03  0.00000000000E+00 0.  1.
         22    1    1    2    0    0 -0.35242833097E+03  0.78447115488E+03 -0.57802497500E+03  0.10362015214E+04  0.00000000000E+00 0. -1.
<mgrwt>
<rscale>  0 0.17286152E+04</rscale>
<asrwt>0</asrwt>
<pdfrwt beam="1">  1        2 0.66331816E-01 0.17286152E+04</pdfrwt>
<pdfrwt beam="2">  1       -2 0.26655574E+00 0.17286152E+04</pdfrwt>
<totfact> 0.35296240E+00</totfact>
</mgrwt>
</event>
<event>
 6    1  0.1001928E-005  0.3946027E+04  0.7818608E-02  0.8015524E-01
         -1   -1    0    0    0  501 -0.00000000000E+00  0.00000000000E+00  0.29716885171E+04  0.29716885171E+04  0.00000000000E+00 0.  1.
          1   -1    0    0  501    0  0.00000000000E+00 -0.00000000000E+00 -0.13099564303E+04  0.13099564303E+04  0.00000000000E+00 0. -1.
         23    2    1    2    0    0 -0.19082331046E+04  0.40757103518E+03  0.52196149342E+03  0.20218784249E+04  0.89893460604E+02 0.  0.
         13    1    3    3    0    0 -0.11527521116E+04  0.25527337241E+03  0.36025669273E+03  0.12344175995E+04  0.00000000000E+00 0. -1.
        -13    1    3    3    0    0 -0.75548099308E+03  0.15229766277E+03  0.16170480068E+03  0.78746082541E+03  0.00000000000E+00 0.  1.
         22    1    1    2    0    0  0.19082331046E+04 -0.40757103518E+03  0.11397705934E+04  0.22597665224E+04  0.00000000000E+00 0.  1.
<mgrwt>
<rscale>  0 0.39460271E+04</rscale>
<asrwt>0</asrwt>
<pdfrwt beam="1">  1        1 0.20153176E+00 0.39460271E+04</pdfrwt>
<pdfrwt beam="2">  1       -1 0.45718285E+00 0.39460271E+04</pdfrwt>
<totfact> 0.20197527E-02</totfact>
</mgrwt>
</event>
<event>
 6    1  0.1001928E-005  0.3296333E+04  0.7818608E-02  0.8163829E-01
         -2   -1    0    0    0  501 -0.00000000000E+00  0.00000000000E+00  0.10646637185E+04  0.10646637185E+04  0.00000000000E+00 0.  1.
          2   -1    0    0  501    0  0.00000000000E+00 -0.00000000000E+00 -0.25514655376E+04  0.25514655376E+04  0.00000000000E+00 0. -1.
         23    2    1    2    0    0  0.37619605293E+03  0.15958761002E+04 -0.57380438861E+03  0.17394544560E+04  0.90035163960E+02 0.  0.
         11    1    3    3    0    0  0.15426122714E+03  0.51925151528E+03 -0.22008792932E+03  0.58468569244E+03  0.00000000000E+00 0. -1.
        -11    1    3    3    0    0  0.22193482579E+03  0.10766245849E+04 -0.35371645929E+03  0.11547687635E+04  0.00000000000E+00 0.  1.
         22    1    1    2    0    0 -0.37619605293E+03 -0.15958761002E+04 -0.91299743054E+03  0.18766748001E+04  0.00000000000E+00 0.  1.
<mgrwt>
<rscale>  0 0.32963330E+04</rscale>
<asrwt>0</asrwt>
<pdfrwt beam="1">  1        2 0.39253315E+00 0.32963330E+04</pdfrwt>
<pdfrwt beam="2">  1       -2 0.16379442E+00 0.32963330E+04</pdfrwt>
<totfact> 0.64113186E-01</totfact>
</mgrwt>
</event>
<event>
 6    1  0.1001928E-005  0.2447710E+04  0.7818608E-02  0.8421855E-01
         -1   -1    0    0    0  501 -0.00000000000E+00  0.00000000000E+00  0.16008987620E+04  0.16008987620E+04  0.00000000000E+00 0.  1.
          1   -1    0    0  501    0  0.00000000000E+00 -0.00000000000E+00 -0.93561252793E+03  0.93561252793E+03  0.00000000000E+00 0. -1.
         23    2    1    2    0    0  0.68987663700E+03  0.22641497143E+03 -0.68549148771E+03  0.10029553023E+04  0.93953419849E+02 0.  0.
         11    1    3    3    0    0  0.23864873142E+03  0.64511725566E+02 -0.29319069983E+03  0.38350458434E+03  0.00000000000E+00 0. -1.
        -11    1    3    3    0    0  0.45122790558E+03  0.16190324587E+03 -0.39230078788E+03  0.61945071795E+03  0.00000000000E+00 0.  1.
         22    1    1    2    0    0 -0.68987663700E+03 -0.22641497143E+03  0.13507777218E+04  0.15335559876E+04  0.00000000000E+00 0.  1.
<mgrwt>
<rscale>  0 0.24477099E+04</rscale>
<asrwt>0</asrwt>
<pdfrwt beam="1">  1        1 0.14394039E+00 0.24477099E+04</pdfrwt>
<pdfrwt beam="2">  1       -1 0.24629212E+00 0.24477099E+04</pdfrwt>
<totfact> 0.11198864E+00</totfact>
</mgrwt>
</event>
<event>
 6    1  0.1001928E-005  0.2526351E+04  0.7818608E-02  0.8393658E-01
          2   -1    0    0  501    0  0.00000000000E+00  0.00000000000E+00  0.11818314671E+04  0.11818314671E+04  0.00000000000E+00 0. -1.
         -2   -1    0    0    0  501 -0.00000000000E+00 -0.00000000000E+00 -0.13501181776E+04  0.13501181776E+04  0.00000000000E+00 0.  1.
         23    2    1    2    0    0  0.26272838126E+02  0.12062873809E+04 -0.45346768511E+03  0.12921320390E+04  0.90292620951E+02 0.  0.
         13    1    3    3    0    0  0.83142400667E+01  0.94225436578E+03 -0.31565351412E+03  0.99375528043E+03  0.00000000000E+00 0. -1.
        -13    1    3    3    0    0  0.17958598059E+02  0.26403301509E+03 -0.13781417098E+03  0.29837675853E+03  0.00000000000E+00 0.  1.
         22    1    1    2    0    0 -0.26272838126E+02 -0.12062873809E+04  0.28518097463E+03  0.12398176058E+04  0.00000000000E+00 0. -1.
<mgrwt>
<rscale>  0 0.25263508E+04</rscale>
<asrwt>0</asrwt>
<pdfrwt beam="1">  1        2 0.18182023E+00 0.25263508E+04</pdfrwt>
<pdfrwt beam="2">  1       -2 0.20771049E+00 0.25263508E+04</pdfrwt>
<totfact> 0.20476357E+00</totfact>
</mgrwt>
</event>
<event>
 6    1  0.1001928E-005  0.2439830E+04  0.7818608E-02  0.8424740E-01
          2   -1    0    0  501    0  0.00000000000E+00  0.00000000000E+00  0.19635665444E+04  0.19635665444E+04  0.00000000000E+00 0. -1.
         -2   -1    0    0    0  501 -0.00000000000E+00 -0.00000000000E+00 -0.75790309630E+03  0.75790309630E+03  0.00000000000E+00 0.  1.
         23    2    1    2    0    0 -0.44165135702E+03  0.10150393236E+04  0.11709599312E+04  0.16139656525E+04  0.91527140984E+02 0.  0.
         13    1    3    3    0    0 -0.18853655173E+03  0.34975647251E+03  0.37848861519E+03  0.54875245168E+03  0.00000000000E+00 0.  1.
        -13    1    3    3    0    0 -0.25311480530E+03  0.66528285109E+03  0.79247131599E+03  0.10652132009E+04  0.00000000000E+00 0. -1.
         22    1    1    2    0    0  0.44165135702E+03 -0.10150393236E+04  0.34703516882E+02  0.11075039881E+04  0.00000000000E+00 0.  1.
<mgrwt>
<rscale>  0 0.24398305E+04</rscale>
<asrwt>0</asrwt>
<pdfrwt beam="1">  1        2 0.30208716E+00 0.24398305E+04</pdfrwt>
<pdfrwt beam="2">  1       -2 0.11660048E+00 0.24398305E+04</pdfrwt>
<totfact> 0.35766998E+00</totfact>
</mgrwt>
</event>
<event>
 6    1  0.1001928E-005  0.1245108E+04  0.7818608E-02  0.9074265E-01
         -2   -1    0    0    0  501 -0.00000000000E+00  0.00000000000E+00  0.60806961862E+03  0.60806961862E+03  0.00000000000E+00 0.  1.
          2   -1    0    0  501    0  0.00000000000E+00 -0.00000000000E+00 -0.63738315401E+03  0.63738315401E+03  0.00000000000E+00 0. -1.
         23    2    1    2    0    0  0.10891127374E+02  0.13505031342E+03  0.58963021527E+03  0.61185308017E+03  0.91341103262E+02 0.  0.
         13    1    3    3    0    0  0.30319194105E+02  0.13910685179E+03  0.53858919468E+03  0.55708912247E+03  0.00000000000E+00 0. -1.
        -13    1    3    3    0    0 -0.19428066731E+02 -0.40565383695E+01  0.51041020591E+02  0.54763957704E+02  0.00000000000E+00 0.  1.
         22    1    1    2    0    0 -0.10891127374E+02 -0.13505031342E+03 -0.61894375065E+03  0.63359969246E+03  0.00000000000E+00 0. -1.
<mgrwt>
<rscale>  0 0.12451078E+04</rscale>
<asrwt>0</asrwt>
<pdfrwt beam="1">  1        2 0.98058946E-01 0.12451078E+04</pdfrwt>
<pdfrwt beam="2">  1       -2 0.93549172E-01 0.12451078E+04</pdfrwt>
<totfact> 0.43799698E+01</totfact>
</mgrwt>
</event>
<event>
 6    1  0.1001928E-005  0.7864907E+03  0.7818608E-02  0.9579780E-01
         -1   -1    0    0    0  501 -0.00000000000E+00  0.00000000000E+00  0.32533438986E+03  0.32533438986E+03  0.00000000000E+00 0.  1.
          1   -1    0    0  501    0  0.00000000000E+00 -0.00000000000E+00 -0.47533217437E+03  0.47533217437E+03  0.00000000000E+00 0. -1.
         23    2    1    2    0    0  0.11119562314E+03 -0.34606059415E+03  0.62090033314E+02  0.37982972661E+03  0.91066171286E+02 0.  0.
         13    1    3    3    0    0  0.93880550739E+02 -0.22750954350E+03  0.79771658443E+02  0.25872314871E+03  0.00000000000E+00 0. -1.
        -13    1    3    3    0    0  0.17315072398E+02 -0.11855105066E+03 -0.17681625129E+02  0.12110657790E+03  0.00000000000E+00 0.  1.
         22    1    1    2    0    0 -0.11119562314E+03  0.34606059415E+03 -0.21208781782E+03  0.42083683762E+03  0.00000000000E+00 0. -1.
<mgrwt>
<rscale>  0 0.78649069E+03</rscale>
<asrwt>0</asrwt>
<pdfrwt beam="1">  1        1 0.73128027E-01 0.78649069E+03</pdfrwt>
<pdfrwt beam="2">  1       -1 0.50051445E-01 0.78649069E+03</pdfrwt>
<totfact> 0.19263803E+02</totfact>
</mgrwt>
</event>
<event>
 6    1  0.1001928E-005  0.3149522E+04  0.7818608E-02  0.8202277E-01
          2   -1    0    0  501    0  0.00000000000E+00  0.00000000000E+00  0.31902536137E+04  0.31902536137E+04  0.00000000000E+00 0. -1.
         -2   -1    0    0    0  501 -0.00000000000E+00 -0.00000000000E+00 -0.77732779740E+03  0.77732779740E+03  0.00000000000E+00 0.  1.
         23    2    1    2    0    0  0.68536728339E+03 -0.39361217091E+03 -0.50643612669E+03  0.94312559090E+03  0.91375464750E+02 0.  0.
         13    1    3    3    0    0  0.58837482848E+03 -0.31397175595E+03 -0.39381050646E+03  0.77449978523E+03  0.00000000000E+00 0.  1.
        -13    1    3    3    0    0  0.96992454908E+02 -0.79640414959E+02 -0.11262562023E+03  0.16862580567E+03  0.00000000000E+00 0. -1.
         22    1    1    2    0    0 -0.68536728339E+03  0.39361217091E+03  0.29193619430E+04  0.30244558203E+04  0.00000000000E+00 0. -1.
<mgrwt>
<rscale>  0 0.31495224E+04</rscale>
<asrwt>0</asrwt>
<pdfrwt beam="1">  1        2 0.49080824E+00 0.31495224E+04</pdfrwt>
<pdfrwt beam="2">  1       -2 0.11958889E+00 0.31495224E+04</pdfrwt>
<totfact> 0.59537196E-01</totfact>
</mgrwt>
</event>
<event>
 6    1  0.1001928E-005  0.1961222E+04  0.7818608E-02  0.8624968E-01
         -1   -1    0    0    0  501 -0.00000000000E+00  0.00000000000E+00  0.55728854104E+03  0.55728854104E+03  0.00000000000E+00 0.  1.
          1   -1    0    0  501    0  0.00000000000E+00 -0.00000000000E+00 -0.17254944316E+04  0.17254944316E+04  0.00000000000E+00 0. -1.
         23    2    1    2    0    0 -0.24483845744E+03 -0.88498351366E+03 -0.19190207372E+03  0.94251776290E+03  0.91496654459E+02 0.  0.
         11    1    3    3    0    0 -0.11111646396E+03 -0.34220447405E+03 -0.32669559215E+02  0.36127284802E+03  0.00000000000E+00 0.  1.
        -11    1    3    3    0    0 -0.13372199349E+03 -0.54277903962E+03 -0.15923251451E+03  0.58124491487E+03  0.00000000000E+00 0. -1.
         22    1    1    2    0    0  0.24483845744E+03  0.88498351366E+03 -0.97630381683E+03  0.13402652097E+04  0.00000000000E+00 0. -1.
<mgrwt>
<rscale>  0 0.19612223E+04</rscale>
<asrwt>0</asrwt>
<pdfrwt beam="1">  1        1 0.26546068E+00 0.19612223E+04</pdfrwt>
<pdfrwt beam="2">  1       -1 0.85736698E-01 0.19612223E+04</pdfrwt>
<totfact> 0.57256267E+00</totfact>
</mgrwt>
</event>
<event>
 6    1  0.1001928E-005  0.6121746E+03  0.7818608E-02  0.9880465E-01
         -2   -1    0    0    0  501 -0.00000000000E+00  0.00000000000E+00  0.34892876133E+03  0.34892876133E+03  0.00000000000E+00 0.  1.
          2   -1    0    0  501    0  0.00000000000E+00 -0.00000000000E+00 -0.26850594071E+03  0.26850594071E+03  0.00000000000E+00 0. -1.
         23    2    1    2    0    0  0.15958858580E+02 -0.25993375353E+03 -0.10539086060E+03  0.29751757914E+03  0.97924639409E+02 0.  0.
         11    1    3    3    0    0  0.55797540689E+02 -0.13903778315E+03 -0.70226947179E+02  0.16545904266E+03  0.00000000000E+00 0. -1.
        -11    1    3    3    0    0 -0.39838682109E+02 -0.12089597039E+03 -0.35163913423E+02  0.13205853647E+03  0.00000000000E+00 0.  1.
         22    1    1    2    0    0 -0.15958858580E+02  0.25993375353E+03  0.18581368122E+03  0.31991712290E+03  0.00000000000E+00 0.  1.
<mgrwt>
<rscale>  0 0.61217463E+03</rscale>
<asrwt>0</asrwt>
<pdfrwt beam="1">  1        2 0.41308606E-01 0.61217463E+03</pdfrwt>
<pdfrwt beam="2">  1       -2 0.53681348E-01 0.61217463E+03</pdfrwt>
<totfact> 0.41007285E+02</totfact>
</mgrwt>
</event>
<event>
 6    1  0.1001928E-005  0.1920942E+04  0.7818608E-02  0.8644502E-01
         -1   -1    0    0    0  501 -0.00000000000E+00  0.00000000000E+00  0.56480538110E+03  0.56480538110E+03  0.00000000000E+00 0.  1.
          1   -1    0    0  501    0  0.00000000000E+00 -0.00000000000E+00 -0.16333137789E+04  0.16333137789E+04  0.00000000000E+00 0. -1.
         23    2    1    2    0    0 -0.74395557999E+03  0.18128146905E+03 -0.11949795052E+04  0.14220213459E+04  0.88520135292E+02 0.  0.
         13    1    3    3    0    0 -0.40223850896E+03  0.12950221391E+03 -0.71537204582E+03  0.83085727140E+03  0.00000000000E+00 0. -1.
        -13    1    3    3    0    0 -0.34171707102E+03  0.51779255144E+02 -0.47960745936E+03  0.59116407449E+03  0.00000000000E+00 0.  1.
         22    1    1    2    0    0  0.74395557999E+03 -0.18128146905E+03  0.12647110741E+03  0.77609781408E+03  0.00000000000E+00 0.  1.
<mgrwt>
<rscale>  0 0.19209419E+04</rscale>
<asrwt>0</asrwt>
<pdfrwt beam="1">  1        1 0.25127903E+00 0.19209419E+04</pdfrwt>
<pdfrwt beam="2">  1       -1 0.86893139E-01 0.19209419E+04</pdfrwt>
<totfact> 0.64513193E+00</totfact>
</mgrwt>
</event>
<event>
 6    1  0.1001928E-005  0.2630332E+04  0.7818608E-02  0.8357971E-01
          2   -1    0    0  501    0  0.00000000000E+00  0.00000000000E+00  0.96488275611E+03  0.96488275611E+03  0.00000000000E+00 0. -1.
         -2   -1    0    0    0  501 -0.00000000000E+00 -0.00000000000E+00 -0.17926129345E+04  0.17926129345E+04  0.00000000000E+00 0.  1.
         23    2    1    2    0    0 -0.52917954713E+02  0.13088316152E+04 -0.51762503262E+03  0.14113880767E+04  0.90775116742E+02 0.  0.
         11    1    3    3    0    0 -0.72736357903E+02  0.79391727208E+03 -0.33347266830E+03  0.86417546434E+03  0.00000000000E+00 0. -1.
        -11    1    3    3    0    0  0.19818403191E+02  0.51491434308E+03 -0.18415236433E+03  0.54721261234E+03  0.00000000000E+00 0.  1.
         22    1    1    2    0    0  0.52917954713E+02 -0.13088316152E+04 -0.31010514573E+03  0.13461076139E+04  0.00000000000E+00 0. -1.
<mgrwt>
<rscale>  0 0.26303318E+04</rscale>
<asrwt>0</asrwt>
<pdfrwt beam="1">  1        2 0.14844350E+00 0.26303318E+04</pdfrwt>
<pdfrwt beam="2">  1       -2 0.27578660E+00 0.26303318E+04</pdfrwt>
<totfact> 0.10464951E+00</totfact>
</mgrwt>
</event>
<event>
 6    1  0.1001928E-005  0.2813826E+04  0.7818608E-02  0.8298989E-01
         -1   -1    0    0    0  501 -0.00000000000E+00  0.00000000000E+00  0.22451113091E+04  0.22451113091E+04  0.00000000000E+00 0.  1.
          1   -1    0    0  501    0  0.00000000000E+00 -0.00000000000E+00 -0.88165088679E+03  0.88165088679E+03  0.00000000000E+00 0. -1.
         23    2    1    2    0    0  0.96186048143E+03 -0.73970102356E+03  0.14705532750E+04  0.19086480514E+04  0.89873575824E+02 0.  0.
         11    1    3    3    0    0  0.30991485047E+03 -0.18683794519E+03  0.44437262066E+03  0.57308172044E+03  0.00000000000E+00 0.  1.
        -11    1    3    3    0    0  0.65194563096E+03 -0.55286307837E+03  0.10261806543E+04  0.13355663310E+04  0.00000000000E+00 0. -1.
         22    1    1    2    0    0 -0.96186048143E+03  0.73970102356E+03 -0.10709285263E+03  0.12181141445E+04  0.00000000000E+00 0. -1.
<mgrwt>
<rscale>  0 0.28138261E+04</rscale>
<asrwt>0</asrwt>
<pdfrwt beam="1">  1        1 0.13563860E+00 0.28138261E+04</pdfrwt>
<pdfrwt beam="2">  1       -1 0.34540174E+00 0.28138261E+04</pdfrwt>
<totfact> 0.27151696E-01</totfact>
</mgrwt>
</event>
<event>
 6    1  0.1001928E-005  0.4044184E+04  0.7818608E-02  0.7995692E-01
         -2   -1    0    0    0  501 -0.00000000000E+00  0.00000000000E+00  0.15624511656E+04  0.15624511656E+04  0.00000000000E+00 0.  1.
          2   -1    0    0  501    0  0.00000000000E+00 -0.00000000000E+00 -0.26169500180E+04  0.26169500180E+04  0.00000000000E+00 0. -1.
         23    2    1    2    0    0 -0.11969193676E+04 -0.57213265475E+03  0.10480957937E+04  0.16932684451E+04  0.93281761275E+02 0.  0.
         13    1    3    3    0    0 -0.24952881183E+03 -0.16219891375E+03  0.23827947406E+03  0.38124824369E+03  0.00000000000E+00 0. -1.
        -13    1    3    3    0    0 -0.94739055580E+03 -0.40993374100E+03  0.80981631968E+03  0.13120202014E+04  0.00000000000E+00 0.  1.
         22    1    1    2    0    0  0.11969193676E+04  0.57213265475E+03 -0.21025946462E+04  0.24861327385E+04  0.00000000000E+00 0. -1.
<mgrwt>
<rscale>  0 0.40441843E+04</rscale>
<asrwt>0</asrwt>
<pdfrwt beam="1">  1        2 0.40260769E+00 0.40441843E+04</pdfrwt>
<pdfrwt beam="2">  1       -2 0.24037710E+00 0.40441843E+04</pdfrwt>
<totfact> 0.17223950E-01</totfact>
</mgrwt>
</event>
<event>
 6    1  0.1001928E-005  0.1412947E+04  0.7818608E-02  0.8944500E-01
         -2   -1    0    0    0  501 -0.00000000000E+00  0.00000000000E+00  0.46746996961E+03  0.46746996961E+03  0.00000000000E+00 0.  1.
          2   -1    0    0  501    0  0.00000000000E+00 -0.00000000000E+00 -0.10676722222E+04  0.10676722222E+04  0.00000000000E+00 0. -1.
         23    2    1    2    0    0  0.68479968578E+03  0.15021022267E+03 -0.23992692002E+03  0.74690870109E+03  0.93776117264E+02 0.  0.
         13    1    3    3    0    0  0.30142200636E+03  0.21802562622E+02 -0.85048342494E+02  0.31394871909E+03  0.00000000000E+00 0. -1.
        -13    1    3    3    0    0  0.38337767942E+03  0.12840766005E+03 -0.15487857753E+03  0.43295998200E+03  0.00000000000E+00 0.  1.
         22    1    1    2    0    0 -0.68479968578E+03 -0.15021022267E+03 -0.36027533257E+03  0.78823349073E+03  0.00000000000E+00 0. -1.
<mgrwt>
<rscale>  0 0.14129469E+04</rscale>
<asrwt>0</asrwt>
<pdfrwt beam="1">  1        2 0.16425726E+00 0.14129469E+04</pdfrwt>
<pdfrwt beam="2">  1       -2 0.71918457E-01 0.14129469E+04</pdfrwt>
<totfact> 0.38879126E+01</totfact>
</mgrwt>
</event>
<event>
 6    1  0.1001928E-005  0.1826793E+04  0.7818608E-02  0.8692179E-01
          2   -1    0    0  501    0  0.00000000000E+00  0.00000000000E+00  0.18810065492E+04  0.18810065492E+04  0.00000000000E+00 0. -1.
         -2   -1    0    0    0  501 -0.00000000000E+00 -0.00000000000E+00 -0.44353565406E+03  0.44353565406E+03  0.00000000000E+00 0.  1.
         23    2    1    2    0    0 -0.29000320918E+03  0.20755320360E+03  0.17873454912E+04  0.18249499429E+04  0.93049424473E+02 0.  0.
         13    1    3    3    0    0 -0.58211390068E+02  0.12907334129E+01  0.29463980475E+03  0.30033788717E+03  0.00000000000E+00 0. -1.
        -13    1    3    3    0    0 -0.23179181911E+03  0.20626247019E+03  0.14927056865E+04  0.15246120557E+04  0.00000000000E+00 0.  1.
         22    1    1    2    0    0  0.29000320918E+03 -0.20755320360E+03 -0.34987459607E+03  0.49959226038E+03  0.00000000000E+00 0.  1.
<mgrwt>
<rscale>  0 0.18267933E+04</rscale>
<asrwt>0</asrwt>
<pdfrwt beam="1">  1        2 0.28938562E+00 0.18267933E+04</pdfrwt>
<pdfrwt beam="2">  1       -2 0.68236256E-01 0.18267933E+04</pdfrwt>
<totfact> 0.14402753E+01</totfact>
</mgrwt>
</event>
<event>
 6    1  0.1001928E-005  0.1569584E+04  0.7818608E-02  0.8839455E-01
          2   -1    0    0  501    0  0.00000000000E+00  0.00000000000E+00  0.13586202502E+04  0.13586202502E+04  0.00000000000E+00 0. -1.
         -2   -1    0    0    0  501 -0.00000000000E+00 -0.00000000000E+00 -0.45332632596E+03  0.45332632596E+03  0.00000000000E+00 0.  1.
         23    2    1    2    0    0 -0.58823182294E+03  0.26622756512E+03 -0.55250598017E+02  0.65456177706E+03  0.92220916600E+02 0.  0.
         13    1    3    3    0    0 -0.29212723349E+03  0.84414462372E+02 -0.10895064113E+02  0.30427425857E+03  0.00000000000E+00 0. -1.
        -13    1    3    3    0    0 -0.29610458944E+03  0.18181310275E+03 -0.44355533903E+02  0.35028751849E+03  0.00000000000E+00 0.  1.
         22    1    1    2    0    0  0.58823182294E+03 -0.26622756512E+03  0.96054452221E+03  0.11573847991E+04  0.00000000000E+00 0. -1.
<mgrwt>
<rscale>  0 0.15695838E+04</rscale>
<asrwt>0</asrwt>
<pdfrwt beam="1">  1        2 0.20901850E+00 0.15695838E+04</pdfrwt>
<pdfrwt beam="2">  1       -2 0.69742512E-01 0.15695838E+04</pdfrwt>
<totfact> 0.27531509E+01</totfact>
</mgrwt>
</event>
<event>
 6    1  0.1001928E-005  0.5282973E+04  0.7818608E-02  0.7786279E-01
         -2   -1    0    0    0  501 -0.00000000000E+00  0.00000000000E+00  0.17847535322E+04  0.17847535322E+04  0.00000000000E+00 0.  1.
          2   -1    0    0  501    0  0.00000000000E+00 -0.00000000000E+00 -0.39094762275E+04  0.39094762275E+04  0.00000000000E+00 0. -1.
         23    2    1    2    0    0  0.14102551024E+04  0.47285204709E+03  0.12891894364E+04  0.19703601922E+04  0.88889662385E+02 0.  0.
         11    1    3    3    0    0  0.34068844605E+03  0.13736439215E+03  0.36055129782E+03  0.51471820627E+03  0.00000000000E+00 0. -1.
        -11    1    3    3    0    0  0.10695666563E+04  0.33548765494E+03  0.92863813855E+03  0.14556419860E+04  0.00000000000E+00 0.  1.
         22    1    1    2    0    0 -0.14102551024E+04 -0.47285204709E+03 -0.34139121317E+04  0.37238695675E+04  0.00000000000E+00 0. -1.
<mgrwt>
<rscale>  0 0.52829732E+04</rscale>
<asrwt>0</asrwt>
<pdfrwt beam="1">  1        2 0.60145788E+00 0.52829732E+04</pdfrwt>
<pdfrwt beam="2">  1       -2 0.27457747E+00 0.52829732E+04</pdfrwt>
<totfact> 0.13017786E-02</totfact>
</mgrwt>
</event>
<event>
 6    1  0.1001928E-005  0.1220806E+04  0.7818608E-02  0.9094837E-01
         -2   -1    0    0    0  501 -0.00000000000E+00  0.00000000000E+00  0.24443575799E+03  0.24443575799E+03  0.00000000000E+00 0.  1.
          2   -1    0    0  501    0  0.00000000000E+00 -0.00000000000E+00 -0.15242938777E+04  0.15242938777E+04  0.00000000000E+00 0. -1.
         23    2    1    2    0    0  0.19859414535E+03  0.55796381022E+03 -0.45104020106E+03  0.75005285165E+03  0.91535617195E+02 0.  0.
         13    1    3    3    0    0  0.17953928376E+03  0.48111135056E+03 -0.42537378345E+03  0.66681732258E+03  0.00000000000E+00 0.  1.
        -13    1    3    3    0    0  0.19054861583E+02  0.76852459664E+02 -0.25666417608E+02  0.83235529068E+02  0.00000000000E+00 0. -1.
         22    1    1    2    0    0 -0.19859414535E+03 -0.55796381022E+03 -0.82881791869E+03  0.10186767841E+04  0.00000000000E+00 0. -1.
<mgrwt>
<rscale>  0 0.12208062E+04</rscale>
<asrwt>0</asrwt>
<pdfrwt beam="1">  1        2 0.23450675E+00 0.12208062E+04</pdfrwt>
<pdfrwt beam="2">  1       -2 0.37605501E-01 0.12208062E+04</pdfrwt>
<totfact> 0.80806514E+01</totfact>
</mgrwt>
</event>
<event>
 6    1  0.1001928E-005  0.2020345E+04  0.7818608E-02  0.8597167E-01
         -2   -1    0    0    0  501 -0.00000000000E+00  0.00000000000E+00  0.22169208757E+04  0.22169208757E+04  0.00000000000E+00 0.  1.
          2   -1    0    0  501    0  0.00000000000E+00 -0.00000000000E+00 -0.46029983788E+03  0.46029983788E+03  0.00000000000E+00 0. -1.
         23    2    1    2    0    0  0.67730649125E+03 -0.73728247334E+03  0.72894918209E+03  0.12424946172E+04  0.10048101875E+03 0.  0.
         11    1    3    3    0    0  0.53155355273E+03 -0.55603806635E+03  0.60697845388E+03  0.97987262138E+03  0.00000000000E+00 0.  1.
        -11    1    3    3    0    0  0.14575293852E+03 -0.18124440698E+03  0.12197072821E+03  0.26262199582E+03  0.00000000000E+00 0. -1.
         22    1    1    2    0    0 -0.67730649125E+03  0.73728247334E+03  0.10276718558E+04  0.14347260964E+04  0.00000000000E+00 0.  1.
<mgrwt>
<rscale>  0 0.20203448E+04</rscale>
<asrwt>0</asrwt>
<pdfrwt beam="1">  1        2 0.70815361E-01 0.20203448E+04</pdfrwt>
<pdfrwt beam="2">  1       -2 0.34106474E+00 0.20203448E+04</pdfrwt>
<totfact> 0.11152599E+00</totfact>
</mgrwt>
</event>
<event>
 6    1  0.1001928E-005  0.1113127E+04  0.7818608E-02  0.9192491E-01
         -1   -1    0    0    0  501 -0.00000000000E+00  0.00000000000E+00  0.34666567123E+03  0.34666567123E+03  0.00000000000E+00 0.  1.
          1   -1    0    0  501    0  0.00000000000E+00 -0.00000000000E+00 -0.89354916434E+03  0.89354916434E+03  0.00000000000E+00 0. -1.
         23    2    1    2    0    0  0.53439096723E+03 -0.86250141902E+02 -0.40157119556E+03  0.67974319788E+03  0.88196355570E+02 0.  0.
         11    1    3    3    0    0  0.37416559060E+03 -0.99780932630E+02 -0.27170061622E+03  0.47305110565E+03  0.00000000000E+00 0. -1.
        -11    1    3    3    0    0  0.16022537663E+03  0.13530790728E+02 -0.12987057934E+03  0.20669209223E+03  0.00000000000E+00 0.  1.
         22    1    1    2    0    0 -0.53439096723E+03  0.86250141902E+02 -0.14531229755E+03  0.56047163769E+03  0.00000000000E+00 0. -1.
<mgrwt>
<rscale>  0 0.11131268E+04</rscale>
<asrwt>0</asrwt>
<pdfrwt beam="1">  1        1 0.13746910E+00 0.11131268E+04</pdfrwt>
<pdfrwt beam="2">  1       -1 0.53333181E-01 0.11131268E+04</pdfrwt>
<totfact> 0.65026798E+01</totfact>
</mgrwt>
</event>
<event>
 6    1  0.1001928E-005  0.4627060E+04  0.7818608E-02  0.7888762E-01
          2   -1    0    0  501    0  0.00000000000E+00  0.00000000000E+00  0.24095014194E+04  0.24095014194E+04  0.00000000000E+00 0. -1.
         -2   -1    0    0    0  501 -0.00000000000E+00 -0.00000000000E+00 -0.22213813110E+04  0.22213813110E+04  0.00000000000E+00 0.  1.
         23    2    1    2    0    0  0.16720339330E+04 -0.13333881085E+04 -0.78658036442E+03  0.22806354386E+04  0.94699592845E+02 0.  0.
         11    1    3    3    0    0  0.32739654639E+03 -0.24956946210E+03 -0.19047375242E+03  0.45360077751E+03  0.00000000000E+00 0.  1.
        -11    1    3    3    0    0  0.13446373866E+04 -0.10838186464E+04 -0.59610661200E+03  0.18270346610E+04  0.00000000000E+00 0. -1.
         22    1    1    2    0    0 -0.16720339330E+04  0.13333881085E+04  0.97470047291E+03  0.23502472919E+04  0.00000000000E+00 0. -1.
<mgrwt>
<rscale>  0 0.46270602E+04</rscale>
<asrwt>0</asrwt>
<pdfrwt beam="1">  1        2 0.37069253E+00 0.46270602E+04</pdfrwt>
<pdfrwt beam="2">  1       -2 0.34175097E+00 0.46270602E+04</pdfrwt>
<totfact> 0.51622026E-02</totfact>
</mgrwt>
</event>
<event>
 6    1  0.1001928E-005  0.6361689E+04  0.7818608E-02  0.7647106E-01
         -2   -1    0    0    0  501 -0.00000000000E+00  0.00000000000E+00  0.26375901259E+04  0.26375901259E+04  0.00000000000E+00 0.  1.
          2   -1    0    0  501    0  0.00000000000E+00 -0.00000000000E+00 -0.38359904767E+04  0.38359904767E+04  0.00000000000E+00 0. -1.
         23    2    1    2    0    0  0.19250668625E+04 -0.22686247777E+04  0.54342331440E+03  0.30259016024E+04  0.90723766474E+02 0.  0.
         13    1    3    3    0    0  0.17464151865E+04 -0.20357713267E+04  0.46641786836E+03  0.27224761755E+04  0.00000000000E+00 0.  1.
        -13    1    3    3    0    0  0.17865167601E+03 -0.23285345106E+03  0.77005446036E+02  0.30342542696E+03  0.00000000000E+00 0. -1.
         22    1    1    2    0    0 -0.19250668625E+04  0.22686247777E+04 -0.17418236653E+04  0.34476790001E+04  0.00000000000E+00 0. -1.
<mgrwt>
<rscale>  0 0.63616886E+04</rscale>
<asrwt>0</asrwt>
<pdfrwt beam="1">  1        2 0.59015238E+00 0.63616886E+04</pdfrwt>
<pdfrwt beam="2">  1       -2 0.40578310E+00 0.63616886E+04</pdfrwt>
<totfact> 0.20474306E-03</totfact>
</mgrwt>
</event>
<event>
 6    1  0.1001928E-005  0.6004002E+03  0.7818608E-02  0.9904576E-01
          2   -1    0    0  501    0  0.00000000000E+00  0.00000000000E+00  0.18243827620E+03  0.18243827620E+03  0.00000000000E+00 0. -1.
         -2   -1    0    0    0  501 -0.00000000000E+00 -0.00000000000E+00 -0.49397585562E+03  0.49397585562E+03  0.00000000000E+00 0.  1.
         23    2    1    2    0    0  0.20745127025E+02 -0.21301789467E+03  0.65701943114E+02  0.24268997858E+03  0.93673350704E+02 0.  0.
         11    1    3    3    0    0  0.99225882372E+01 -0.16074133430E+03  0.89494424362E+02  0.18424300883E+03  0.00000000000E+00 0. -1.
        -11    1    3    3    0    0  0.10822538787E+02 -0.52276560366E+02 -0.23792481249E+02  0.58446969754E+02  0.00000000000E+00 0.  1.
         22    1    1    2    0    0 -0.20745127025E+02  0.21301789467E+03 -0.37723952253E+03  0.43372415324E+03  0.00000000000E+00 0.  1.
<mgrwt>
<rscale>  0 0.60040021E+03</rscale>
<asrwt>0</asrwt>
<pdfrwt beam="1">  1        2 0.28067427E-01 0.60040021E+03</pdfrwt>
<pdfrwt beam="2">  1       -2 0.75996285E-01 0.60040021E+03</pdfrwt>
<totfact> 0.30085429E+02</totfact>
</mgrwt>
</event>
<event>
 6    1  0.1001928E-005  0.5149216E+04  0.7818608E-02  0.7805893E-01
         -1   -1    0    0    0  501 -0.00000000000E+00  0.00000000000E+00  0.30537208073E+04  0.30537208073E+04  0.00000000000E+00 0.  1.
          1   -1    0    0  501    0  0.00000000000E+00 -0.00000000000E+00 -0.21706652329E+04  0.21706652329E+04  0.00000000000E+00 0. -1.
         23    2    1    2    0    0 -0.23948291049E+04  0.67502962289E+03  0.11097795748E+04  0.27259314767E+04  0.90665745285E+02 0.  0.
         13    1    3    3    0    0 -0.49429064292E+03  0.10396810900E+03  0.23951568930E+03  0.55901732780E+03  0.00000000000E+00 0. -1.
        -13    1    3    3    0    0 -0.19005384620E+04  0.57106151389E+03  0.87026388548E+03  0.21669141489E+04  0.00000000000E+00 0.  1.
         22    1    1    2    0    0  0.23948291049E+04 -0.67502962289E+03 -0.22672400038E+03  0.24984545635E+04  0.00000000000E+00 0. -1.
<mgrwt>
<rscale>  0 0.51492157E+04</rscale>
<asrwt>0</asrwt>
<pdfrwt beam="1">  1        1 0.33394850E+00 0.51492157E+04</pdfrwt>
<pdfrwt beam="2">  1       -1 0.46980320E+00 0.51492157E+04</pdfrwt>
<totfact> 0.38683396E-03</totfact>
</mgrwt>
</event>
<event>
 6    1  0.1001928E-005  0.7764855E+03  0.7818608E-02  0.9594691E-01
          2   -1    0    0  501    0  0.00000000000E+00  0.00000000000E+00  0.57717324394E+03  0.57717324394E+03  0.00000000000E+00 0.  1.
         -2   -1    0    0    0  501 -0.00000000000E+00 -0.00000000000E+00 -0.26115632273E+03  0.26115632273E+03  0.00000000000E+00 0. -1.
         23    2    1    2    0    0  0.45632009776E+02  0.30109340529E+03 -0.90944512170E+02  0.33004113744E+03  0.88976002868E+02 0.  0.
         11    1    3    3    0    0  0.82055138575E+00  0.45047754012E+02  0.17573526074E+02  0.48361164841E+02  0.00000000000E+00 0. -1.
        -11    1    3    3    0    0  0.44811458390E+02  0.25604565128E+03 -0.10851803824E+03  0.28167997260E+03  0.00000000000E+00 0.  1.
         22    1    1    2    0    0 -0.45632009776E+02 -0.30109340529E+03  0.40696143338E+03  0.50828842923E+03  0.00000000000E+00 0.  1.
<mgrwt>
<rscale>  0 0.77648552E+03</rscale>
<asrwt>0</asrwt>
<pdfrwt beam="1">  1        2 0.88795883E-01 0.77648552E+03</pdfrwt>
<pdfrwt beam="2">  1       -2 0.40177896E-01 0.77648552E+03</pdfrwt>
<totfact> 0.30672253E+02</totfact>
</mgrwt>
</event>
<event>
 6    1  0.1001928E-005  0.3039291E+04  0.7818608E-02  0.8232599E-01
         -2   -1    0    0    0  501 -0.00000000000E+00  0.00000000000E+00  0.12022005079E+04  0.12022005079E+04  0.00000000000E+00 0. -1.
          2   -1    0    0  501    0  0.00000000000E+00 -0.00000000000E+00 -0.19209122748E+04  0.19209122748E+04  0.00000000000E+00 0.  1.
         23    2    1    2    0    0 -0.26326838425E+03 -0.19105277857E+03  0.11642379301E+04  0.12122724000E+04  0.91340066153E+02 0.  0.
         13    1    3    3    0    0 -0.13163233625E+03 -0.69403892705E+02  0.67570023520E+03  0.69189217377E+03  0.00000000000E+00 0. -1.
        -13    1    3    3    0    0 -0.13163604800E+03 -0.12164888586E+03  0.48853769489E+03  0.52038022627E+03  0.00000000000E+00 0.  1.
         22    1    1    2    0    0  0.26326838425E+03  0.19105277857E+03 -0.18829496971E+04  0.19108403827E+04  0.00000000000E+00 0.  1.
<mgrwt>
<rscale>  0 0.30392905E+04</rscale>
<asrwt>0</asrwt>
<pdfrwt beam="1">  1        2 0.29552496E+00 0.30392905E+04</pdfrwt>
<pdfrwt beam="2">  1       -2 0.18495393E+00 0.30392905E+04</pdfrwt>
<totfact> 0.10578303E+00</totfact>
</mgrwt>
</event>
<event>
 6    1  0.1001928E-005  0.2322044E+04  0.7818608E-02  0.8469280E-01
          1   -1    0    0  501    0  0.00000000000E+00  0.00000000000E+00  0.34412719324E+04  0.34412719324E+04  0.00000000000E+00 0. -1.
         -1   -1    0    0    0  501 -0.00000000000E+00 -0.00000000000E+00 -0.39170758730E+03  0.39170758730E+03  0.00000000000E+00 0.  1.
         23    2    1    2    0    0 -0.69591377666E+03 -0.91976557110E+03  0.17198715219E+04  0.20727671194E+04  0.90226320138E+02 0.  0.
         13    1    3    3    0    0 -0.34881082920E+03 -0.49763199770E+03  0.83497680160E+03  0.10327114112E+04  0.00000000000E+00 0.  1.
        -13    1    3    3    0    0 -0.34710294746E+03 -0.42213357340E+03  0.88489472033E+03  0.10400557081E+04  0.00000000000E+00 0. -1.
         22    1    1    2    0    0  0.69591377666E+03  0.91976557110E+03  0.13296928231E+04  0.17602124003E+04  0.00000000000E+00 0.  1.
<mgrwt>
<rscale>  0 0.23220442E+04</rscale>
<asrwt>0</asrwt>
<pdfrwt beam="1">  1        1 0.52942643E+00 0.23220442E+04</pdfrwt>
<pdfrwt beam="2">  1       -1 0.60262708E-01 0.23220442E+04</pdfrwt>
<totfact> 0.70117788E-01</totfact>
</mgrwt>
</event>
<event>
 6    1  0.1001928E-005  0.2740537E+04  0.7818608E-02  0.8321971E-01
          2   -1    0    0  501    0  0.00000000000E+00  0.00000000000E+00  0.20430623908E+04  0.20430623908E+04  0.00000000000E+00 0.  1.
         -2   -1    0    0    0  501 -0.00000000000E+00 -0.00000000000E+00 -0.91903017476E+03  0.91903017476E+03  0.00000000000E+00 0. -1.
         23    2    1    2    0    0  0.98527635798E+03  0.75744034631E+02  0.15861018307E+04  0.18712144839E+04  0.96010243872E+02 0.  0.
         13    1    3    3    0    0  0.84206631649E+03  0.34390832843E+02  0.13767461540E+04  0.16142144787E+04  0.00000000000E+00 0. -1.
        -13    1    3    3    0    0  0.14321004149E+03  0.41353201788E+02  0.20935567665E+03  0.25700000511E+03  0.00000000000E+00 0.  1.
         22    1    1    2    0    0 -0.98527635798E+03 -0.75744034631E+02 -0.46206961463E+03  0.10908780817E+04  0.00000000000E+00 0. -1.
<mgrwt>
<rscale>  0 0.27405372E+04</rscale>
<asrwt>0</asrwt>
<pdfrwt beam="1">  1        2 0.31431729E+00 0.27405372E+04</pdfrwt>
<pdfrwt beam="2">  1       -2 0.14138926E+00 0.27405372E+04</pdfrwt>
<totfact> 0.19351253E+00</totfact>
</mgrwt>
</event>
<event>
 6    1  0.1001928E-005  0.2224053E+04  0.7818608E-02  0.8508483E-01
         -2   -1    0    0    0  501 -0.00000000000E+00  0.00000000000E+00  0.56806546188E+03  0.56806546188E+03  0.00000000000E+00 0.  1.
          2   -1    0    0  501    0  0.00000000000E+00 -0.00000000000E+00 -0.21768674699E+04  0.21768674699E+04  0.00000000000E+00 0. -1.
         23    2    1    2    0    0 -0.54399754634E+03 -0.20147852196E+03 -0.19739201241E+04  0.20594855130E+04  0.92698417942E+02 0.  0.
         11    1    3    3    0    0 -0.85971973096E+02 -0.21169474782E+02 -0.20388029122E+03  0.22227572960E+03  0.00000000000E+00 0. -1.
        -11    1    3    3    0    0 -0.45802557324E+03 -0.18030904718E+03 -0.17700398329E+04  0.18372097834E+04  0.00000000000E+00 0.  1.
         22    1    1    2    0    0  0.54399754634E+03  0.20147852196E+03  0.36511811608E+03  0.68544741879E+03  0.00000000000E+00 0.  1.
<mgrwt>
<rscale>  0 0.22240533E+04</rscale>
<asrwt>0</asrwt>
<pdfrwt beam="1">  1        2 0.33490269E+00 0.22240533E+04</pdfrwt>
<pdfrwt beam="2">  1       -2 0.87394685E-01 0.22240533E+04</pdfrwt>
<totfact> 0.54877876E+00</totfact>
</mgrwt>
</event>
<event>
 6    1  0.1001928E-005  0.3145629E+04  0.7818608E-02  0.8203326E-01
          1   -1    0    0  501    0  0.00000000000E+00  0.00000000000E+00  0.60579629232E+03  0.60579629232E+03  0.00000000000E+00 0. -1.
         -1   -1    0    0    0  501 -0.00000000000E+00 -0.00000000000E+00 -0.40834606551E+04  0.40834606551E+04  0.00000000000E+00 0.  1.
         23    2    1    2    0    0 -0.11183616278E+04  0.83537612196E+00 -0.33860826311E+04  0.35671514969E+04  0.90998841367E+02 0.  0.
         11    1    3    3    0    0 -0.82445679819E+03 -0.31555470520E+02 -0.25669297187E+04  0.26962664818E+04  0.00000000000E+00 0. -1.
        -11    1    3    3    0    0 -0.29390482966E+03  0.32390846642E+02 -0.81915291234E+03  0.87088501516E+03  0.00000000000E+00 0.  1.
         22    1    1    2    0    0  0.11183616278E+04 -0.83537612196E+00 -0.91581731750E+02  0.11221054505E+04  0.00000000000E+00 0. -1.
<mgrwt>
<rscale>  0 0.31456289E+04</rscale>
<asrwt>0</asrwt>
<pdfrwt beam="1">  1        1 0.93199432E-01 0.31456289E+04</pdfrwt>
<pdfrwt beam="2">  1       -1 0.62822470E+00 0.31456289E+04</pdfrwt>
<totfact> 0.97371955E-03</totfact>
</mgrwt>
</event>
<event>
 6    1  0.1001928E-005  0.1429232E+04  0.7818608E-02  0.8932927E-01
         -3   -1    0    0    0  501 -0.00000000000E+00  0.00000000000E+00  0.46483675414E+03  0.46483675414E+03  0.00000000000E+00 0.  1.
          3   -1    0    0  501    0  0.00000000000E+00 -0.00000000000E+00 -0.10986133994E+04  0.10986133994E+04  0.00000000000E+00 0. -1.
         23    2    1    2    0    0  0.55486964974E+03 -0.22920216476E+03 -0.73643879544E+03  0.95439065098E+03  0.90030298936E+02 0.  0.
         13    1    3    3    0    0  0.16084327452E+03 -0.10943281283E+03 -0.25781383093E+03  0.32297688912E+03  0.00000000000E+00 0. -1.
        -13    1    3    3    0    0  0.39402637522E+03 -0.11976935193E+03 -0.47862496450E+03  0.63141376187E+03  0.00000000000E+00 0.  1.
         22    1    1    2    0    0 -0.55486964974E+03  0.22920216476E+03  0.10266215021E+03  0.60905950253E+03  0.00000000000E+00 0.  1.
<mgrwt>
<rscale>  0 0.14292318E+04</rscale>
<asrwt>0</asrwt>
<pdfrwt beam="1">  1        3 0.16901744E+00 0.14292318E+04</pdfrwt>
<pdfrwt beam="2">  1       -3 0.71513347E-01 0.14292318E+04</pdfrwt>
<totfact> 0.11182060E+00</totfact>
</mgrwt>
</event>
<event>
 6    1  0.1001928E-005  0.1190151E+04  0.7818608E-02  0.9121521E-01
         -2   -1    0    0    0  501 -0.00000000000E+00  0.00000000000E+00  0.14310776181E+04  0.14310776181E+04  0.00000000000E+00 0.  1.
          2   -1    0    0  501    0  0.00000000000E+00 -0.00000000000E+00 -0.24744624871E+03  0.24744624871E+03  0.00000000000E+00 0. -1.
         23    2    1    2    0    0  0.31443443808E+03  0.52299544797E+02 -0.10695258609E+03  0.34915890399E+03  0.94174446276E+02 0.  0.
         13    1    3    3    0    0  0.18342980463E+03  0.74313144124E+02 -0.47000688123E+02  0.20341583346E+03  0.00000000000E+00 0. -1.
        -13    1    3    3    0    0  0.13100463344E+03 -0.22013599327E+02 -0.59951897969E+02  0.14574307054E+03  0.00000000000E+00 0.  1.
         22    1    1    2    0    0 -0.31443443808E+03 -0.52299544797E+02  0.12905839554E+04  0.13293649628E+04  0.00000000000E+00 0.  1.
<mgrwt>
<rscale>  0 0.11901509E+04</rscale>
<asrwt>0</asrwt>
<pdfrwt beam="1">  1        2 0.38068655E-01 0.11901509E+04</pdfrwt>
<pdfrwt beam="2">  1       -2 0.22016578E+00 0.11901509E+04</pdfrwt>
<totfact> 0.13261511E+01</totfact>
</mgrwt>
</event>
<event>
 6    1  0.1001928E-005  0.1109300E+04  0.7818608E-02  0.9196175E-01
          1   -1    0    0  501    0  0.00000000000E+00  0.00000000000E+00  0.80967216926E+03  0.80967216926E+03  0.00000000000E+00 0. -1.
         -1   -1    0    0    0  501 -0.00000000000E+00 -0.00000000000E+00 -0.37995201882E+03  0.37995201882E+03  0.00000000000E+00 0.  1.
         23    2    1    2    0    0 -0.12442626548E+01  0.34003486878E+03 -0.24851317093E+03  0.43092418254E+03  0.91167948293E+02 0.  0.
         13    1    3    3    0    0 -0.30277810369E+02  0.25407154007E+03 -0.21497395659E+03  0.33418990901E+03  0.00000000000E+00 0. -1.
        -13    1    3    3    0    0  0.29033547714E+02  0.85963328718E+02 -0.33539214337E+02  0.96734273530E+02  0.00000000000E+00 0.  1.
         22    1    1    2    0    0  0.12442626548E+01 -0.34003486878E+03  0.67823332137E+03  0.75870000553E+03  0.00000000000E+00 0. -1.
<mgrwt>
<rscale>  0 0.11092999E+04</rscale>
<asrwt>0</asrwt>
<pdfrwt beam="1">  1        1 0.12456495E+00 0.11092999E+04</pdfrwt>
<pdfrwt beam="2">  1       -1 0.58454157E-01 0.11092999E+04</pdfrwt>
<totfact> 0.64046694E+01</totfact>
</mgrwt>
</event>
<event>
 6    1  0.1001928E-005  0.2624945E+04  0.7818608E-02  0.8359777E-01
          1   -1    0    0  501    0  0.00000000000E+00  0.00000000000E+00  0.14972559600E+04  0.14972559600E+04  0.00000000000E+00 0. -1.
         -1   -1    0    0    0  501 -0.00000000000E+00 -0.00000000000E+00 -0.11504938550E+04  0.11504938550E+04  0.00000000000E+00 0.  1.
         23    2    1    2    0    0 -0.10002796201E+04 -0.65196765303E+01 -0.68107262727E+03  0.12135092279E+04  0.90238008559E+02 0.  0.
         11    1    3    3    0    0 -0.59204961315E+03  0.59378528266E+00 -0.34926776570E+03  0.68739440584E+03  0.00000000000E+00 0.  1.
        -11    1    3    3    0    0 -0.40823000691E+03 -0.71134618129E+01 -0.33180486156E+03  0.52611482211E+03  0.00000000000E+00 0. -1.
         22    1    1    2    0    0  0.10002796201E+04  0.65196765303E+01  0.10278347323E+04  0.14342405870E+04  0.00000000000E+00 0. -1.
<mgrwt>
<rscale>  0 0.26249448E+04</rscale>
<asrwt>0</asrwt>
<pdfrwt beam="1">  1        1 0.23034707E+00 0.26249448E+04</pdfrwt>
<pdfrwt beam="2">  1       -1 0.17699905E+00 0.26249448E+04</pdfrwt>
<totfact> 0.12632172E+00</totfact>
</mgrwt>
</event>
<event>
 6    1  0.1001928E-005  0.1263255E+04  0.7818608E-02  0.9059222E-01
         -2   -1    0    0    0  501 -0.00000000000E+00  0.00000000000E+00  0.26658501117E+03  0.26658501117E+03  0.00000000000E+00 0.  1.
          2   -1    0    0  501    0  0.00000000000E+00 -0.00000000000E+00 -0.14965340547E+04  0.14965340547E+04  0.00000000000E+00 0. -1.
         23    2    1    2    0    0 -0.39290538594E+03 -0.46292646378E+03 -0.39029822157E+03  0.72692938440E+03  0.86128247270E+02 0.  0.
         11    1    3    3    0    0 -0.26454845393E+03 -0.35864592006E+03 -0.25649114349E+03  0.51419887897E+03  0.00000000000E+00 0.  1.
        -11    1    3    3    0    0 -0.12835693202E+03 -0.10428054372E+03 -0.13380707808E+03  0.21273050543E+03  0.00000000000E+00 0. -1.
         22    1    1    2    0    0  0.39290538594E+03  0.46292646378E+03 -0.83965082201E+03  0.10361896815E+04  0.00000000000E+00 0. -1.
<mgrwt>
<rscale>  0 0.12632554E+04</rscale>
<asrwt>0</asrwt>
<pdfrwt beam="1">  1        2 0.23023601E+00 0.12632554E+04</pdfrwt>
<pdfrwt beam="2">  1       -2 0.41013078E-01 0.12632554E+04</pdfrwt>
<totfact> 0.70518092E+01</totfact>
</mgrwt>
</event>
<event>
 6    1  0.1001928E-005  0.8885676E+03  0.7818608E-02  0.9439986E-01
          1   -1    0    0  501    0  0.00000000000E+00  0.00000000000E+00  0.57853499152E+03  0.57853499152E+03  0.00000000000E+00 0. -1.
         -1   -1    0    0    0  501 -0.00000000000E+00 -0.00000000000E+00 -0.34118608450E+03  0.34118608450E+03  0.00000000000E+00 0.  1.
         23    2    1    2    0    0  0.36557751298E+03  0.22725656890E+03  0.21055832377E+03  0.48843207610E+03  0.94544270854E+02 0.  0.
         11    1    3    3    0    0  0.12067367410E+03  0.88115562373E+02  0.25953901544E+02  0.15165781536E+03  0.00000000000E+00 0.  1.
        -11    1    3    3    0    0  0.24490383887E+03  0.13914100653E+03  0.18460442223E+03  0.33677426074E+03  0.00000000000E+00 0. -1.
         22    1    1    2    0    0 -0.36557751298E+03 -0.22725656890E+03  0.26790583249E+02  0.43128899992E+03  0.00000000000E+00 0.  1.
<mgrwt>
<rscale>  0 0.88856759E+03</rscale>
<asrwt>0</asrwt>
<pdfrwt beam="1">  1        1 0.89005383E-01 0.88856759E+03</pdfrwt>
<pdfrwt beam="2">  1       -1 0.52490167E-01 0.88856759E+03</pdfrwt>
<totfact> 0.13308216E+02</totfact>
</mgrwt>
</event>
<event>
 6    1  0.1001928E-005  0.1816365E+04  0.7818608E-02  0.8697645E-01
         -2   -1    0    0    0  501 -0.00000000000E+00  0.00000000000E+00  0.55581145251E+03  0.55581145251E+03  0.00000000000E+00 0.  1.
          2   -1    0    0  501    0  0.00000000000E+00 -0.00000000000E+00 -0.14839490050E+04  0.14839490050E+04  0.00000000000E+00 0. -1.
         23    2    1    2    0    0 -0.42178626515E+03 -0.48071296554E+03 -0.11858254369E+04  0.13502739424E+04  0.89828415080E+02 0.  0.
         11    1    3    3    0    0 -0.31150265877E+03 -0.35676955094E+03 -0.79015853992E+03  0.92123229270E+03  0.00000000000E+00 0.  1.
        -11    1    3    3    0    0 -0.11028360638E+03 -0.12394341460E+03 -0.39566689695E+03  0.42904164973E+03  0.00000000000E+00 0. -1.
         22    1    1    2    0    0  0.42178626515E+03  0.48071296554E+03  0.25768788440E+03  0.68948651508E+03  0.00000000000E+00 0.  1.
<mgrwt>
<rscale>  0 0.18163654E+04</rscale>
<asrwt>0</asrwt>
<pdfrwt beam="1">  1        2 0.22829984E+00 0.18163654E+04</pdfrwt>
<pdfrwt beam="2">  1       -2 0.85509457E-01 0.18163654E+04</pdfrwt>
<totfact> 0.14526360E+01</totfact>
</mgrwt>
</event>
<event>
 6    1  0.1001928E-005  0.2064487E+04  0.7818608E-02  0.8577051E-01
          1   -1    0    0  501    0  0.00000000000E+00  0.00000000000E+00  0.10815955799E+04  0.10815955799E+04  0.00000000000E+00 0. -1.
         -1   -1    0    0    0  501 -0.00000000000E+00 -0.00000000000E+00 -0.98514313579E+03  0.98514313579E+03  0.00000000000E+00 0.  1.
         23    2    1    2    0    0  0.45502570205E+03 -0.76466520311E+03  0.56828451826E+03  0.10595710193E+04  0.89343095946E+02 0.  0.
         13    1    3    3    0    0  0.22919587682E+03 -0.47071927871E+03  0.33831776366E+03  0.62335086308E+03  0.00000000000E+00 0.  1.
        -13    1    3    3    0    0  0.22582982523E+03 -0.29394592441E+03  0.22996675460E+03  0.43622015618E+03  0.00000000000E+00 0. -1.
         22    1    1    2    0    0 -0.45502570205E+03  0.76466520311E+03 -0.47183207419E+03  0.10071676964E+04  0.00000000000E+00 0.  1.
<mgrwt>
<rscale>  0 0.20644868E+04</rscale>
<asrwt>0</asrwt>
<pdfrwt beam="1">  1        1 0.16639932E+00 0.20644868E+04</pdfrwt>
<pdfrwt beam="2">  1       -1 0.15156048E+00 0.20644868E+04</pdfrwt>
<totfact> 0.40977134E+00</totfact>
</mgrwt>
</event>
<event>
 6    1  0.1001928E-005  0.2499361E+04  0.7818608E-02  0.8403213E-01
         -2   -1    0    0    0  501 -0.00000000000E+00  0.00000000000E+00  0.75196349523E+03  0.75196349523E+03  0.00000000000E+00 0.  1.
          2   -1    0    0  501    0  0.00000000000E+00 -0.00000000000E+00 -0.20768318629E+04  0.20768318629E+04  0.00000000000E+00 0. -1.
         23    2    1    2    0    0 -0.11472777061E+03 -0.77956035288E+03 -0.17587090702E+04  0.19292985209E+04  0.90875651104E+02 0.  0.
         13    1    3    3    0    0 -0.19818892071E+02 -0.31410629670E+03 -0.79001190589E+03  0.85039659310E+03  0.00000000000E+00 0. -1.
        -13    1    3    3    0    0 -0.94908878541E+02 -0.46545405618E+03 -0.96869716432E+03  0.10789019278E+04  0.00000000000E+00 0.  1.
         22    1    1    2    0    0  0.11472777061E+03  0.77956035288E+03  0.43384070250E+03  0.89949683728E+03  0.00000000000E+00 0.  1.
<mgrwt>
<rscale>  0 0.24993613E+04</rscale>
<asrwt>0</asrwt>
<pdfrwt beam="1">  1        2 0.31951259E+00 0.24993613E+04</pdfrwt>
<pdfrwt beam="2">  1       -2 0.11568669E+00 0.24993613E+04</pdfrwt>
<totfact> 0.31376129E+00</totfact>
</mgrwt>
</event>
<event>
 6    1  0.1001928E-005  0.3119804E+04  0.7818608E-02  0.8210324E-01
         -2   -1    0    0    0  501 -0.00000000000E+00  0.00000000000E+00  0.10046040389E+04  0.10046040389E+04  0.00000000000E+00 0.  1.
          2   -1    0    0  501    0  0.00000000000E+00 -0.00000000000E+00 -0.24221427101E+04  0.24221427101E+04  0.00000000000E+00 0. -1.
         23    2    1    2    0    0  0.65580455555E+03 -0.12276496948E+04 -0.14796710431E+04  0.20335260845E+04  0.92728380139E+02 0.  0.
         11    1    3    3    0    0  0.59279560733E+02 -0.17654398630E+03 -0.18897647111E+03  0.26531858596E+03  0.00000000000E+00 0.  1.
        -11    1    3    3    0    0  0.59652499482E+03 -0.10511057085E+04 -0.12906945720E+04  0.17682074986E+04  0.00000000000E+00 0. -1.
         22    1    1    2    0    0 -0.65580455555E+03  0.12276496948E+04  0.62132371896E+02  0.13932206645E+04  0.00000000000E+00 0.  1.
<mgrwt>
<rscale>  0 0.31198041E+04</rscale>
<asrwt>0</asrwt>
<pdfrwt beam="1">  1        2 0.37263734E+00 0.31198041E+04</pdfrwt>
<pdfrwt beam="2">  1       -2 0.15455447E+00 0.31198041E+04</pdfrwt>
<totfact> 0.90522591E-01</totfact>
</mgrwt>
</event>
<event>
 6    1  0.1001928E-005  0.1342334E+04  0.7818608E-02  0.8996651E-01
          1   -1    0    0  501    0  0.00000000000E+00  0.00000000000E+00  0.97926655953E+03  0.97926655953E+03  0.00000000000E+00 0. -1.
         -1   -1    0    0    0  501 -0.00000000000E+00 -0.00000000000E+00 -0.46000262357E+03  0.46000262357E+03  0.00000000000E+00 0.  1.
         23    2    1    2    0    0  0.43475237246E+03 -0.49297949937E+03  0.13079661739E+03  0.67576065679E+03  0.86638894227E+02 0.  0.
         13    1    3    3    0    0  0.18061377910E+03 -0.20762692222E+03  0.11406465178E+02  0.27542763747E+03  0.00000000000E+00 0.  1.
        -13    1    3    3    0    0  0.25413859335E+03 -0.28535257715E+03  0.11939015221E+03  0.40033301932E+03  0.00000000000E+00 0. -1.
         22    1    1    2    0    0 -0.43475237246E+03  0.49297949937E+03  0.38846731857E+03  0.76350852631E+03  0.00000000000E+00 0. -1.
<mgrwt>
<rscale>  0 0.13423341E+04</rscale>
<asrwt>0</asrwt>
<pdfrwt beam="1">  1        1 0.15065639E+00 0.13423341E+04</pdfrwt>
<pdfrwt beam="2">  1       -1 0.70769634E-01 0.13423341E+04</pdfrwt>
<totfact> 0.31044070E+01</totfact>
</mgrwt>
</event>
<event>
 6    1  0.1001928E-005  0.2024688E+04  0.7818608E-02  0.8595164E-01
          2   -1    0    0  501    0  0.00000000000E+00  0.00000000000E+00  0.24264539903E+04  0.24264539903E+04  0.00000000000E+00 0. -1.
         -2   -1    0    0    0  501 -0.00000000000E+00 -0.00000000000E+00 -0.42236148563E+03  0.42236148563E+03  0.00000000000E+00 0.  1.
         23    2    1    2    0    0 -0.10019154468E+04  0.10413367723E+03  0.11146778348E+04  0.15050383962E+04  0.89193684309E+02 0.  0.
         11    1    3    3    0    0 -0.46623107591E+03  0.93211474294E+02  0.52336674528E+03  0.70708736741E+03  0.00000000000E+00 0.  1.
        -11    1    3    3    0    0 -0.53568437085E+03  0.10922202939E+02  0.59131108952E+03  0.79795102875E+03  0.00000000000E+00 0. -1.
         22    1    1    2    0    0  0.10019154468E+04 -0.10413367723E+03  0.88941466990E+03  0.13437770798E+04  0.00000000000E+00 0. -1.
<mgrwt>
<rscale>  0 0.20246883E+04</rscale>
<asrwt>0</asrwt>
<pdfrwt beam="1">  1        2 0.37330061E+00 0.20246883E+04</pdfrwt>
<pdfrwt beam="2">  1       -2 0.64978691E-01 0.20246883E+04</pdfrwt>
<totfact> 0.77787156E+00</totfact>
</mgrwt>
</event>
<event>
 6    1  0.1001928E-005  0.1472382E+04  0.7818608E-02  0.8903029E-01
         -1   -1    0    0    0  501 -0.00000000000E+00  0.00000000000E+00  0.31255287456E+04  0.31255287456E+04  0.00000000000E+00 0.  1.
          1   -1    0    0  501    0  0.00000000000E+00 -0.00000000000E+00 -0.17340334656E+03  0.17340334656E+03  0.00000000000E+00 0. -1.
         23    2    1    2    0    0  0.40657934304E+03  0.32495086976E+03  0.26390830986E+04  0.26915645660E+04  0.94129601913E+02 0.  0.
         13    1    3    3    0    0  0.19156287760E+03  0.21298756664E+03  0.14462159087E+04  0.14743135671E+04  0.00000000000E+00 0.  1.
        -13    1    3    3    0    0  0.21501646544E+03  0.11196330312E+03  0.11928671899E+04  0.12172509989E+04  0.00000000000E+00 0. -1.
         22    1    1    2    0    0 -0.40657934304E+03 -0.32495086976E+03  0.31304230048E+03  0.60736752616E+03  0.00000000000E+00 0. -1.
<mgrwt>
<rscale>  0 0.14723819E+04</rscale>
<asrwt>0</asrwt>
<pdfrwt beam="1">  1        1 0.26677440E-01 0.14723819E+04</pdfrwt>
<pdfrwt beam="2">  1       -1 0.48085054E+00 0.14723819E+04</pdfrwt>
<totfact> 0.34798122E-01</totfact>
</mgrwt>
</event>
<event>
 6    1  0.1001928E-005  0.1665327E+04  0.7818608E-02  0.8781391E-01
          2   -1    0    0  501    0  0.00000000000E+00  0.00000000000E+00  0.12256908969E+04  0.12256908969E+04  0.00000000000E+00 0. -1.
         -2   -1    0    0    0  501 -0.00000000000E+00 -0.00000000000E+00 -0.56566336278E+03  0.56566336278E+03  0.00000000000E+00 0.  1.
         23    2    1    2    0    0  0.44863557314E+03 -0.69619014742E+03  0.39089174995E+03  0.92049912292E+03  0.92561743048E+02 0.  0.
         13    1    3    3    0    0  0.10008661434E+03 -0.15592773455E+03  0.13149993528E+03  0.22720700199E+03  0.00000000000E+00 0. -1.
        -13    1    3    3    0    0  0.34854895879E+03 -0.54026241288E+03  0.25939181466E+03  0.69329212094E+03  0.00000000000E+00 0.  1.
         22    1    1    2    0    0 -0.44863557314E+03  0.69619014742E+03  0.26913578414E+03  0.87085513672E+03  0.00000000000E+00 0. -1.
<mgrwt>
<rscale>  0 0.16653269E+04</rscale>
<asrwt>0</asrwt>
<pdfrwt beam="1">  1        2 0.18856783E+00 0.16653269E+04</pdfrwt>
<pdfrwt beam="2">  1       -2 0.87025133E-01 0.16653269E+04</pdfrwt>
<totfact> 0.19921539E+01</totfact>
</mgrwt>
</event>
<event>
 6    1  0.1001928E-005  0.1051186E+04  0.7818608E-02  0.9254120E-01
          3   -1    0    0  501    0  0.00000000000E+00  0.00000000000E+00  0.65680227494E+03  0.65680227494E+03  0.00000000000E+00 0. -1.
         -3   -1    0    0    0  501 -0.00000000000E+00 -0.00000000000E+00 -0.42059556534E+03  0.42059556534E+03  0.00000000000E+00 0.  1.
         23    2    1    2    0    0 -0.10991472501E+03  0.41278744709E+03  0.42626502335E+03  0.60985438147E+03  0.88010074547E+02 0.  0.
         13    1    3    3    0    0 -0.49503782286E+02  0.28483252625E+03  0.32994058544E+03  0.43868095741E+03  0.00000000000E+00 0. -1.
        -13    1    3    3    0    0 -0.60410942721E+02  0.12795492084E+03  0.96324437904E+02  0.17117342406E+03  0.00000000000E+00 0.  1.
         22    1    1    2    0    0  0.10991472501E+03 -0.41278744709E+03 -0.19005831375E+03  0.46754345881E+03  0.00000000000E+00 0.  1.
<mgrwt>
<rscale>  0 0.10511862E+04</rscale>
<asrwt>0</asrwt>
<pdfrwt beam="1">  1        3 0.10104650E+00 0.10511862E+04</pdfrwt>
<pdfrwt beam="2">  1       -3 0.64707010E-01 0.10511862E+04</pdfrwt>
<totfact> 0.51525625E+00</totfact>
</mgrwt>
</event>
<event>
 6    1  0.1001928E-005  0.3313121E+04  0.7818608E-02  0.8159565E-01
          2   -1    0    0  501    0  0.00000000000E+00  0.00000000000E+00  0.25952949774E+04  0.25952949774E+04  0.00000000000E+00 0.  1.
         -2   -1    0    0    0  501 -0.00000000000E+00 -0.00000000000E+00 -0.10573724236E+04  0.10573724236E+04  0.00000000000E+00 0. -1.
         23    2    1    2    0    0 -0.63334624661E+03  0.77558906751E+03 -0.68364476301E+03  0.12158606353E+04  0.91000290070E+02 0.  0.
         13    1    3    3    0    0 -0.49366743608E+03  0.54256350131E+03 -0.51048687556E+03  0.89368872686E+03  0.00000000000E+00 0. -1.
        -13    1    3    3    0    0 -0.13967881053E+03  0.23302556619E+03 -0.17315788746E+03  0.32217190846E+03  0.00000000000E+00 0.  1.
         22    1    1    2    0    0  0.63334624661E+03 -0.77558906751E+03  0.22215673168E+04  0.24368067656E+04  0.00000000000E+00 0. -1.
<mgrwt>
<rscale>  0 0.33131214E+04</rscale>
<asrwt>0</asrwt>
<pdfrwt beam="1">  1        2 0.39927615E+00 0.33131214E+04</pdfrwt>
<pdfrwt beam="2">  1       -2 0.16267268E+00 0.33131214E+04</pdfrwt>
<totfact> 0.61498718E-01</totfact>
</mgrwt>
</event>
<event>
 6    1  0.1001928E-005  0.1412494E+04  0.7818608E-02  0.8944824E-01
         -2   -1    0    0    0  501 -0.00000000000E+00  0.00000000000E+00  0.31891370031E+03  0.31891370031E+03  0.00000000000E+00 0.  1.
          2   -1    0    0  501    0  0.00000000000E+00 -0.00000000000E+00 -0.15640108725E+04  0.15640108725E+04  0.00000000000E+00 0. -1.
         23    2    1    2    0    0  0.61338017943E+03  0.81512745202E+02 -0.10716728596E+04  0.12403083854E+04  0.83681542434E+02 0.  0.
         13    1    3    3    0    0  0.44962283955E+03  0.60230196567E+02 -0.70748273154E+03  0.84042857510E+03  0.00000000000E+00 0. -1.
        -13    1    3    3    0    0  0.16375733988E+03  0.21282548635E+02 -0.36419012810E+03  0.39987981025E+03  0.00000000000E+00 0.  1.
         22    1    1    2    0    0 -0.61338017943E+03 -0.81512745202E+02 -0.17342431251E+03  0.64261618741E+03  0.00000000000E+00 0.  1.
<mgrwt>
<rscale>  0 0.14124935E+04</rscale>
<asrwt>0</asrwt>
<pdfrwt beam="1">  1        2 0.24061706E+00 0.14124935E+04</pdfrwt>
<pdfrwt beam="2">  1       -2 0.49063646E-01 0.14124935E+04</pdfrwt>
<totfact> 0.44670558E+01</totfact>
</mgrwt>
</event>
<event>
 6    1  0.1001928E-005  0.1674320E+04  0.7818608E-02  0.8776148E-01
         -2   -1    0    0    0  501 -0.00000000000E+00  0.00000000000E+00  0.40019311896E+03  0.40019311896E+03  0.00000000000E+00 0.  1.
          2   -1    0    0  501    0  0.00000000000E+00 -0.00000000000E+00 -0.17512468562E+04  0.17512468562E+04  0.00000000000E+00 0. -1.
         23    2    1    2    0    0  0.12597470459E+03  0.82029691790E+03 -0.79100906488E+03  0.11502373509E+04  0.92703630093E+02 0.  0.
         11    1    3    3    0    0  0.77436734067E+02  0.67909704332E+03 -0.68037423868E+03  0.96440569611E+03  0.00000000000E+00 0. -1.
        -11    1    3    3    0    0  0.48537970523E+02  0.14119987458E+03 -0.11063482620E+03  0.18583165482E+03  0.00000000000E+00 0.  1.
         22    1    1    2    0    0 -0.12597470459E+03 -0.82029691790E+03 -0.56004467236E+03  0.10012026242E+04  0.00000000000E+00 0.  1.
<mgrwt>
<rscale>  0 0.16743201E+04</rscale>
<asrwt>0</asrwt>
<pdfrwt beam="1">  1        2 0.26942259E+00 0.16743201E+04</pdfrwt>
<pdfrwt beam="2">  1       -2 0.61568173E-01 0.16743201E+04</pdfrwt>
<totfact> 0.21467974E+01</totfact>
</mgrwt>
</event>
<event>
 6    1  0.1001928E-005  0.2047241E+04  0.7818608E-02  0.8584847E-01
         -1   -1    0    0    0  501 -0.00000000000E+00  0.00000000000E+00  0.82012003915E+03  0.82012003915E+03  0.00000000000E+00 0.  1.
          1   -1    0    0  501    0  0.00000000000E+00 -0.00000000000E+00 -0.12776162228E+04  0.12776162228E+04  0.00000000000E+00 0. -1.
         23    2    1    2    0    0  0.25837346686E+03  0.96905445890E+03 -0.42877982611E+03  0.10944177573E+04  0.89859309091E+02 0.  0.
         13    1    3    3    0    0  0.24954365535E+03  0.81703166589E+03 -0.37422607251E+03  0.93266174594E+03  0.00000000000E+00 0.  1.
        -13    1    3    3    0    0  0.88298115132E+01  0.15202279301E+03 -0.54553753601E+02  0.16175601132E+03  0.00000000000E+00 0. -1.
         22    1    1    2    0    0 -0.25837346686E+03 -0.96905445890E+03 -0.28716357552E+02  0.10033185047E+04  0.00000000000E+00 0. -1.
<mgrwt>
<rscale>  0 0.20472407E+04</rscale>
<asrwt>0</asrwt>
<pdfrwt beam="1">  1        1 0.19655634E+00 0.20472407E+04</pdfrwt>
<pdfrwt beam="2">  1       -1 0.12617231E+00 0.20472407E+04</pdfrwt>
<totfact> 0.47415722E+00</totfact>
</mgrwt>
</event>
<event>
 6    1  0.1001928E-005  0.2129441E+04  0.7818608E-02  0.8548384E-01
          1   -1    0    0  501    0  0.00000000000E+00  0.00000000000E+00  0.53223524540E+03  0.53223524540E+03  0.00000000000E+00 0. -1.
         -1   -1    0    0    0  501 -0.00000000000E+00 -0.00000000000E+00 -0.21299401847E+04  0.21299401847E+04  0.00000000000E+00 0.  1.
         23    2    1    2    0    0 -0.68578793374E+03 -0.69769952195E+02 -0.18116307522E+04  0.19404156434E+04  0.89632305788E+02 0.  0.
         11    1    3    3    0    0 -0.47922551351E+03 -0.36611145928E+02 -0.11466875244E+04  0.12433381468E+04  0.00000000000E+00 0. -1.
        -11    1    3    3    0    0 -0.20656242023E+03 -0.33158806267E+02 -0.66494322788E+03  0.69707749655E+03  0.00000000000E+00 0.  1.
         22    1    1    2    0    0  0.68578793374E+03  0.69769952195E+02  0.21392581294E+03  0.72175978673E+03  0.00000000000E+00 0. -1.
<mgrwt>
<rscale>  0 0.21294405E+04</rscale>
<asrwt>0</asrwt>
<pdfrwt beam="1">  1        1 0.81882346E-01 0.21294405E+04</pdfrwt>
<pdfrwt beam="2">  1       -1 0.32768310E+00 0.21294405E+04</pdfrwt>
<totfact> 0.81318751E-01</totfact>
</mgrwt>
</event>
<event>
 6    1  0.1001928E-005  0.2872831E+04  0.7818608E-02  0.8281007E-01
         -2   -1    0    0    0  501 -0.00000000000E+00  0.00000000000E+00  0.22050303125E+04  0.22050303125E+04  0.00000000000E+00 0.  1.
          2   -1    0    0  501    0  0.00000000000E+00 -0.00000000000E+00 -0.93571929975E+03  0.93571929975E+03  0.00000000000E+00 0. -1.
         23    2    1    2    0    0 -0.57794585351E+03 -0.59938048682E+03  0.19130173619E+04  0.20883066250E+04  0.90059733268E+02 0.  0.
         11    1    3    3    0    0 -0.52793373222E+03 -0.57079270456E+03  0.17362262400E+04  0.19023669187E+04  0.00000000000E+00 0.  1.
        -11    1    3    3    0    0 -0.50012121291E+02 -0.28587782261E+02  0.17679112193E+03  0.18593970626E+03  0.00000000000E+00 0. -1.
         22    1    1    2    0    0  0.57794585351E+03  0.59938048682E+03 -0.64370634911E+03  0.10524429873E+04  0.00000000000E+00 0. -1.
<mgrwt>
<rscale>  0 0.28728310E+04</rscale>
<asrwt>0</asrwt>
<pdfrwt beam="1">  1        2 0.14395682E+00 0.28728310E+04</pdfrwt>
<pdfrwt beam="2">  1       -2 0.33923543E+00 0.28728310E+04</pdfrwt>
<totfact> 0.43630208E-01</totfact>
</mgrwt>
</event>
<event>
 6    1  0.1001928E-005  0.1513693E+04  0.7818608E-02  0.8875398E-01
          1   -1    0    0  501    0  0.00000000000E+00  0.00000000000E+00  0.11228544659E+04  0.11228544659E+04  0.00000000000E+00 0. -1.
         -1   -1    0    0    0  501 -0.00000000000E+00 -0.00000000000E+00 -0.51014303967E+03  0.51014303967E+03  0.00000000000E+00 0.  1.
         23    2    1    2    0    0  0.47568513032E+03  0.54031699774E+03  0.65399124339E+02  0.72869138644E+03  0.92169897254E+02 0.  0.
         11    1    3    3    0    0  0.33830754769E+03  0.32695741346E+03  0.64843244508E+02  0.47492925095E+03  0.00000000000E+00 0. -1.
        -11    1    3    3    0    0  0.13737758263E+03  0.21335958427E+03  0.55587983072E+00  0.25376213550E+03  0.00000000000E+00 0.  1.
         22    1    1    2    0    0 -0.47568513032E+03 -0.54031699774E+03  0.54731230184E+03  0.90430611908E+03  0.00000000000E+00 0. -1.
<mgrwt>
<rscale>  0 0.15136927E+04</rscale>
<asrwt>0</asrwt>
<pdfrwt beam="1">  1        1 0.17274684E+00 0.15136927E+04</pdfrwt>
<pdfrwt beam="2">  1       -1 0.78483545E-01 0.15136927E+04</pdfrwt>
<totfact> 0.19135636E+01</totfact>
</mgrwt>
</event>
<event>
 6    1  0.1001928E-005  0.3382446E+04  0.7818608E-02  0.8142228E-01
          1   -1    0    0  501    0  0.00000000000E+00  0.00000000000E+00  0.19460452458E+04  0.19460452458E+04  0.00000000000E+00 0. -1.
         -1   -1    0    0    0  501 -0.00000000000E+00 -0.00000000000E+00 -0.14697679056E+04  0.14697679056E+04  0.00000000000E+00 0.  1.
         23    2    1    2    0    0 -0.11844404409E+04 -0.11543761453E+04 -0.11180096323E+03  0.16604443771E+04  0.95355289814E+02 0.  0.
         11    1    3    3    0    0 -0.30240949802E+03 -0.32124885693E+03 -0.67631182260E+02  0.44634774491E+03  0.00000000000E+00 0.  1.
        -11    1    3    3    0    0 -0.88203094289E+03 -0.83312728834E+03 -0.44169780969E+02  0.12140966322E+04  0.00000000000E+00 0. -1.
         22    1    1    2    0    0  0.11844404409E+04  0.11543761453E+04  0.58807830337E+03  0.17553687743E+04  0.00000000000E+00 0. -1.
<mgrwt>
<rscale>  0 0.33824458E+04</rscale>
<asrwt>0</asrwt>
<pdfrwt beam="1">  1        1 0.29939158E+00 0.33824458E+04</pdfrwt>
<pdfrwt beam="2">  1       -1 0.22611814E+00 0.33824458E+04</pdfrwt>
<totfact> 0.26759459E-01</totfact>
</mgrwt>
</event>
<event>
 6    1  0.1001928E-005  0.2116018E+04  0.7818608E-02  0.8554220E-01
         -1   -1    0    0    0  501 -0.00000000000E+00  0.00000000000E+00  0.42727964059E+03  0.42727964059E+03  0.00000000000E+00 0.  1.
          1   -1    0    0  501    0  0.00000000000E+00 -0.00000000000E+00 -0.26197890858E+04  0.26197890858E+04  0.00000000000E+00 0. -1.
         23    2    1    2    0    0 -0.38781666903E+03 -0.65375101166E+03 -0.21542513098E+04  0.22859801383E+04  0.84346503750E+02 0.  0.
         13    1    3    3    0    0 -0.29751212622E+03 -0.45564050543E+03 -0.16250716175E+04  0.17137617972E+04  0.00000000000E+00 0.  1.
        -13    1    3    3    0    0 -0.90304542813E+02 -0.19811050623E+03 -0.52917969231E+03  0.57221834109E+03  0.00000000000E+00 0. -1.
         22    1    1    2    0    0  0.38781666903E+03  0.65375101166E+03 -0.38258135376E+02  0.76108858811E+03  0.00000000000E+00 0.  1.
<mgrwt>
<rscale>  0 0.21160175E+04</rscale>
<asrwt>0</asrwt>
<pdfrwt beam="1">  1        1 0.40304446E+00 0.21160175E+04</pdfrwt>
<pdfrwt beam="2">  1       -1 0.65735331E-01 0.21160175E+04</pdfrwt>
<totfact> 0.24085764E+00</totfact>
</mgrwt>
</event>
<event>
 6    1  0.1001928E-005  0.2433330E+04  0.7818608E-02  0.8427130E-01
         -1   -1    0    0    0  501 -0.00000000000E+00  0.00000000000E+00  0.91858136167E+03  0.91858136167E+03  0.00000000000E+00 0. -1.
          1   -1    0    0  501    0  0.00000000000E+00 -0.00000000000E+00 -0.16114775717E+04  0.16114775717E+04  0.00000000000E+00 0.  1.
         23    2    1    2    0    0 -0.11938609242E+04 -0.22385005000E+03 -0.32235397803E+03  0.12601320469E+04  0.92778970481E+02 0.  0.
         13    1    3    3    0    0 -0.40744309927E+03 -0.11991402150E+03 -0.12396637223E+03  0.44244424862E+03  0.00000000000E+00 0. -1.
        -13    1    3    3    0    0 -0.78641782492E+03 -0.10393602850E+03 -0.19838760580E+03  0.81768779831E+03  0.00000000000E+00 0.  1.
         22    1    1    2    0    0  0.11938609242E+04  0.22385005000E+03 -0.37054223199E+03  0.12699268864E+04  0.00000000000E+00 0. -1.
<mgrwt>
<rscale>  0 0.24333296E+04</rscale>
<asrwt>0</asrwt>
<pdfrwt beam="1">  1        1 0.24791962E+00 0.24333296E+04</pdfrwt>
<pdfrwt beam="2">  1       -1 0.14132021E+00 0.24333296E+04</pdfrwt>
<totfact> 0.20024201E+00</totfact>
</mgrwt>
</event>
<event>
 6    1  0.1001928E-005  0.1472201E+04  0.7818608E-02  0.8903153E-01
          2   -1    0    0  501    0  0.00000000000E+00  0.00000000000E+00  0.19042916345E+04  0.19042916345E+04  0.00000000000E+00 0. -1.
         -2   -1    0    0    0  501 -0.00000000000E+00 -0.00000000000E+00 -0.28453812899E+03  0.28453812899E+03  0.00000000000E+00 0.  1.
         23    2    1    2    0    0  0.21369929507E+03  0.57030139361E+03  0.14205220753E+04  0.15480456882E+04  0.87472385047E+02 0.  0.
         13    1    3    3    0    0  0.15492615499E+02  0.14392581081E+03  0.35607853093E+03  0.38437817360E+03  0.00000000000E+00 0. -1.
        -13    1    3    3    0    0  0.19820667957E+03  0.42637558279E+03  0.10644435444E+04  0.11636675146E+04  0.00000000000E+00 0.  1.
         22    1    1    2    0    0 -0.21369929507E+03 -0.57030139361E+03  0.19923143014E+03  0.64078407519E+03  0.00000000000E+00 0.  1.
<mgrwt>
<rscale>  0 0.14722005E+04</rscale>
<asrwt>0</asrwt>
<pdfrwt beam="1">  1        2 0.29296794E+00 0.14722005E+04</pdfrwt>
<pdfrwt beam="2">  1       -2 0.43775098E-01 0.14722005E+04</pdfrwt>
<totfact> 0.36189690E+01</totfact>
</mgrwt>
</event>
<event>
 6    1  0.1001928E-005  0.5146218E+04  0.7818608E-02  0.7806339E-01
          2   -1    0    0  501    0  0.00000000000E+00  0.00000000000E+00  0.30564275847E+04  0.30564275847E+04  0.00000000000E+00 0. -1.
         -2   -1    0    0    0  501 -0.00000000000E+00 -0.00000000000E+00 -0.21662187461E+04  0.21662187461E+04  0.00000000000E+00 0.  1.
         23    2    1    2    0    0 -0.20593966075E+04 -0.93489805986E+03 -0.79835361049E+03  0.24001665852E+04  0.91007580874E+02 0.  0.
         11    1    3    3    0    0 -0.17759209593E+04 -0.80279767150E+03 -0.65431788255E+03  0.20558480602E+04  0.00000000000E+00 0. -1.
        -11    1    3    3    0    0 -0.28347564822E+03 -0.13210038836E+03 -0.14403572794E+03  0.34431852500E+03  0.00000000000E+00 0.  1.
         22    1    1    2    0    0  0.20593966075E+04  0.93489805986E+03  0.16885624491E+04  0.28224797456E+04  0.00000000000E+00 0.  1.
<mgrwt>
<rscale>  0 0.51462183E+04</rscale>
<asrwt>0</asrwt>
<pdfrwt beam="1">  1        2 0.47021963E+00 0.51462183E+04</pdfrwt>
<pdfrwt beam="2">  1       -2 0.33326442E+00 0.51462183E+04</pdfrwt>
<totfact> 0.22855726E-02</totfact>
</mgrwt>
</event>
<event>
 6    1  0.1001928E-005  0.2334952E+04  0.7818608E-02  0.8464266E-01
          2   -1    0    0  501    0  0.00000000000E+00  0.00000000000E+00  0.23436203622E+04  0.23436203622E+04  0.00000000000E+00 0. -1.
         -2   -1    0    0    0  501 -0.00000000000E+00 -0.00000000000E+00 -0.58157892743E+03  0.58157892743E+03  0.00000000000E+00 0.  1.
         23    2    1    2    0    0  0.33335387813E+03  0.10155709905E+04  0.29974037010E+03  0.11138921239E+04  0.91663129603E+02 0.  0.
         11    1    3    3    0    0  0.16427417168E+03  0.64266742396E+03  0.18938747715E+03  0.68983696466E+03  0.00000000000E+00 0.  1.
        -11    1    3    3    0    0  0.16907970645E+03  0.37290356658E+03  0.11035289294E+03  0.42405515924E+03  0.00000000000E+00 0. -1.
         22    1    1    2    0    0 -0.33335387813E+03 -0.10155709905E+04  0.14623010647E+04  0.18113071657E+04  0.00000000000E+00 0. -1.
<mgrwt>
<rscale>  0 0.23349520E+04</rscale>
<asrwt>0</asrwt>
<pdfrwt beam="1">  1        2 0.36055698E+00 0.23349520E+04</pdfrwt>
<pdfrwt beam="2">  1       -2 0.89473682E-01 0.23349520E+04</pdfrwt>
<totfact> 0.41460100E+00</totfact>
</mgrwt>
</event>
<event>
 6    1  0.1001928E-005  0.7347289E+03  0.7818608E-02  0.9659618E-01
          2   -1    0    0  501    0  0.00000000000E+00  0.00000000000E+00  0.17363332959E+04  0.17363332959E+04  0.00000000000E+00 0. -1.
         -2   -1    0    0    0  501 -0.00000000000E+00 -0.00000000000E+00 -0.77725066603E+02  0.77725066603E+02  0.00000000000E+00 0.  1.
         23    2    1    2    0    0  0.34920604251E+03  0.66324016874E+02  0.10065405676E+04  0.10714036845E+04  0.91859705909E+02 0.  0.
         13    1    3    3    0    0  0.23960714107E+03  0.73073768372E+02  0.78747437307E+03  0.82635781955E+03  0.00000000000E+00 0. -1.
        -13    1    3    3    0    0  0.10959890144E+03 -0.67497514985E+01  0.21906619457E+03  0.24504586499E+03  0.00000000000E+00 0.  1.
         22    1    1    2    0    0 -0.34920604251E+03 -0.66324016874E+02  0.65206766165E+03  0.74265467797E+03  0.00000000000E+00 0. -1.
<mgrwt>
<rscale>  0 0.73472885E+03</rscale>
<asrwt>0</asrwt>
<pdfrwt beam="1">  1        2 0.26712817E+00 0.73472885E+03</pdfrwt>
<pdfrwt beam="2">  1       -2 0.11957704E-01 0.73472885E+03</pdfrwt>
<totfact> 0.48792470E+02</totfact>
</mgrwt>
</event>
<event>
 6    1  0.1001928E-005  0.7599769E+03  0.7818608E-02  0.9619827E-01
         -2   -1    0    0    0  501 -0.00000000000E+00  0.00000000000E+00  0.37314846759E+03  0.37314846759E+03  0.00000000000E+00 0.  1.
          2   -1    0    0  501    0  0.00000000000E+00 -0.00000000000E+00 -0.38695378283E+03  0.38695378283E+03  0.00000000000E+00 0. -1.
         23    2    1    2    0    0 -0.26807292363E+03 -0.24628057973E+03  0.80000102451E+02  0.38418115135E+03  0.93155377334E+02 0.  0.
         13    1    3    3    0    0 -0.20259875286E+03 -0.21536330941E+03  0.32223270999E+02  0.29743225933E+03  0.00000000000E+00 0.  1.
        -13    1    3    3    0    0 -0.65474170777E+02 -0.30917270319E+02  0.47776831452E+02  0.86748892019E+02  0.00000000000E+00 0. -1.
         22    1    1    2    0    0  0.26807292363E+03  0.24628057973E+03 -0.93805417688E+02  0.37592109907E+03  0.00000000000E+00 0. -1.
<mgrwt>
<rscale>  0 0.75997687E+03</rscale>
<asrwt>0</asrwt>
<pdfrwt beam="1">  1        2 0.59531351E-01 0.75997687E+03</pdfrwt>
<pdfrwt beam="2">  1       -2 0.57407457E-01 0.75997687E+03</pdfrwt>
<totfact> 0.23668494E+02</totfact>
</mgrwt>
</event>
<event>
 6    1  0.1001928E-005  0.6832490E+03  0.7818608E-02  0.9746315E-01
         -2   -1    0    0    0  501 -0.00000000000E+00  0.00000000000E+00  0.28705623942E+03  0.28705623942E+03  0.00000000000E+00 0.  1.
          2   -1    0    0  501    0  0.00000000000E+00 -0.00000000000E+00 -0.40656597290E+03  0.40656597290E+03  0.00000000000E+00 0. -1.
         23    2    1    2    0    0 -0.19573786404E+02 -0.32407971333E+03 -0.15276163324E+03  0.36725358248E+03  0.78283354230E+02 0.  0.
         11    1    3    3    0    0 -0.40323553937E+02 -0.11124326028E+03 -0.72912585035E+02  0.13898667928E+03  0.00000000000E+00 0.  1.
        -11    1    3    3    0    0  0.20749767533E+02 -0.21283645305E+03 -0.79849048200E+02  0.22826690320E+03  0.00000000000E+00 0. -1.
         22    1    1    2    0    0  0.19573786404E+02  0.32407971333E+03  0.33251899747E+02  0.32636862984E+03  0.00000000000E+00 0.  1.
<mgrwt>
<rscale>  0 0.68324900E+03</rscale>
<asrwt>0</asrwt>
<pdfrwt beam="1">  1        2 0.62548611E-01 0.68324900E+03</pdfrwt>
<pdfrwt beam="2">  1       -2 0.44162498E-01 0.68324900E+03</pdfrwt>
<totfact> 0.38290511E+02</totfact>
</mgrwt>
</event>
<event>
 6    1  0.1001928E-005  0.3705498E+04  0.7818608E-02  0.8066744E-01
          1   -1    0    0  501    0  0.00000000000E+00  0.00000000000E+00  0.28676535720E+04  0.28676535720E+04  0.00000000000E+00 0. -1.
         -1   -1    0    0    0  501 -0.00000000000E+00 -0.00000000000E+00 -0.11970340316E+04  0.11970340316E+04  0.00000000000E+00 0.  1.
         23    2    1    2    0    0 -0.13853208667E+04  0.43524691586E+03  0.20960806068E+04  0.25515547936E+04  0.91236907397E+02 0.  0.
         11    1    3    3    0    0 -0.91026757535E+03  0.32555653931E+03  0.13566872806E+04  0.16658854992E+04  0.00000000000E+00 0. -1.
        -11    1    3    3    0    0 -0.47505329132E+03  0.10969037655E+03  0.73939332623E+03  0.88566929448E+03  0.00000000000E+00 0.  1.
         22    1    1    2    0    0  0.13853208667E+04 -0.43524691586E+03 -0.42546106648E+03  0.15131328099E+04  0.00000000000E+00 0.  1.
<mgrwt>
<rscale>  0 0.37054980E+04</rscale>
<asrwt>0</asrwt>
<pdfrwt beam="1">  1        1 0.44117747E+00 0.37054980E+04</pdfrwt>
<pdfrwt beam="2">  1       -1 0.18415908E+00 0.37054980E+04</pdfrwt>
<totfact> 0.11611394E-01</totfact>
</mgrwt>
</event>
<event>
 6    1  0.1001928E-005  0.4721634E+04  0.7818608E-02  0.7872944E-01
         -1   -1    0    0    0  501 -0.00000000000E+00  0.00000000000E+00  0.25348400705E+04  0.25348400705E+04  0.00000000000E+00 0. -1.
          1   -1    0    0  501    0  0.00000000000E+00 -0.00000000000E+00 -0.21987407292E+04  0.21987407292E+04  0.00000000000E+00 0.  1.
         23    2    1    2    0    0  0.23469309444E+03  0.12501436544E+04  0.21602607307E+04  0.25097317087E+04  0.11868790705E+03 0.  0.
         11    1    3    3    0    0  0.13631539118E+02  0.37958716006E+02  0.36444544581E+02  0.54358879764E+02  0.00000000000E+00 0. -1.
        -11    1    3    3    0    0  0.22106155533E+03  0.12121849384E+04  0.21238161862E+04  0.24553728289E+04  0.00000000000E+00 0.  1.
         22    1    1    2    0    0 -0.23469309444E+03 -0.12501436544E+04 -0.18241613895E+04  0.22238490911E+04  0.00000000000E+00 0.  1.
<mgrwt>
<rscale>  0 0.47216337E+04</rscale>
<asrwt>0</asrwt>
<pdfrwt beam="1">  1        1 0.33826780E+00 0.47216337E+04</pdfrwt>
<pdfrwt beam="2">  1       -1 0.38997540E+00 0.47216337E+04</pdfrwt>
<totfact> 0.13490617E-02</totfact>
</mgrwt>
</event>
<event>
 6    1  0.1001928E-005  0.1521727E+04  0.7818608E-02  0.8870132E-01
         -2   -1    0    0    0  501 -0.00000000000E+00  0.00000000000E+00  0.22911407399E+03  0.22911407399E+03  0.00000000000E+00 0.  1.
          2   -1    0    0  501    0  0.00000000000E+00 -0.00000000000E+00 -0.25267484780E+04  0.25267484780E+04  0.00000000000E+00 0. -1.
         23    2    1    2    0    0 -0.38509650810E+03 -0.22908615430E+02 -0.23348806396E+04  0.23682913879E+04  0.91172206667E+02 0.  0.
         13    1    3    3    0    0 -0.12370268404E+03 -0.50177396036E+02 -0.81183204529E+03  0.82273409730E+03  0.00000000000E+00 0. -1.
        -13    1    3    3    0    0 -0.26139382406E+03  0.27268780606E+02 -0.15230485944E+04  0.15455572906E+04  0.00000000000E+00 0.  1.
         22    1    1    2    0    0  0.38509650810E+03  0.22908615430E+02  0.37246235615E+02  0.38757116414E+03  0.00000000000E+00 0.  1.
<mgrwt>
<rscale>  0 0.15217275E+04</rscale>
<asrwt>0</asrwt>
<pdfrwt beam="1">  1        2 0.38873053E+00 0.15217275E+04</pdfrwt>
<pdfrwt beam="2">  1       -2 0.35248320E-01 0.15217275E+04</pdfrwt>
<totfact> 0.24554983E+01</totfact>
</mgrwt>
</event>
<event>
 6    1  0.1001928E-005  0.1661673E+04  0.7818608E-02  0.8783531E-01
         -2   -1    0    0    0  501 -0.00000000000E+00  0.00000000000E+00  0.13360580012E+03  0.13360580012E+03  0.00000000000E+00 0.  1.
          2   -1    0    0  501    0  0.00000000000E+00 -0.00000000000E+00 -0.51666102014E+04  0.51666102014E+04  0.00000000000E+00 0. -1.
         23    2    1    2    0    0  0.24593237785E+03 -0.73111875289E+03 -0.34870470103E+04  0.35725002783E+04  0.90796594651E+02 0.  0.
         11    1    3    3    0    0  0.66629584600E+02 -0.21828421372E+03 -0.85249321852E+03  0.88251469513E+03  0.00000000000E+00 0.  1.
        -11    1    3    3    0    0  0.17930279325E+03 -0.51283453917E+03 -0.26345537918E+04  0.26899855832E+04  0.00000000000E+00 0. -1.
         22    1    1    2    0    0 -0.24593237785E+03  0.73111875289E+03 -0.15459573910E+04  0.17277157232E+04  0.00000000000E+00 0.  1.
<mgrwt>
<rscale>  0 0.16616728E+04</rscale>
<asrwt>0</asrwt>
<pdfrwt beam="1">  1        2 0.79486303E+00 0.16616728E+04</pdfrwt>
<pdfrwt beam="2">  1       -2 0.20554740E-01 0.16616728E+04</pdfrwt>
<totfact> 0.41923366E-01</totfact>
</mgrwt>
</event>
<event>
 6    1  0.1001928E-005  0.1376082E+04  0.7818608E-02  0.8971316E-01
         -3   -1    0    0    0  501 -0.00000000000E+00  0.00000000000E+00  0.10800970766E+04  0.10800970766E+04  0.00000000000E+00 0.  1.
          3   -1    0    0  501    0  0.00000000000E+00 -0.00000000000E+00 -0.43829419136E+03  0.43829419136E+03  0.00000000000E+00 0. -1.
         23    2    1    2    0    0  0.36514376721E+03 -0.20971302536E+03 -0.27429602181E+03  0.51015184636E+03  0.87789948306E+02 0.  0.
         13    1    3    3    0    0  0.23615450354E+03 -0.10490885696E+03 -0.12635479397E+03  0.28764622676E+03  0.00000000000E+00 0.  1.
        -13    1    3    3    0    0  0.12898926367E+03 -0.10480416840E+03 -0.14794122785E+03  0.22250561960E+03  0.00000000000E+00 0. -1.
         22    1    1    2    0    0 -0.36514376721E+03  0.20971302536E+03  0.91609890701E+03  0.10082394216E+04  0.00000000000E+00 0.  1.
<mgrwt>
<rscale>  0 0.13760818E+04</rscale>
<asrwt>0</asrwt>
<pdfrwt beam="1">  1        3 0.67429876E-01 0.13760818E+04</pdfrwt>
<pdfrwt beam="2">  1       -3 0.16616878E+00 0.13760818E+04</pdfrwt>
<totfact> 0.13300933E+00</totfact>
</mgrwt>
</event>
<event>
 6    1  0.1001928E-005  0.1905797E+04  0.7818608E-02  0.8651976E-01
         -2   -1    0    0    0  501 -0.00000000000E+00  0.00000000000E+00  0.35147804560E+03  0.35147804560E+03  0.00000000000E+00 0.  1.
          2   -1    0    0  501    0  0.00000000000E+00 -0.00000000000E+00 -0.25834193547E+04  0.25834193547E+04  0.00000000000E+00 0. -1.
         23    2    1    2    0    0 -0.30698358806E+03  0.88759289840E+03 -0.13439229164E+04  0.16423662624E+04  0.95802181768E+02 0.  0.
         13    1    3    3    0    0 -0.17178011798E+03  0.48389692173E+03 -0.65144502940E+03  0.82948494026E+03  0.00000000000E+00 0.  1.
        -13    1    3    3    0    0 -0.13520347008E+03  0.40369597667E+03 -0.69247788703E+03  0.81288132217E+03  0.00000000000E+00 0. -1.
         22    1    1    2    0    0  0.30698358806E+03 -0.88759289840E+03 -0.88801839265E+03  0.12925311379E+04  0.00000000000E+00 0. -1.
<mgrwt>
<rscale>  0 0.19057966E+04</rscale>
<asrwt>0</asrwt>
<pdfrwt beam="1">  1        2 0.39744913E+00 0.19057966E+04</pdfrwt>
<pdfrwt beam="2">  1       -2 0.54073545E-01 0.19057966E+04</pdfrwt>
<totfact> 0.93934693E+00</totfact>
</mgrwt>
</event>
<event>
 6    1  0.1001928E-005  0.1757815E+04  0.7818608E-02  0.8729060E-01
          2   -1    0    0  501    0  0.00000000000E+00  0.00000000000E+00  0.32941790692E+03  0.32941790692E+03  0.00000000000E+00 0. -1.
         -2   -1    0    0    0  501 -0.00000000000E+00 -0.00000000000E+00 -0.23449803632E+04  0.23449803632E+04  0.00000000000E+00 0.  1.
         23    2    1    2    0    0  0.42999303237E+03  0.58026217937E+03 -0.25509665899E+03  0.77154829491E+03  0.92813044692E+02 0.  0.
         11    1    3    3    0    0  0.22817657147E+03  0.25252626075E+03 -0.15423941485E+03  0.37366275869E+03  0.00000000000E+00 0. -1.
        -11    1    3    3    0    0  0.20181646090E+03  0.32773591862E+03 -0.10085724414E+03  0.39788553623E+03  0.00000000000E+00 0.  1.
         22    1    1    2    0    0 -0.42999303237E+03 -0.58026217937E+03 -0.17604657973E+04  0.19028499752E+04  0.00000000000E+00 0.  1.
<mgrwt>
<rscale>  0 0.17578151E+04</rscale>
<asrwt>0</asrwt>
<pdfrwt beam="1">  1        2 0.50679681E-01 0.17578151E+04</pdfrwt>
<pdfrwt beam="2">  1       -2 0.36076619E+00 0.17578151E+04</pdfrwt>
<totfact> 0.12512843E+00</totfact>
</mgrwt>
</event>
<event>
 6    1  0.1001928E-005  0.7301956E+03  0.7818608E-02  0.9666943E-01
         -2   -1    0    0    0  501 -0.00000000000E+00  0.00000000000E+00  0.55128837796E+02  0.55128837796E+02  0.00000000000E+00 0.  1.
          2   -1    0    0  501    0  0.00000000000E+00 -0.00000000000E+00 -0.24179069823E+04  0.24179069823E+04  0.00000000000E+00 0. -1.
         23    2    1    2    0    0  0.68167579907E+02 -0.30153526616E+03 -0.18212372665E+04  0.18494679744E+04  0.89756735737E+02 0.  0.
         11    1    3    3    0    0  0.37836507630E+02 -0.26378312807E+03 -0.13729393341E+04  0.13985619597E+04  0.00000000000E+00 0. -1.
        -11    1    3    3    0    0  0.30331072277E+02 -0.37752138092E+02 -0.44829793238E+03  0.45090601465E+03  0.00000000000E+00 0.  1.
         22    1    1    2    0    0 -0.68167579907E+02  0.30153526616E+03 -0.54154087802E+03  0.62356784575E+03  0.00000000000E+00 0.  1.
<mgrwt>
<rscale>  0 0.73019560E+03</rscale>
<asrwt>0</asrwt>
<pdfrwt beam="1">  1        2 0.37198574E+00 0.73019560E+03</pdfrwt>
<pdfrwt beam="2">  1       -2 0.84813585E-02 0.73019560E+03</pdfrwt>
<totfact> 0.36077287E+02</totfact>
</mgrwt>
</event>
<event>
 6    1  0.1001928E-005  0.9585259E+03  0.7818608E-02  0.9355240E-01
         -1   -1    0    0    0  501 -0.00000000000E+00  0.00000000000E+00  0.52577899769E+03  0.52577899769E+03  0.00000000000E+00 0.  1.
          1   -1    0    0  501    0  0.00000000000E+00 -0.00000000000E+00 -0.43686224329E+03  0.43686224329E+03  0.00000000000E+00 0. -1.
         23    2    1    2    0    0  0.45357534120E+03 -0.77916397279E+02  0.16476439684E+03  0.49621394764E+03  0.85319518605E+02 0.  0.
         13    1    3    3    0    0  0.23801289559E+03 -0.64293703300E+02  0.49769469197E+02  0.25151703484E+03  0.00000000000E+00 0.  1.
        -13    1    3    3    0    0  0.21556244561E+03 -0.13622693979E+02  0.11499492764E+03  0.24469691280E+03  0.00000000000E+00 0. -1.
         22    1    1    2    0    0 -0.45357534120E+03  0.77916397279E+02 -0.75847642435E+02  0.46642729334E+03  0.00000000000E+00 0. -1.
<mgrwt>
<rscale>  0 0.95852594E+03</rscale>
<asrwt>0</asrwt>
<pdfrwt beam="1">  1        1 0.67209576E-01 0.95852594E+03</pdfrwt>
<pdfrwt beam="2">  1       -1 0.80889077E-01 0.95852594E+03</pdfrwt>
<totfact> 0.81653322E+01</totfact>
</mgrwt>
</event>
<event>
 6    1  0.1001928E-005  0.3441791E+04  0.7818608E-02  0.8127725E-01
         -2   -1    0    0    0  501 -0.00000000000E+00  0.00000000000E+00  0.14225009313E+04  0.14225009313E+04  0.00000000000E+00 0.  1.
          2   -1    0    0  501    0  0.00000000000E+00 -0.00000000000E+00 -0.20818830387E+04  0.20818830387E+04  0.00000000000E+00 0. -1.
         23    2    1    2    0    0 -0.14669142542E+04 -0.76223912344E+03  0.15226599001E+03  0.16627492222E+04  0.93295946546E+02 0.  0.
         11    1    3    3    0    0 -0.15726210467E+03 -0.50387929285E+02  0.13101121365E+02  0.16565612685E+03  0.00000000000E+00 0. -1.
        -11    1    3    3    0    0 -0.13096521495E+04 -0.71185119415E+03  0.13916486864E+03  0.14970930953E+04  0.00000000000E+00 0.  1.
         22    1    1    2    0    0  0.14669142542E+04  0.76223912344E+03 -0.81164809737E+03  0.18416347478E+04  0.00000000000E+00 0. -1.
<mgrwt>
<rscale>  0 0.34417906E+04</rscale>
<asrwt>0</asrwt>
<pdfrwt beam="1">  1        2 0.32028970E+00 0.34417906E+04</pdfrwt>
<pdfrwt beam="2">  1       -2 0.21884630E+00 0.34417906E+04</pdfrwt>
<totfact> 0.49915602E-01</totfact>
</mgrwt>
</event>
<event>
 6    1  0.1001928E-005  0.5158280E+03  0.7818608E-02  0.1009728E+00
         -4   -1    0    0    0  501 -0.00000000000E+00  0.00000000000E+00  0.78908278350E+02  0.78908278350E+02  0.00000000000E+00 0.  1.
          4   -1    0    0  501    0  0.00000000000E+00 -0.00000000000E+00 -0.84299947693E+03  0.84299947693E+03  0.00000000000E+00 0. -1.
         23    2    1    2    0    0  0.11780002988E+03  0.20152451415E+03 -0.23468980089E+03  0.34332775500E+03  0.91135436958E+02 0.  0.
         13    1    3    3    0    0  0.90513180177E+02  0.11732312238E+03 -0.19848584174E+03  0.24769735607E+03  0.00000000000E+00 0. -1.
        -13    1    3    3    0    0  0.27286849700E+02  0.84201391769E+02 -0.36203959151E+02  0.95630398936E+02  0.00000000000E+00 0.  1.
         22    1    1    2    0    0 -0.11780002988E+03 -0.20152451415E+03 -0.52940139769E+03  0.57858000028E+03  0.00000000000E+00 0. -1.
<mgrwt>
<rscale>  0 0.51582802E+03</rscale>
<asrwt>0</asrwt>
<pdfrwt beam="1">  1        4 0.12969223E+00 0.51582802E+03</pdfrwt>
<pdfrwt beam="2">  1       -4 0.12139735E-01 0.51582802E+03</pdfrwt>
<totfact> 0.48359673E+01</totfact>
</mgrwt>
</event>
<event>
 6    1  0.1001928E-005  0.1381134E+04  0.7818608E-02  0.8967589E-01
         -2   -1    0    0    0  501 -0.00000000000E+00  0.00000000000E+00  0.15377473876E+03  0.15377473876E+03  0.00000000000E+00 0.  1.
          2   -1    0    0  501    0  0.00000000000E+00 -0.00000000000E+00 -0.31011755069E+04  0.31011755069E+04  0.00000000000E+00 0. -1.
         23    2    1    2    0    0  0.55391420017E+03  0.23158616005E+03 -0.69004613034E+03  0.91911997541E+03  0.90359152919E+02 0.  0.
         13    1    3    3    0    0  0.46781816842E+02  0.32735483822E+02 -0.10649734047E+03  0.12083804788E+03  0.00000000000E+00 0. -1.
        -13    1    3    3    0    0  0.50713238333E+03  0.19885067623E+03 -0.58354878987E+03  0.79828192753E+03  0.00000000000E+00 0.  1.
         22    1    1    2    0    0 -0.55391420017E+03 -0.23158616005E+03 -0.22573546378E+04  0.23358302703E+04  0.00000000000E+00 0. -1.
<mgrwt>
<rscale>  0 0.13811335E+04</rscale>
<asrwt>0</asrwt>
<pdfrwt beam="1">  1        2 0.47710387E+00 0.13811335E+04</pdfrwt>
<pdfrwt beam="2">  1       -2 0.23657655E-01 0.13811335E+04</pdfrwt>
<totfact> 0.23465965E+01</totfact>
</mgrwt>
</event>
<event>
 6    1  0.1001928E-005  0.2429854E+04  0.7818608E-02  0.8428410E-01
          1   -1    0    0  501    0  0.00000000000E+00  0.00000000000E+00  0.20706930360E+04  0.20706930360E+04  0.00000000000E+00 0. -1.
         -1   -1    0    0    0  501 -0.00000000000E+00 -0.00000000000E+00 -0.71282794265E+03  0.71282794265E+03  0.00000000000E+00 0.  1.
         23    2    1    2    0    0 -0.63364368562E+03 -0.64493220379E+03 -0.24691534032E+03  0.94157578182E+03  0.90310020624E+02 0.  0.
         13    1    3    3    0    0 -0.45134227083E+03 -0.49084899636E+03 -0.21577571867E+03  0.70085786250E+03  0.00000000000E+00 0. -1.
        -13    1    3    3    0    0 -0.18230141479E+03 -0.15408320743E+03 -0.31139621649E+02  0.24071791932E+03  0.00000000000E+00 0.  1.
         22    1    1    2    0    0  0.63364368562E+03  0.64493220379E+03  0.16047804336E+04  0.18419451968E+04  0.00000000000E+00 0. -1.
<mgrwt>
<rscale>  0 0.24298542E+04</rscale>
<asrwt>0</asrwt>
<pdfrwt beam="1">  1        1 0.31856816E+00 0.24298542E+04</pdfrwt>
<pdfrwt beam="2">  1       -1 0.10966584E+00 0.24298542E+04</pdfrwt>
<totfact> 0.18327648E+00</totfact>
</mgrwt>
</event>
<event>
 6    1  0.1001928E-005  0.4363456E+04  0.7818608E-02  0.7934987E-01
          1   -1    0    0  501    0  0.00000000000E+00  0.00000000000E+00  0.15306905722E+04  0.15306905722E+04  0.00000000000E+00 0. -1.
         -1   -1    0    0    0  501 -0.00000000000E+00 -0.00000000000E+00 -0.31096669577E+04  0.31096669577E+04  0.00000000000E+00 0.  1.
         23    2    1    2    0    0  0.18405692604E+04 -0.47660852286E+03 -0.19257561043E+04  0.27077150229E+04  0.91286283723E+02 0.  0.
         11    1    3    3    0    0  0.12208351873E+04 -0.35277103249E+03 -0.13204546413E+04  0.18326173676E+04  0.00000000000E+00 0.  1.
        -11    1    3    3    0    0  0.61973407308E+03 -0.12383749036E+03 -0.60530146291E+03  0.87509765533E+03  0.00000000000E+00 0. -1.
         22    1    1    2    0    0 -0.18405692604E+04  0.47660852286E+03  0.34677971879E+03  0.19326425070E+04  0.00000000000E+00 0. -1.
<mgrwt>
<rscale>  0 0.43634564E+04</rscale>
<asrwt>0</asrwt>
<pdfrwt beam="1">  1        1 0.23549086E+00 0.43634564E+04</pdfrwt>
<pdfrwt beam="2">  1       -1 0.47841030E+00 0.43634564E+04</pdfrwt>
<totfact> 0.98138039E-03</totfact>
</mgrwt>
</event>
<event>
 6    1  0.1001928E-005  0.2703408E+04  0.7818608E-02  0.8333900E-01
          2   -1    0    0  501    0  0.00000000000E+00  0.00000000000E+00  0.10542225251E+04  0.10542225251E+04  0.00000000000E+00 0. -1.
         -2   -1    0    0    0  501 -0.00000000000E+00 -0.00000000000E+00 -0.17331293659E+04  0.17331293659E+04  0.00000000000E+00 0.  1.
         23    2    1    2    0    0 -0.81023399224E+01 -0.11038127268E+04 -0.11415476079E+04  0.15904790225E+04  0.89578994905E+02 0.  0.
         13    1    3    3    0    0 -0.48166290372E+02 -0.49405921542E+03 -0.51293664763E+03  0.71380564887E+03  0.00000000000E+00 0.  1.
        -13    1    3    3    0    0  0.40063950449E+02 -0.60975351140E+03 -0.62861096023E+03  0.87667337368E+03  0.00000000000E+00 0. -1.
         22    1    1    2    0    0  0.81023399224E+01  0.11038127268E+04  0.46264076704E+03  0.11968728684E+04  0.00000000000E+00 0. -1.
<mgrwt>
<rscale>  0 0.27034082E+04</rscale>
<asrwt>0</asrwt>
<pdfrwt beam="1">  1        2 0.16218808E+00 0.27034082E+04</pdfrwt>
<pdfrwt beam="2">  1       -2 0.26663528E+00 0.27034082E+04</pdfrwt>
<totfact> 0.10368790E+00</totfact>
</mgrwt>
</event>
<event>
 6    1  0.1001928E-005  0.3745506E+04  0.7818608E-02  0.8057951E-01
         -1   -1    0    0    0  501 -0.00000000000E+00  0.00000000000E+00  0.13071734539E+04  0.13071734539E+04  0.00000000000E+00 0.  1.
          1   -1    0    0  501    0  0.00000000000E+00 -0.00000000000E+00 -0.26830437434E+04  0.26830437434E+04  0.00000000000E+00 0. -1.
         23    2    1    2    0    0  0.64140798271E+03  0.15898423186E+03  0.11771732282E+04  0.13530385174E+04  0.91083665150E+02 0.  0.
         13    1    3    3    0    0  0.36548314557E+03  0.45669672227E+02  0.62553223395E+03  0.72591612763E+03  0.00000000000E+00 0. -1.
        -13    1    3    3    0    0  0.27592483715E+03  0.11331455964E+03  0.55164099426E+03  0.62712238976E+03  0.00000000000E+00 0.  1.
         22    1    1    2    0    0 -0.64140798271E+03 -0.15898423186E+03 -0.25530435178E+04  0.26371786799E+04  0.00000000000E+00 0. -1.
<mgrwt>
<rscale>  0 0.37455059E+04</rscale>
<asrwt>0</asrwt>
<pdfrwt beam="1">  1        1 0.41277596E+00 0.37455059E+04</pdfrwt>
<pdfrwt beam="2">  1       -1 0.20110361E+00 0.37455059E+04</pdfrwt>
<totfact> 0.11922011E-01</totfact>
</mgrwt>
</event>
<event>
 6    1  0.1001928E-005  0.1554564E+04  0.7818608E-02  0.8848958E-01
         -2   -1    0    0    0  501 -0.00000000000E+00  0.00000000000E+00  0.26330236408E+03  0.26330236408E+03  0.00000000000E+00 0.  1.
          2   -1    0    0  501    0  0.00000000000E+00 -0.00000000000E+00 -0.22945773035E+04  0.22945773035E+04  0.00000000000E+00 0. -1.
         23    2    1    2    0    0  0.40820491242E+03 -0.49820690436E+03 -0.17276034893E+04  0.18457998127E+04  0.86728093877E+02 0.  0.
         13    1    3    3    0    0  0.10733677755E+03 -0.17747708773E+03 -0.47744904721E+03  0.52055440942E+03  0.00000000000E+00 0. -1.
        -13    1    3    3    0    0  0.30086813487E+03 -0.32072981663E+03 -0.12501544421E+04  0.13252454033E+04  0.00000000000E+00 0.  1.
         22    1    1    2    0    0 -0.40820491242E+03  0.49820690436E+03 -0.30367145011E+03  0.71207985485E+03  0.00000000000E+00 0.  1.
<mgrwt>
<rscale>  0 0.15545644E+04</rscale>
<asrwt>0</asrwt>
<pdfrwt beam="1">  1        2 0.35301190E+00 0.15545644E+04</pdfrwt>
<pdfrwt beam="2">  1       -2 0.40508055E-01 0.15545644E+04</pdfrwt>
<totfact> 0.25381202E+01</totfact>
</mgrwt>
</event>
<event>
 6    1  0.1001928E-005  0.9121104E+03  0.7818608E-02  0.9410568E-01
         -1   -1    0    0    0  501 -0.00000000000E+00  0.00000000000E+00  0.28072970909E+03  0.28072970909E+03  0.00000000000E+00 0.  1.
          1   -1    0    0  501    0  0.00000000000E+00 -0.00000000000E+00 -0.74087763555E+03  0.74087763555E+03  0.00000000000E+00 0. -1.
         23    2    1    2    0    0  0.33264583694E+03  0.16915506879E+03 -0.51606127237E+03  0.64425738454E+03  0.97373767280E+02 0.  0.
         13    1    3    3    0    0  0.12389978748E+03  0.80351006372E+02 -0.28186746166E+03  0.31820859119E+03  0.00000000000E+00 0.  1.
        -13    1    3    3    0    0  0.20874604946E+03  0.88804062422E+02 -0.23419381071E+03  0.32604879335E+03  0.00000000000E+00 0. -1.
         22    1    1    2    0    0 -0.33264583694E+03 -0.16915506879E+03  0.55913345913E+02  0.37734996010E+03  0.00000000000E+00 0.  1.
<mgrwt>
<rscale>  0 0.91211044E+03</rscale>
<asrwt>0</asrwt>
<pdfrwt beam="1">  1        1 0.11398117E+00 0.91211044E+03</pdfrwt>
<pdfrwt beam="2">  1       -1 0.43189187E-01 0.91211044E+03</pdfrwt>
<totfact> 0.13283926E+02</totfact>
</mgrwt>
</event>
<event>
 6    1  0.1001928E-005  0.4660675E+04  0.7818608E-02  0.7883096E-01
          2   -1    0    0  501    0  0.00000000000E+00  0.00000000000E+00  0.16533459999E+04  0.16533459999E+04  0.00000000000E+00 0. -1.
         -2   -1    0    0    0  501 -0.00000000000E+00 -0.00000000000E+00 -0.32845350130E+04  0.32845350130E+04  0.00000000000E+00 0.  1.
         23    2    1    2    0    0  0.15751955344E+04  0.11988674952E+04 -0.21167716110E+04  0.28996674072E+04  0.93940282778E+02 0.  0.
         13    1    3    3    0    0  0.36635863938E+03  0.32813009160E+03 -0.51033223331E+03  0.70875030724E+03  0.00000000000E+00 0.  1.
        -13    1    3    3    0    0  0.12088368950E+04  0.87073740364E+03 -0.16064393777E+04  0.21909171000E+04  0.00000000000E+00 0. -1.
         22    1    1    2    0    0 -0.15751955344E+04 -0.11988674952E+04  0.48558259784E+03  0.20382136056E+04  0.00000000000E+00 0. -1.
<mgrwt>
<rscale>  0 0.46606750E+04</rscale>
<asrwt>0</asrwt>
<pdfrwt beam="1">  1        2 0.25436092E+00 0.46606750E+04</pdfrwt>
<pdfrwt beam="2">  1       -2 0.50531308E+00 0.46606750E+04</pdfrwt>
<totfact> 0.11975597E-02</totfact>
</mgrwt>
</event>
<event>
 6    1  0.1001928E-005  0.2465946E+04  0.7818608E-02  0.8415219E-01
         -2   -1    0    0    0  501 -0.00000000000E+00  0.00000000000E+00  0.18891433499E+04  0.18891433499E+04  0.00000000000E+00 0.  1.
          2   -1    0    0  501    0  0.00000000000E+00 -0.00000000000E+00 -0.80471548962E+03  0.80471548962E+03  0.00000000000E+00 0. -1.
         23    2    1    2    0    0  0.90268525737E+03  0.83250758603E+03  0.44528755554E+03  0.13095142712E+04  0.92935809756E+02 0.  0.
         11    1    3    3    0    0  0.26169250645E+03  0.18812182008E+03  0.12900735676E+03  0.34715369106E+03  0.00000000000E+00 0. -1.
        -11    1    3    3    0    0  0.64099275093E+03  0.64438576596E+03  0.31628019877E+03  0.96236058016E+03  0.00000000000E+00 0.  1.
         22    1    1    2    0    0 -0.90268525737E+03 -0.83250758603E+03  0.63914030479E+03  0.13843445683E+04  0.00000000000E+00 0. -1.
<mgrwt>
<rscale>  0 0.24659464E+04</rscale>
<asrwt>0</asrwt>
<pdfrwt beam="1">  1        2 0.12380238E+00 0.24659464E+04</pdfrwt>
<pdfrwt beam="2">  1       -2 0.29063744E+00 0.24659464E+04</pdfrwt>
<totfact> 0.11086021E+00</totfact>
</mgrwt>
</event>
<event>
 6    1  0.1001928E-005  0.4059345E+04  0.7818608E-02  0.7992681E-01
         -2   -1    0    0    0  501 -0.00000000000E+00  0.00000000000E+00  0.12766551687E+04  0.12766551687E+04  0.00000000000E+00 0.  1.
          2   -1    0    0  501    0  0.00000000000E+00 -0.00000000000E+00 -0.32268465517E+04  0.32268465517E+04  0.00000000000E+00 0. -1.
         23    2    1    2    0    0  0.84822121825E+03 -0.15554662651E+03 -0.30127441082E+04  0.31350382456E+04  0.90353485130E+02 0.  0.
         11    1    3    3    0    0  0.58304017793E+03 -0.64463132084E+02 -0.20611175149E+04  0.21429644782E+04  0.00000000000E+00 0.  1.
        -11    1    3    3    0    0  0.26518104032E+03 -0.91083494427E+02 -0.95162659325E+03  0.99207376746E+03  0.00000000000E+00 0. -1.
         22    1    1    2    0    0 -0.84822121825E+03  0.15554662651E+03  0.10625527252E+04  0.13684634748E+04  0.00000000000E+00 0.  1.
<mgrwt>
<rscale>  0 0.40593449E+04</rscale>
<asrwt>0</asrwt>
<pdfrwt beam="1">  1        2 0.49643792E+00 0.40593449E+04</pdfrwt>
<pdfrwt beam="2">  1       -2 0.19640849E+00 0.40593449E+04</pdfrwt>
<totfact> 0.13718319E-01</totfact>
</mgrwt>
</event>
<event>
 6    1  0.1001928E-005  0.9026112E+03  0.7818608E-02  0.9422323E-01
          1   -1    0    0  501    0  0.00000000000E+00  0.00000000000E+00  0.13109754850E+04  0.13109754850E+04  0.00000000000E+00 0. -1.
         -1   -1    0    0    0  501 -0.00000000000E+00 -0.00000000000E+00 -0.15536273534E+03  0.15536273534E+03  0.00000000000E+00 0.  1.
         23    2    1    2    0    0  0.34558764218E+03  0.14353999655E+03  0.18725647651E+03  0.42819159256E+03  0.90821269013E+02 0.  0.
         13    1    3    3    0    0  0.20840145098E+03  0.56783910513E+02  0.66902113913E+02  0.22612268818E+03  0.00000000000E+00 0. -1.
        -13    1    3    3    0    0  0.13718619120E+03  0.86756086037E+02  0.12035436259E+03  0.20206890438E+03  0.00000000000E+00 0.  1.
         22    1    1    2    0    0 -0.34558764218E+03 -0.14353999655E+03  0.96835627312E+03  0.10381466278E+04  0.00000000000E+00 0. -1.
<mgrwt>
<rscale>  0 0.90261118E+03</rscale>
<asrwt>0</asrwt>
<pdfrwt beam="1">  1        1 0.20168853E+00 0.90261118E+03</pdfrwt>
<pdfrwt beam="2">  1       -1 0.23901960E-01 0.90261118E+03</pdfrwt>
<totfact> 0.13533844E+02</totfact>
</mgrwt>
</event>
<event>
 6    1  0.1001928E-005  0.3572184E+04  0.7818608E-02  0.8096893E-01
         -2   -1    0    0    0  501 -0.00000000000E+00  0.00000000000E+00  0.12435291189E+04  0.12435291189E+04  0.00000000000E+00 0.  1.
          2   -1    0    0  501    0  0.00000000000E+00 -0.00000000000E+00 -0.25653805810E+04  0.25653805810E+04  0.00000000000E+00 0. -1.
         23    2    1    2    0    0  0.43071729599E+03  0.39979615868E+03  0.11357737421E+04  0.12819993330E+04  0.90476179967E+02 0.  0.
         11    1    3    3    0    0  0.29757924297E+03  0.32900866060E+03  0.86137260359E+03  0.96889775870E+03  0.00000000000E+00 0. -1.
        -11    1    3    3    0    0  0.13313805303E+03  0.70787498081E+02  0.27440113850E+03  0.31310157435E+03  0.00000000000E+00 0.  1.
         22    1    1    2    0    0 -0.43071729599E+03 -0.39979615868E+03 -0.24576252042E+04  0.25269103668E+04  0.00000000000E+00 0. -1.
<mgrwt>
<rscale>  0 0.35721845E+04</rscale>
<asrwt>0</asrwt>
<pdfrwt beam="1">  1        2 0.39467394E+00 0.35721845E+04</pdfrwt>
<pdfrwt beam="2">  1       -2 0.19131217E+00 0.35721845E+04</pdfrwt>
<totfact> 0.39560924E-01</totfact>
</mgrwt>
</event>
<event>
 6    1  0.1001928E-005  0.1504407E+04  0.7818608E-02  0.8881528E-01
          1   -1    0    0  501    0  0.00000000000E+00  0.00000000000E+00  0.13579362382E+04  0.13579362382E+04  0.00000000000E+00 0. -1.
         -1   -1    0    0    0  501 -0.00000000000E+00 -0.00000000000E+00 -0.41666913123E+03  0.41666913123E+03  0.00000000000E+00 0.  1.
         23    2    1    2    0    0  0.42030510277E+03 -0.55611521317E+03  0.79700715799E+03  0.10627546529E+04  0.91140181483E+02 0.  0.
         13    1    3    3    0    0  0.10311543853E+03 -0.10363525250E+03  0.12200804062E+03  0.19041801701E+03  0.00000000000E+00 0.  1.
        -13    1    3    3    0    0  0.31718966424E+03 -0.45247996067E+03  0.67499911737E+03  0.87233663591E+03  0.00000000000E+00 0. -1.
         22    1    1    2    0    0 -0.42030510277E+03  0.55611521317E+03  0.14425994900E+03  0.71185071653E+03  0.00000000000E+00 0.  1.
<mgrwt>
<rscale>  0 0.15044070E+04</rscale>
<asrwt>0</asrwt>
<pdfrwt beam="1">  1        1 0.20891327E+00 0.15044070E+04</pdfrwt>
<pdfrwt beam="2">  1       -1 0.64102944E-01 0.15044070E+04</pdfrwt>
<totfact> 0.19630857E+01</totfact>
</mgrwt>
</event>
<event>
 6    1  0.1001928E-005  0.5291835E+04  0.7818608E-02  0.7785001E-01
         -2   -1    0    0    0  501 -0.00000000000E+00  0.00000000000E+00  0.24076403940E+04  0.24076403940E+04  0.00000000000E+00 0.  1.
          2   -1    0    0  501    0  0.00000000000E+00 -0.00000000000E+00 -0.29077764715E+04  0.29077764715E+04  0.00000000000E+00 0. -1.
         23    2    1    2    0    0  0.47087714932E+03  0.10717558392E+04 -0.26327004399E+04  0.28826783615E+04  0.91307509092E+02 0.  0.
         11    1    3    3    0    0  0.24386284058E+03  0.64825860153E+03 -0.14932636503E+04  0.16460694483E+04  0.00000000000E+00 0. -1.
        -11    1    3    3    0    0  0.22701430874E+03  0.42349723765E+03 -0.11394367896E+04  0.12366089132E+04  0.00000000000E+00 0.  1.
         22    1    1    2    0    0 -0.47087714932E+03 -0.10717558392E+04  0.21325643624E+04  0.24327385039E+04  0.00000000000E+00 0.  1.
<mgrwt>
<rscale>  0 0.52918353E+04</rscale>
<asrwt>0</asrwt>
<pdfrwt beam="1">  1        2 0.44735023E+00 0.52918353E+04</pdfrwt>
<pdfrwt beam="2">  1       -2 0.37040621E+00 0.52918353E+04</pdfrwt>
<totfact> 0.16313320E-02</totfact>
</mgrwt>
</event>
<event>
 6    1  0.1001928E-005  0.2596247E+04  0.7818608E-02  0.8369477E-01
          2   -1    0    0  501    0  0.00000000000E+00  0.00000000000E+00  0.14344817752E+04  0.14344817752E+04  0.00000000000E+00 0. -1.
         -2   -1    0    0    0  501 -0.00000000000E+00 -0.00000000000E+00 -0.11747270473E+04  0.11747270473E+04  0.00000000000E+00 0.  1.
         23    2    1    2    0    0 -0.67589755715E+03  0.55525339081E+03 -0.83181772746E+03  0.12103970907E+04  0.89423429604E+02 0.  0.
         11    1    3    3    0    0 -0.11505482331E+03  0.11686236615E+03 -0.11596132252E+03  0.20085181928E+03  0.00000000000E+00 0.  1.
        -11    1    3    3    0    0 -0.56084273384E+03  0.43839102466E+03 -0.71585640495E+03  0.10095452715E+04  0.00000000000E+00 0. -1.
         22    1    1    2    0    0  0.67589755715E+03 -0.55525339081E+03  0.10915724553E+04  0.13988117318E+04  0.00000000000E+00 0. -1.
<mgrwt>
<rscale>  0 0.25962469E+04</rscale>
<asrwt>0</asrwt>
<pdfrwt beam="1">  1        2 0.22068950E+00 0.25962469E+04</pdfrwt>
<pdfrwt beam="2">  1       -2 0.18072724E+00 0.25962469E+04</pdfrwt>
<totfact> 0.21934914E+00</totfact>
</mgrwt>
</event>
<event>
 6    1  0.1001928E-005  0.2723371E+04  0.7818608E-02  0.8327462E-01
         -1   -1    0    0    0  501 -0.00000000000E+00  0.00000000000E+00  0.19039614081E+04  0.19039614081E+04  0.00000000000E+00 0.  1.
          1   -1    0    0  501    0  0.00000000000E+00 -0.00000000000E+00 -0.97385752629E+03  0.97385752629E+03  0.00000000000E+00 0. -1.
         23    2    1    2    0    0 -0.78577746932E+03 -0.60337129652E+03 -0.51908587116E+03  0.11223548667E+04  0.93419229707E+02 0.  0.
         13    1    3    3    0    0 -0.57142157255E+03 -0.38527006878E+03 -0.36782780553E+03  0.78118687521E+03  0.00000000000E+00 0. -1.
        -13    1    3    3    0    0 -0.21435589677E+03 -0.21810122774E+03 -0.15125806562E+03  0.34116799152E+03  0.00000000000E+00 0.  1.
         22    1    1    2    0    0  0.78577746932E+03  0.60337129652E+03  0.14491897530E+04  0.17554640677E+04  0.00000000000E+00 0.  1.
<mgrwt>
<rscale>  0 0.27233708E+04</rscale>
<asrwt>0</asrwt>
<pdfrwt beam="1">  1        1 0.14982423E+00 0.27233708E+04</pdfrwt>
<pdfrwt beam="2">  1       -1 0.29291714E+00 0.27233708E+04</pdfrwt>
<totfact> 0.50746701E-01</totfact>
</mgrwt>
</event>
<event>
 6    1  0.1001928E-005  0.5177576E+04  0.7818608E-02  0.7801683E-01
          2   -1    0    0  501    0  0.00000000000E+00  0.00000000000E+00  0.36695740349E+04  0.36695740349E+04  0.00000000000E+00 0.  1.
         -2   -1    0    0    0  501 -0.00000000000E+00 -0.00000000000E+00 -0.18263218335E+04  0.18263218335E+04  0.00000000000E+00 0. -1.
         23    2    1    2    0    0  0.21620283593E+04 -0.67403824441E+03 -0.40773449671E+03  0.23028353779E+04  0.90050966454E+02 0.  0.
         11    1    3    3    0    0  0.13020550675E+04 -0.40933049512E+03 -0.29032228374E+03  0.13954160245E+04  0.00000000000E+00 0. -1.
        -11    1    3    3    0    0  0.85997329180E+03 -0.26470774929E+03 -0.11741221297E+03  0.90741935339E+03  0.00000000000E+00 0.  1.
         22    1    1    2    0    0 -0.21620283593E+04  0.67403824441E+03  0.22509866981E+04  0.31930604906E+04  0.00000000000E+00 0.  1.
<mgrwt>
<rscale>  0 0.51775760E+04</rscale>
<asrwt>0</asrwt>
<pdfrwt beam="1">  1        2 0.56454985E+00 0.51775760E+04</pdfrwt>
<pdfrwt beam="2">  1       -2 0.28097259E+00 0.51775760E+04</pdfrwt>
<totfact> 0.18276239E-02</totfact>
</mgrwt>
</event>
<event>
 6    1  0.1001928E-005  0.1520083E+04  0.7818608E-02  0.8871207E-01
          2   -1    0    0  501    0  0.00000000000E+00  0.00000000000E+00  0.17810658108E+04  0.17810658108E+04  0.00000000000E+00 0. -1.
         -2   -1    0    0    0  501 -0.00000000000E+00 -0.00000000000E+00 -0.32433549728E+03  0.32433549728E+03  0.00000000000E+00 0.  1.
         23    2    1    2    0    0  0.42472224900E+01  0.43025095654E+03 -0.13223634211E+03  0.45920904797E+03  0.90843684794E+02 0.  0.
         13    1    3    3    0    0 -0.33795670188E+02  0.31708169624E+03 -0.79194896340E+02  0.32856472881E+03  0.00000000000E+00 0. -1.
        -13    1    3    3    0    0  0.38042892678E+02  0.11316926029E+03 -0.53041445774E+02  0.13064431916E+03  0.00000000000E+00 0.  1.
         22    1    1    2    0    0 -0.42472224900E+01 -0.43025095654E+03  0.15889666556E+04  0.16461922601E+04  0.00000000000E+00 0. -1.
<mgrwt>
<rscale>  0 0.15200827E+04</rscale>
<asrwt>0</asrwt>
<pdfrwt beam="1">  1        2 0.27401012E+00 0.15200827E+04</pdfrwt>
<pdfrwt beam="2">  1       -2 0.49897770E-01 0.15200827E+04</pdfrwt>
<totfact> 0.32407339E+01</totfact>
</mgrwt>
</event>
<event>
 6    1  0.1001928E-005  0.9548441E+03  0.7818608E-02  0.9359506E-01
          1   -1    0    0  501    0  0.00000000000E+00  0.00000000000E+00  0.48904508500E+03  0.48904508500E+03  0.00000000000E+00 0. -1.
         -1   -1    0    0    0  501 -0.00000000000E+00 -0.00000000000E+00 -0.46607528971E+03  0.46607528971E+03  0.00000000000E+00 0.  1.
         23    2    1    2    0    0  0.25766946227E+03 -0.14261467635E+03  0.37847158585E+03  0.49347763320E+03  0.11639130327E+03 0.  0.
         11    1    3    3    0    0  0.41026602974E+02  0.16472926224E+02  0.30156927171E+02  0.53516163038E+02  0.00000000000E+00 0. -1.
        -11    1    3    3    0    0  0.21664285930E+03 -0.15908760258E+03  0.34831465868E+03  0.43996147016E+03  0.00000000000E+00 0.  1.
         22    1    1    2    0    0 -0.25766946227E+03  0.14261467635E+03 -0.35550179056E+03  0.46164274151E+03  0.00000000000E+00 0.  1.
<mgrwt>
<rscale>  0 0.95484413E+03</rscale>
<asrwt>0</asrwt>
<pdfrwt beam="1">  1        1 0.75237705E-01 0.95484413E+03</pdfrwt>
<pdfrwt beam="2">  1       -1 0.71703891E-01 0.95484413E+03</pdfrwt>
<totfact> 0.90227841E+01</totfact>
</mgrwt>
</event>
<event>
 6    1  0.1001928E-005  0.2115626E+04  0.7818608E-02  0.8554391E-01
         -2   -1    0    0    0  501 -0.00000000000E+00  0.00000000000E+00  0.93265675956E+03  0.93265675956E+03  0.00000000000E+00 0.  1.
          2   -1    0    0  501    0  0.00000000000E+00 -0.00000000000E+00 -0.11997641945E+04  0.11997641945E+04  0.00000000000E+00 0. -1.
         23    2    1    2    0    0  0.26424632091E+03 -0.14423030093E+03 -0.11538310580E+04  0.11959876775E+04  0.91825466918E+02 0.  0.
         13    1    3    3    0    0  0.21952942108E+03 -0.92003145594E+02 -0.76672552795E+03  0.80282362990E+03  0.00000000000E+00 0.  1.
        -13    1    3    3    0    0  0.44716899831E+02 -0.52227155339E+02 -0.38710553007E+03  0.39316404756E+03  0.00000000000E+00 0. -1.
         22    1    1    2    0    0 -0.26424632091E+03  0.14423030093E+03  0.88672362307E+03  0.93643327660E+03  0.00000000000E+00 0.  1.
<mgrwt>
<rscale>  0 0.21156259E+04</rscale>
<asrwt>0</asrwt>
<pdfrwt beam="1">  1        2 0.18457911E+00 0.21156259E+04</pdfrwt>
<pdfrwt beam="2">  1       -2 0.14348566E+00 0.21156259E+04</pdfrwt>
<totfact> 0.58743204E+00</totfact>
</mgrwt>
</event>
<event>
 6    1  0.1001928E-005  0.1765064E+04  0.7818608E-02  0.8725102E-01
         -2   -1    0    0    0  501 -0.00000000000E+00  0.00000000000E+00  0.36483334446E+03  0.36483334446E+03  0.00000000000E+00 0.  1.
          2   -1    0    0  501    0  0.00000000000E+00 -0.00000000000E+00 -0.21348454411E+04  0.21348454411E+04  0.00000000000E+00 0. -1.
         23    2    1    2    0    0 -0.36188916925E+03 -0.76162062728E+03 -0.52996277031E+03  0.10000948158E+04  0.91100778725E+02 0.  0.
         11    1    3    3    0    0 -0.37837504268E+02 -0.11379492351E+03 -0.11042226411E+03  0.16301545251E+03  0.00000000000E+00 0. -1.
        -11    1    3    3    0    0 -0.32405166498E+03 -0.64782570377E+03 -0.41954050620E+03  0.83707936326E+03  0.00000000000E+00 0.  1.
         22    1    1    2    0    0  0.36188916925E+03  0.76162062728E+03 -0.12400493263E+04  0.14995839698E+04  0.00000000000E+00 0. -1.
<mgrwt>
<rscale>  0 0.17650641E+04</rscale>
<asrwt>0</asrwt>
<pdfrwt beam="1">  1        2 0.32843775E+00 0.17650641E+04</pdfrwt>
<pdfrwt beam="2">  1       -2 0.56128209E-01 0.17650641E+04</pdfrwt>
<totfact> 0.15852535E+01</totfact>
</mgrwt>
</event>
<event>
 6    1  0.1001928E-005  0.1411550E+04  0.7818608E-02  0.8945501E-01
         -1   -1    0    0    0  501 -0.00000000000E+00  0.00000000000E+00  0.24790199486E+03  0.24790199486E+03  0.00000000000E+00 0.  1.
          1   -1    0    0  501    0  0.00000000000E+00 -0.00000000000E+00 -0.20093346678E+04  0.20093346678E+04  0.00000000000E+00 0. -1.
         23    2    1    2    0    0  0.10874812034E+03 -0.56040593341E+03 -0.15401233838E+04  0.16449795555E+04  0.89981868744E+02 0.  0.
         11    1    3    3    0    0  0.21819292732E+02 -0.23571326060E+03 -0.74573652925E+03  0.78240641217E+03  0.00000000000E+00 0. -1.
        -11    1    3    3    0    0  0.86928827605E+02 -0.32469267281E+03 -0.79438685455E+03  0.86257314329E+03  0.00000000000E+00 0.  1.
         22    1    1    2    0    0 -0.10874812034E+03  0.56040593341E+03 -0.22130928918E+03  0.61225710723E+03  0.00000000000E+00 0.  1.
<mgrwt>
<rscale>  0 0.14115496E+04</rscale>
<asrwt>0</asrwt>
<pdfrwt beam="1">  1        1 0.30912840E+00 0.14115496E+04</pdfrwt>
<pdfrwt beam="2">  1       -1 0.38138769E-01 0.14115496E+04</pdfrwt>
<totfact> 0.19027355E+01</totfact>
</mgrwt>
</event>
<event>
 6    1  0.1001928E-005  0.1504664E+04  0.7818608E-02  0.8881357E-01
         -2   -1    0    0    0  501 -0.00000000000E+00  0.00000000000E+00  0.67452052641E+03  0.67452052641E+03  0.00000000000E+00 0.  1.
          2   -1    0    0  501    0  0.00000000000E+00 -0.00000000000E+00 -0.83911950759E+03  0.83911950759E+03  0.00000000000E+00 0. -1.
         23    2    1    2    0    0 -0.25543727540E+03  0.51972632433E+03  0.39626478295E+03  0.70745654633E+03  0.90029622134E+02 0.  0.
         11    1    3    3    0    0 -0.80395357209E+02  0.26547376890E+03  0.18689069296E+03  0.33446654025E+03  0.00000000000E+00 0. -1.
        -11    1    3    3    0    0 -0.17504191820E+03  0.25425255543E+03  0.20937409000E+03  0.37299000608E+03  0.00000000000E+00 0.  1.
         22    1    1    2    0    0  0.25543727540E+03 -0.51972632433E+03 -0.56086376414E+03  0.80618348767E+03  0.00000000000E+00 0. -1.
<mgrwt>
<rscale>  0 0.15046639E+04</rscale>
<asrwt>0</asrwt>
<pdfrwt beam="1">  1        2 0.12909531E+00 0.15046639E+04</pdfrwt>
<pdfrwt beam="2">  1       -2 0.10377239E+00 0.15046639E+04</pdfrwt>
<totfact> 0.23594177E+01</totfact>
</mgrwt>
</event>
<event>
 6    1  0.1001928E-005  0.3209944E+04  0.7818608E-02  0.8186196E-01
          2   -1    0    0  501    0  0.00000000000E+00  0.00000000000E+00  0.15520482232E+04  0.15520482232E+04  0.00000000000E+00 0.  1.
         -2   -1    0    0    0  501 -0.00000000000E+00 -0.00000000000E+00 -0.16597007628E+04  0.16597007628E+04  0.00000000000E+00 0. -1.
         23    2    1    2    0    0  0.22073536111E+03  0.14921456454E+04  0.49111360360E+03  0.15888677146E+04  0.89918384259E+02 0.  0.
         13    1    3    3    0    0  0.86436745332E+02  0.88647434772E+03  0.28840112662E+03  0.93620686280E+03  0.00000000000E+00 0. -1.
        -13    1    3    3    0    0  0.13429861578E+03  0.60567129773E+03  0.20271247698E+03  0.65266085176E+03  0.00000000000E+00 0.  1.
         22    1    1    2    0    0 -0.22073536111E+03 -0.14921456454E+04 -0.59876614315E+03  0.16228812714E+04  0.00000000000E+00 0. -1.
<mgrwt>
<rscale>  0 0.32099443E+04</rscale>
<asrwt>0</asrwt>
<pdfrwt beam="1">  1        2 0.23877665E+00 0.32099443E+04</pdfrwt>
<pdfrwt beam="2">  1       -2 0.25533858E+00 0.32099443E+04</pdfrwt>
<totfact> 0.59483185E-01</totfact>
</mgrwt>
</event>
<event>
 6    1  0.1001928E-005  0.1492675E+04  0.7818608E-02  0.8889338E-01
         -1   -1    0    0    0  501 -0.00000000000E+00  0.00000000000E+00  0.14808436759E+04  0.14808436759E+04  0.00000000000E+00 0.  1.
          1   -1    0    0  501    0  0.00000000000E+00 -0.00000000000E+00 -0.37615039514E+03  0.37615039514E+03  0.00000000000E+00 0. -1.
         23    2    1    2    0    0  0.35042404844E+03  0.86794484372E+02  0.13630557958E+04  0.14130554656E+04  0.92056233696E+02 0.  0.
         13    1    3    3    0    0  0.22659083023E+03  0.60668436766E+02  0.70681912523E+03  0.74472635200E+03  0.00000000000E+00 0.  1.
        -13    1    3    3    0    0  0.12383321821E+03  0.26126047606E+02  0.65623667057E+03  0.66832911360E+03  0.00000000000E+00 0. -1.
         22    1    1    2    0    0 -0.35042404844E+03 -0.86794484372E+02 -0.25836251502E+03  0.44393860545E+03  0.00000000000E+00 0. -1.
<mgrwt>
<rscale>  0 0.14926754E+04</rscale>
<asrwt>0</asrwt>
<pdfrwt beam="1">  1        1 0.57869292E-01 0.14926754E+04</pdfrwt>
<pdfrwt beam="2">  1       -1 0.22782210E+00 0.14926754E+04</pdfrwt>
<totfact> 0.61510775E+00</totfact>
</mgrwt>
</event>
<event>
 6    1  0.1001928E-005  0.1733613E+04  0.7818608E-02  0.8742422E-01
          2   -1    0    0  501    0  0.00000000000E+00  0.00000000000E+00  0.12734949625E+04  0.12734949625E+04  0.00000000000E+00 0. -1.
         -2   -1    0    0    0  501 -0.00000000000E+00 -0.00000000000E+00 -0.58999363324E+03  0.58999363324E+03  0.00000000000E+00 0.  1.
         23    2    1    2    0    0 -0.43432966416E+03  0.68027266560E+03  0.67494100869E+03  0.10563414989E+04  0.94333665424E+02 0.  0.
         11    1    3    3    0    0 -0.18333185142E+03  0.37345862062E+03  0.33506387047E+03  0.53418134220E+03  0.00000000000E+00 0.  1.
        -11    1    3    3    0    0 -0.25099781274E+03  0.30681404497E+03  0.33987713822E+03  0.52216015673E+03  0.00000000000E+00 0. -1.
         22    1    1    2    0    0  0.43432966416E+03 -0.68027266560E+03  0.85603205309E+01  0.80714709676E+03  0.00000000000E+00 0.  1.
<mgrwt>
<rscale>  0 0.17336135E+04</rscale>
<asrwt>0</asrwt>
<pdfrwt beam="1">  1        2 0.19592230E+00 0.17336135E+04</pdfrwt>
<pdfrwt beam="2">  1       -2 0.90768251E-01 0.17336135E+04</pdfrwt>
<totfact> 0.16851570E+01</totfact>
</mgrwt>
</event>
<event>
 6    1  0.1001928E-005  0.6973264E+03  0.7818608E-02  0.9721815E-01
          2   -1    0    0  501    0  0.00000000000E+00  0.00000000000E+00  0.94670809338E+03  0.94670809338E+03  0.00000000000E+00 0. -1.
         -2   -1    0    0    0  501 -0.00000000000E+00 -0.00000000000E+00 -0.12840920772E+03  0.12840920772E+03  0.00000000000E+00 0.  1.
         23    2    1    2    0    0  0.26660065627E+03  0.11128757691E+03  0.13098111751E+03  0.32955271698E+03  0.89376201660E+02 0.  0.
         11    1    3    3    0    0  0.10650599476E+03  0.97051561305E+01  0.78975661737E+02  0.13294687707E+03  0.00000000000E+00 0. -1.
        -11    1    3    3    0    0  0.16009466151E+03  0.10158242078E+03  0.52005455775E+02  0.19660583991E+03  0.00000000000E+00 0.  1.
         22    1    1    2    0    0 -0.26660065627E+03 -0.11128757691E+03  0.68731776815E+03  0.74556458413E+03  0.00000000000E+00 0. -1.
<mgrwt>
<rscale>  0 0.69732643E+03</rscale>
<asrwt>0</asrwt>
<pdfrwt beam="1">  1        2 0.14564739E+00 0.69732643E+03</pdfrwt>
<pdfrwt beam="2">  1       -2 0.19755263E-01 0.69732643E+03</pdfrwt>
<totfact> 0.59892430E+02</totfact>
</mgrwt>
</event>
<event>
 6    1  0.1001928E-005  0.1825147E+04  0.7818608E-02  0.8693040E-01
          2   -1    0    0  501    0  0.00000000000E+00  0.00000000000E+00  0.86772527179E+03  0.86772527179E+03  0.00000000000E+00 0. -1.
         -2   -1    0    0    0  501 -0.00000000000E+00 -0.00000000000E+00 -0.95973967307E+03  0.95973967307E+03  0.00000000000E+00 0.  1.
         23    2    1    2    0    0  0.65426103455E+00  0.86496073618E+03  0.23770500765E+03  0.90179092458E+03  0.92551055181E+02 0.  0.
         11    1    3    3    0    0 -0.34691755715E+02  0.28750801289E+03  0.10658334617E+03  0.30858448611E+03  0.00000000000E+00 0.  1.
        -11    1    3    3    0    0  0.35346016749E+02  0.57745272329E+03  0.13112166149E+03  0.59320643847E+03  0.00000000000E+00 0. -1.
         22    1    1    2    0    0 -0.65426103455E+00 -0.86496073618E+03 -0.32971940893E+03  0.92567402027E+03  0.00000000000E+00 0.  1.
<mgrwt>
<rscale>  0 0.18251470E+04</rscale>
<asrwt>0</asrwt>
<pdfrwt beam="1">  1        2 0.13349620E+00 0.18251470E+04</pdfrwt>
<pdfrwt beam="2">  1       -2 0.14765226E+00 0.18251470E+04</pdfrwt>
<totfact> 0.90781124E+00</totfact>
</mgrwt>
</event>
<event>
 6    1  0.1001928E-005  0.2215181E+04  0.7818608E-02  0.8512136E-01
          2   -1    0    0  501    0  0.00000000000E+00  0.00000000000E+00  0.73037885472E+03  0.73037885472E+03  0.00000000000E+00 0. -1.
         -2   -1    0    0    0  501 -0.00000000000E+00 -0.00000000000E+00 -0.16796172180E+04  0.16796172180E+04  0.00000000000E+00 0.  1.
         23    2    1    2    0    0 -0.95797259964E+02 -0.10116857796E+04 -0.94951128091E+03  0.13937848219E+04  0.91538109310E+02 0.  0.
         13    1    3    3    0    0  0.52400610240E+01 -0.35305098189E+03 -0.35692269338E+03  0.50206201122E+03  0.00000000000E+00 0. -1.
        -13    1    3    3    0    0 -0.10103732099E+03 -0.65863479773E+03 -0.59258858753E+03  0.89172281068E+03  0.00000000000E+00 0.  1.
         22    1    1    2    0    0  0.95797259964E+02  0.10116857796E+04  0.27291767698E+00  0.10162112508E+04  0.00000000000E+00 0. -1.
<mgrwt>
<rscale>  0 0.22151812E+04</rscale>
<asrwt>0</asrwt>
<pdfrwt beam="1">  1        2 0.11236598E+00 0.22151812E+04</pdfrwt>
<pdfrwt beam="2">  1       -2 0.25840265E+00 0.22151812E+04</pdfrwt>
<totfact> 0.20214218E+00</totfact>
</mgrwt>
</event>
<event>
 6    1  0.1001928E-005  0.1704960E+04  0.7818608E-02  0.8758541E-01
         -3   -1    0    0    0  501 -0.00000000000E+00  0.00000000000E+00  0.16087273049E+04  0.16087273049E+04  0.00000000000E+00 0.  1.
          3   -1    0    0  501    0  0.00000000000E+00 -0.00000000000E+00 -0.45173728474E+03  0.45173728474E+03  0.00000000000E+00 0. -1.
         23    2    1    2    0    0  0.17520748605E+03  0.21677489452E+03 -0.39042711228E+03  0.48814502929E+03  0.90350548195E+02 0.  0.
         11    1    3    3    0    0  0.12944187609E+03  0.21004305476E+03 -0.32656535298E+03  0.40928988982E+03  0.00000000000E+00 0. -1.
        -11    1    3    3    0    0  0.45765609957E+02  0.67318397634E+01 -0.63861759299E+02  0.78855139478E+02  0.00000000000E+00 0.  1.
         22    1    1    2    0    0 -0.17520748605E+03 -0.21677489452E+03  0.15474171325E+04  0.15723195604E+04  0.00000000000E+00 0.  1.
<mgrwt>
<rscale>  0 0.17049599E+04</rscale>
<asrwt>0</asrwt>
<pdfrwt beam="1">  1        3 0.69498044E-01 0.17049599E+04</pdfrwt>
<pdfrwt beam="2">  1       -3 0.24749651E+00 0.17049599E+04</pdfrwt>
<totfact> 0.37351437E-01</totfact>
</mgrwt>
</event>
<event>
 6    1  0.1001928E-005  0.1985615E+04  0.7818608E-02  0.8613376E-01
          2   -1    0    0  501    0  0.00000000000E+00  0.00000000000E+00  0.12667271991E+04  0.12667271991E+04  0.00000000000E+00 0. -1.
         -2   -1    0    0    0  501 -0.00000000000E+00 -0.00000000000E+00 -0.77812071591E+03  0.77812071591E+03  0.00000000000E+00 0.  1.
         23    2    1    2    0    0  0.41565087965E+03  0.44101025135E+03 -0.56228924928E+03  0.83173722919E+03  0.91443550965E+02 0.  0.
         13    1    3    3    0    0  0.21421750128E+03  0.19784057841E+03 -0.21454588006E+03  0.36202205316E+03  0.00000000000E+00 0.  1.
        -13    1    3    3    0    0  0.20143337837E+03  0.24316967295E+03 -0.34774336921E+03  0.46971517603E+03  0.00000000000E+00 0. -1.
         22    1    1    2    0    0 -0.41565087965E+03 -0.44101025135E+03  0.10508957324E+04  0.12131106858E+04  0.00000000000E+00 0. -1.
<mgrwt>
<rscale>  0 0.19856149E+04</rscale>
<asrwt>0</asrwt>
<pdfrwt beam="1">  1        2 0.19488111E+00 0.19856149E+04</pdfrwt>
<pdfrwt beam="2">  1       -2 0.11971088E+00 0.19856149E+04</pdfrwt>
<totfact> 0.85928425E+00</totfact>
</mgrwt>
</event>
<event>
 6    1  0.1001928E-005  0.9776804E+03  0.7818608E-02  0.9333369E-01
         -1   -1    0    0    0  501 -0.00000000000E+00  0.00000000000E+00  0.56144705614E+03  0.56144705614E+03  0.00000000000E+00 0.  1.
          1   -1    0    0  501    0  0.00000000000E+00 -0.00000000000E+00 -0.42562292607E+03  0.42562292607E+03  0.00000000000E+00 0. -1.
         23    2    1    2    0    0  0.13414532784E+03 -0.20696851601E+03  0.48968149944E+03  0.55573951325E+03  0.90705568143E+02 0.  0.
         13    1    3    3    0    0  0.26474080891E+02 -0.10031263444E+03  0.13680572913E+03  0.17169539629E+03  0.00000000000E+00 0. -1.
        -13    1    3    3    0    0  0.10767124695E+03 -0.10665588157E+03  0.35287577031E+03  0.38404411695E+03  0.00000000000E+00 0.  1.
         22    1    1    2    0    0 -0.13414532784E+03  0.20696851601E+03 -0.35385736937E+03  0.43133046897E+03  0.00000000000E+00 0. -1.
<mgrwt>
<rscale>  0 0.97768040E+03</rscale>
<asrwt>0</asrwt>
<pdfrwt beam="1">  1        1 0.65480450E-01 0.97768040E+03</pdfrwt>
<pdfrwt beam="2">  1       -1 0.86376471E-01 0.97768040E+03</pdfrwt>
<totfact> 0.73314780E+01</totfact>
</mgrwt>
</event>
<event>
 6    1  0.1001928E-005  0.1409783E+04  0.7818608E-02  0.8946767E-01
          2   -1    0    0  501    0  0.00000000000E+00  0.00000000000E+00  0.11232090866E+04  0.11232090866E+04  0.00000000000E+00 0. -1.
         -2   -1    0    0    0  501 -0.00000000000E+00 -0.00000000000E+00 -0.44236836161E+03  0.44236836161E+03  0.00000000000E+00 0.  1.
         23    2    1    2    0    0  0.70089989447E+03 -0.27166053120E+02  0.31179265441E+03  0.77298982851E+03  0.91104111506E+02 0.  0.
         13    1    3    3    0    0  0.40063600483E+03 -0.87595845552E+01  0.22646112980E+03  0.46029401691E+03  0.00000000000E+00 0. -1.
        -13    1    3    3    0    0  0.30026388963E+03 -0.18406468565E+02  0.85331524611E+02  0.31269581161E+03  0.00000000000E+00 0.  1.
         22    1    1    2    0    0 -0.70089989447E+03  0.27166053120E+02  0.36904807057E+03  0.79258761970E+03  0.00000000000E+00 0.  1.
<mgrwt>
<rscale>  0 0.14097832E+04</rscale>
<asrwt>0</asrwt>
<pdfrwt beam="1">  1        2 0.17280140E+00 0.14097832E+04</pdfrwt>
<pdfrwt beam="2">  1       -2 0.68056671E-01 0.14097832E+04</pdfrwt>
<totfact> 0.40533307E+01</totfact>
</mgrwt>
</event>
<event>
 6    1  0.1019254E-005  0.2386943E+04  0.7818608E-02  0.8444408E-01
          2   -1    0    0  501    0  0.00000000000E+00  0.00000000000E+00  0.99735846746E+03  0.99735846746E+03  0.00000000000E+00 0. -1.
         -2   -1    0    0    0  501 -0.00000000000E+00 -0.00000000000E+00 -0.14281468481E+04  0.14281468481E+04  0.00000000000E+00 0.  1.
         23    2    1    2    0    0  0.18069773690E+02  0.73692970584E+03  0.73570114454E+03  0.10456177403E+04  0.93104117149E+02 0.  0.
         11    1    3    3    0    0 -0.33698217802E+02  0.33201718206E+03  0.35901599738E+03  0.49016677309E+03  0.00000000000E+00 0.  1.
        -11    1    3    3    0    0  0.51767991491E+02  0.40491252378E+03  0.37668514716E+03  0.55545096719E+03  0.00000000000E+00 0. -1.
         22    1    1    2    0    0 -0.18069773690E+02 -0.73692970584E+03 -0.11664895251E+04  0.13798875752E+04  0.00000000000E+00 0.  1.
<mgrwt>
<rscale>  0 0.23869431E+04</rscale>
<asrwt>0</asrwt>
<pdfrwt beam="1">  1        2 0.15343976E+00 0.23869431E+04</pdfrwt>
<pdfrwt beam="2">  1       -2 0.21971490E+00 0.23869431E+04</pdfrwt>
<totfact> 0.22587564E+00</totfact>
</mgrwt>
</event>
<event>
 6    1  0.1001928E-005  0.1532508E+04  0.7818608E-02  0.8863119E-01
          2   -1    0    0  501    0  0.00000000000E+00  0.00000000000E+00  0.26141546598E+04  0.26141546598E+04  0.00000000000E+00 0. -1.
         -2   -1    0    0    0  501 -0.00000000000E+00 -0.00000000000E+00 -0.22460237503E+03  0.22460237503E+03  0.00000000000E+00 0.  1.
         23    2    1    2    0    0  0.44272781557E+03 -0.62152443680E+03  0.12506344742E+04  0.14678324113E+04  0.90248852161E+02 0.  0.
         11    1    3    3    0    0  0.83107659340E+02 -0.99468648184E+02  0.27965426183E+03  0.30823270620E+03  0.00000000000E+00 0.  1.
        -11    1    3    3    0    0  0.35962015623E+03 -0.52205578862E+03  0.97098021234E+03  0.11595997051E+04  0.00000000000E+00 0. -1.
         22    1    1    2    0    0 -0.44272781557E+03  0.62152443680E+03  0.11389178106E+04  0.13709246236E+04  0.00000000000E+00 0.  1.
<mgrwt>
<rscale>  0 0.15325082E+04</rscale>
<asrwt>0</asrwt>
<pdfrwt beam="1">  1        2 0.40217762E+00 0.15325082E+04</pdfrwt>
<pdfrwt beam="2">  1       -2 0.34554213E-01 0.15325082E+04</pdfrwt>
<totfact> 0.22667042E+01</totfact>
</mgrwt>
</event>
<event>
 6    1  0.1001928E-005  0.2528539E+04  0.7818608E-02  0.8392888E-01
         -2   -1    0    0    0  501 -0.00000000000E+00  0.00000000000E+00  0.83950948207E+03  0.83950948207E+03  0.00000000000E+00 0.  1.
          2   -1    0    0  501    0  0.00000000000E+00 -0.00000000000E+00 -0.19039426522E+04  0.19039426522E+04  0.00000000000E+00 0. -1.
         23    2    1    2    0    0  0.54457598890E+03  0.35415502614E+03 -0.17075305510E+04  0.18293607649E+04  0.94400399436E+02 0.  0.
         13    1    3    3    0    0  0.42483102903E+03  0.31628400806E+03 -0.14218938973E+04  0.15173329338E+04  0.00000000000E+00 0. -1.
        -13    1    3    3    0    0  0.11974495987E+03  0.37871018076E+02 -0.28563665377E+03  0.31202783114E+03  0.00000000000E+00 0.  1.
         22    1    1    2    0    0 -0.54457598890E+03 -0.35415502614E+03  0.64309738087E+03  0.91409136934E+03  0.00000000000E+00 0.  1.
<mgrwt>
<rscale>  0 0.25285394E+04</rscale>
<asrwt>0</asrwt>
<pdfrwt beam="1">  1        2 0.29291425E+00 0.25285394E+04</pdfrwt>
<pdfrwt beam="2">  1       -2 0.12915531E+00 0.25285394E+04</pdfrwt>
<totfact> 0.29684293E+00</totfact>
</mgrwt>
</event>
<event>
 6    1  0.1001928E-005  0.3397438E+04  0.7818608E-02  0.8138536E-01
          2   -1    0    0  501    0  0.00000000000E+00  0.00000000000E+00  0.18783360247E+04  0.18783360247E+04  0.00000000000E+00 0. -1.
         -2   -1    0    0    0  501 -0.00000000000E+00 -0.00000000000E+00 -0.15362775774E+04  0.15362775774E+04  0.00000000000E+00 0.  1.
         23    2    1    2    0    0  0.90171337943E+03 -0.12684673456E+04  0.85234541733E+03  0.17767829585E+04  0.91479754332E+02 0.  0.
         13    1    3    3    0    0  0.45461893447E+03 -0.56827110457E+03  0.42019402079E+03  0.84034126340E+03  0.00000000000E+00 0.  1.
        -13    1    3    3    0    0  0.44709444496E+03 -0.70019624107E+03  0.43215139654E+03  0.93644169506E+03  0.00000000000E+00 0. -1.
         22    1    1    2    0    0 -0.90171337943E+03  0.12684673456E+04 -0.51028696995E+03  0.16378306437E+04  0.00000000000E+00 0.  1.
<mgrwt>
<rscale>  0 0.33974376E+04</rscale>
<asrwt>0</asrwt>
<pdfrwt beam="1">  1        2 0.28897477E+00 0.33974376E+04</pdfrwt>
<pdfrwt beam="2">  1       -2 0.23635040E+00 0.33974376E+04</pdfrwt>
<totfact> 0.50486342E-01</totfact>
</mgrwt>
</event>
<event>
 6    1  0.1001928E-005  0.3856349E+04  0.7818608E-02  0.8034169E-01
         -1   -1    0    0    0  501 -0.00000000000E+00  0.00000000000E+00  0.13040524511E+04  0.13040524511E+04  0.00000000000E+00 0.  1.
          1   -1    0    0  501    0  0.00000000000E+00 -0.00000000000E+00 -0.28510032671E+04  0.28510032671E+04  0.00000000000E+00 0. -1.
         23    2    1    2    0    0  0.16131399331E+04  0.22442688342E+03 -0.18837919241E+04  0.24919111660E+04  0.91440561110E+02 0.  0.
         13    1    3    3    0    0  0.73445701214E+03  0.56889639525E+02 -0.83908146351E+03  0.11165667182E+04  0.00000000000E+00 0. -1.
        -13    1    3    3    0    0  0.87868292096E+03  0.16753724389E+03 -0.10447104605E+04  0.13753444478E+04  0.00000000000E+00 0.  1.
         22    1    1    2    0    0 -0.16131399331E+04 -0.22442688342E+03  0.33684110802E+03  0.16631445523E+04  0.00000000000E+00 0.  1.
<mgrwt>
<rscale>  0 0.38563495E+04</rscale>
<asrwt>0</asrwt>
<pdfrwt beam="1">  1        1 0.43861588E+00 0.38563495E+04</pdfrwt>
<pdfrwt beam="2">  1       -1 0.20062346E+00 0.38563495E+04</pdfrwt>
<totfact> 0.90392937E-02</totfact>
</mgrwt>
</event>
<event>
 6    1  0.1001928E-005  0.6086441E+04  0.7818608E-02  0.7679776E-01
          2   -1    0    0  501    0  0.00000000000E+00  0.00000000000E+00  0.36183619984E+04  0.36183619984E+04  0.00000000000E+00 0. -1.
         -2   -1    0    0    0  501 -0.00000000000E+00 -0.00000000000E+00 -0.25594986041E+04  0.25594986041E+04  0.00000000000E+00 0.  1.
         23    2    1    2    0    0 -0.99704472566E+02 -0.29466959212E+04 -0.23283728045E+03  0.29589402141E+04  0.90311446953E+02 0.  0.
         13    1    3    3    0    0 -0.72848044606E+02 -0.11391920090E+04 -0.62483176229E+02  0.11432276318E+04  0.00000000000E+00 0.  1.
        -13    1    3    3    0    0 -0.26856427960E+02 -0.18075039122E+04 -0.17035410422E+03  0.18157125822E+04  0.00000000000E+00 0. -1.
         22    1    1    2    0    0  0.99704472566E+02  0.29466959212E+04  0.12917006748E+04  0.32189203884E+04  0.00000000000E+00 0. -1.
<mgrwt>
<rscale>  0 0.60864415E+04</rscale>
<asrwt>0</asrwt>
<pdfrwt beam="1">  1        2 0.55667107E+00 0.60864415E+04</pdfrwt>
<pdfrwt beam="2">  1       -2 0.39376902E+00 0.60864415E+04</pdfrwt>
<totfact> 0.36438423E-03</totfact>
</mgrwt>
</event>
<event>
 6    1  0.1001928E-005  0.2150879E+04  0.7818608E-02  0.8539156E-01
         -1   -1    0    0    0  501 -0.00000000000E+00  0.00000000000E+00  0.15944548415E+04  0.15944548415E+04  0.00000000000E+00 0.  1.
          1   -1    0    0  501    0  0.00000000000E+00 -0.00000000000E+00 -0.72537008703E+03  0.72537008703E+03  0.00000000000E+00 0. -1.
         23    2    1    2    0    0 -0.32102027785E+03  0.93617684819E+03  0.88337894526E+03  0.13300343276E+04  0.95665258900E+02 0.  0.
         13    1    3    3    0    0 -0.12625903836E+03  0.50399661713E+03  0.43712764162E+03  0.67899522083E+03  0.00000000000E+00 0. -1.
        -13    1    3    3    0    0 -0.19476123949E+03  0.43218023107E+03  0.44625130365E+03  0.65103910676E+03  0.00000000000E+00 0.  1.
         22    1    1    2    0    0  0.32102027785E+03 -0.93617684819E+03 -0.14294190753E+02  0.98979060097E+03  0.00000000000E+00 0. -1.
<mgrwt>
<rscale>  0 0.21508787E+04</rscale>
<asrwt>0</asrwt>
<pdfrwt beam="1">  1        1 0.11159540E+00 0.21508787E+04</pdfrwt>
<pdfrwt beam="2">  1       -1 0.24530074E+00 0.21508787E+04</pdfrwt>
<totfact> 0.17674937E+00</totfact>
</mgrwt>
</event>
<event>
 6    1  0.1001928E-005  0.8473229E+03  0.7818608E-02  0.9493937E-01
          1   -1    0    0  501    0  0.00000000000E+00  0.00000000000E+00  0.19048885505E+04  0.19048885505E+04  0.00000000000E+00 0. -1.
         -1   -1    0    0    0  501 -0.00000000000E+00 -0.00000000000E+00 -0.94225465963E+02  0.94225465963E+02  0.00000000000E+00 0.  1.
         23    2    1    2    0    0  0.21883993879E+03  0.23814994117E+03  0.28751613963E+03  0.44200678538E+03  0.89989746560E+02 0.  0.
         13    1    3    3    0    0  0.48279126056E+01  0.51103724152E+02  0.48865811115E+02  0.70871481276E+02  0.00000000000E+00 0.  1.
        -13    1    3    3    0    0  0.21401202619E+03  0.18704621702E+03  0.23865032851E+03  0.37113530411E+03  0.00000000000E+00 0. -1.
         22    1    1    2    0    0 -0.21883993879E+03 -0.23814994117E+03  0.15231469449E+04  0.15571072310E+04  0.00000000000E+00 0. -1.
<mgrwt>
<rscale>  0 0.84732287E+03</rscale>
<asrwt>0</asrwt>
<pdfrwt beam="1">  1        1 0.29305975E+00 0.84732287E+03</pdfrwt>
<pdfrwt beam="2">  1       -1 0.14496227E-01 0.84732287E+03</pdfrwt>
<totfact> 0.12252650E+02</totfact>
</mgrwt>
</event>
<event>
 6    1  0.1001928E-005  0.1362608E+04  0.7818608E-02  0.8981339E-01
         -2   -1    0    0    0  501 -0.00000000000E+00  0.00000000000E+00  0.41150219301E+03  0.41150219301E+03  0.00000000000E+00 0.  1.
          2   -1    0    0  501    0  0.00000000000E+00 -0.00000000000E+00 -0.11280009924E+04  0.11280009924E+04  0.00000000000E+00 0. -1.
         23    2    1    2    0    0 -0.10089871275E+03  0.54376073864E+02 -0.11150129617E+04  0.11248336240E+04  0.94124754006E+02 0.  0.
         11    1    3    3    0    0 -0.56826729212E+02 -0.20981778478E+02 -0.49980994967E+03  0.50346747459E+03  0.00000000000E+00 0. -1.
        -11    1    3    3    0    0 -0.44071983535E+02  0.75357852343E+02 -0.61520301203E+03  0.62136614943E+03  0.00000000000E+00 0.  1.
         22    1    1    2    0    0  0.10089871275E+03 -0.54376073864E+02  0.39851416228E+03  0.41466956143E+03  0.00000000000E+00 0.  1.
<mgrwt>
<rscale>  0 0.13626076E+04</rscale>
<asrwt>0</asrwt>
<pdfrwt beam="1">  1        2 0.17353861E+00 0.13626076E+04</pdfrwt>
<pdfrwt beam="2">  1       -2 0.63308031E-01 0.13626076E+04</pdfrwt>
<totfact> 0.47214454E+01</totfact>
</mgrwt>
</event>
<event>
 6    1  0.1001928E-005  0.7382317E+03  0.7818608E-02  0.9653996E-01
          1   -1    0    0  501    0  0.00000000000E+00  0.00000000000E+00  0.78823817283E+03  0.78823817283E+03  0.00000000000E+00 0. -1.
         -1   -1    0    0    0  501 -0.00000000000E+00 -0.00000000000E+00 -0.17284940330E+03  0.17284940330E+03  0.00000000000E+00 0.  1.
         23    2    1    2    0    0  0.20910610217E+03  0.16077257762E+03 -0.14067913784E+02  0.27860028698E+03  0.88583463619E+02 0.  0.
         13    1    3    3    0    0  0.77544794675E+02  0.82395418333E+02 -0.46048293489E+02  0.12215828043E+03  0.00000000000E+00 0. -1.
        -13    1    3    3    0    0  0.13156130750E+03  0.78377159285E+02  0.31980379705E+02  0.15644200655E+03  0.00000000000E+00 0.  1.
         22    1    1    2    0    0 -0.20910610217E+03 -0.16077257762E+03  0.62945668332E+03  0.68248728915E+03  0.00000000000E+00 0. -1.
<mgrwt>
<rscale>  0 0.73823167E+03</rscale>
<asrwt>0</asrwt>
<pdfrwt beam="1">  1        1 0.12126741E+00 0.73823167E+03</pdfrwt>
<pdfrwt beam="2">  1       -1 0.26592216E-01 0.73823167E+03</pdfrwt>
<totfact> 0.28817887E+02</totfact>
</mgrwt>
</event>
<event>
 6    1  0.1001928E-005  0.1403405E+04  0.7818608E-02  0.8951358E-01
          1   -1    0    0  501    0  0.00000000000E+00  0.00000000000E+00  0.53818580920E+03  0.53818580920E+03  0.00000000000E+00 0. -1.
         -1   -1    0    0    0  501 -0.00000000000E+00 -0.00000000000E+00 -0.91489992060E+03  0.91489992060E+03  0.00000000000E+00 0.  1.
         23    2    1    2    0    0 -0.67180707186E+02 -0.30975754054E+03  0.45550003921E+03  0.56255590221E+03  0.92335670523E+02 0.  0.
         13    1    3    3    0    0 -0.39908939862E+02 -0.40627405348E+02  0.54360225236E+02  0.78729560103E+02  0.00000000000E+00 0. -1.
        -13    1    3    3    0    0 -0.27271767324E+02 -0.26913013519E+03  0.40113981397E+03  0.48382634211E+03  0.00000000000E+00 0.  1.
         22    1    1    2    0    0  0.67180707186E+02  0.30975754054E+03 -0.83221415061E+03  0.89052982758E+03  0.00000000000E+00 0.  1.
<mgrwt>
<rscale>  0 0.14034047E+04</rscale>
<asrwt>0</asrwt>
<pdfrwt beam="1">  1        1 0.82797818E-01 0.14034047E+04</pdfrwt>
<pdfrwt beam="2">  1       -1 0.14075383E+00 0.14034047E+04</pdfrwt>
<totfact> 0.16117220E+01</totfact>
</mgrwt>
</event>
<event>
 6    1  0.1001928E-005  0.2630546E+04  0.7818608E-02  0.8357899E-01
          1   -1    0    0  501    0  0.00000000000E+00  0.00000000000E+00  0.12472642608E+04  0.12472642608E+04  0.00000000000E+00 0. -1.
         -1   -1    0    0    0  501 -0.00000000000E+00 -0.00000000000E+00 -0.13869897870E+04  0.13869897870E+04  0.00000000000E+00 0.  1.
         23    2    1    2    0    0  0.10027089956E+04  0.80403172190E+03 -0.34473217090E+03  0.13327472042E+04  0.74043913408E+02 0.  0.
         13    1    3    3    0    0  0.81957722974E+03  0.68046148635E+03 -0.26332868789E+03  0.10973042731E+04  0.00000000000E+00 0. -1.
        -13    1    3    3    0    0  0.18313176582E+03  0.12357023555E+03 -0.81403483007E+02  0.23544293111E+03  0.00000000000E+00 0.  1.
         22    1    1    2    0    0 -0.10027089956E+04 -0.80403172190E+03  0.20500664467E+03  0.13015068436E+04  0.00000000000E+00 0.  1.
<mgrwt>
<rscale>  0 0.26305458E+04</rscale>
<asrwt>0</asrwt>
<pdfrwt beam="1">  1        1 0.19188681E+00 0.26305458E+04</pdfrwt>
<pdfrwt beam="2">  1       -1 0.21338305E+00 0.26305458E+04</pdfrwt>
<totfact> 0.10574448E+00</totfact>
</mgrwt>
</event>
<event>
 6    1  0.1001928E-005  0.1989726E+04  0.7818608E-02  0.8611439E-01
         -2   -1    0    0    0  501 -0.00000000000E+00  0.00000000000E+00  0.79056235448E+03  0.79056235448E+03  0.00000000000E+00 0.  1.
          2   -1    0    0  501    0  0.00000000000E+00 -0.00000000000E+00 -0.12519598159E+04  0.12519598159E+04  0.00000000000E+00 0. -1.
         23    2    1    2    0    0  0.90899795427E+03  0.17724636336E+03 -0.59837287868E+03  0.11063299791E+04  0.90677265548E+02 0.  0.
         13    1    3    3    0    0  0.58770083576E+03  0.15851705559E+03 -0.39146575186E+03  0.72371635614E+03  0.00000000000E+00 0. -1.
        -13    1    3    3    0    0  0.32129711851E+03  0.18729307769E+02 -0.20690712682E+03  0.38261362295E+03  0.00000000000E+00 0.  1.
         22    1    1    2    0    0 -0.90899795427E+03 -0.17724636336E+03  0.13697541721E+03  0.93619219134E+03  0.00000000000E+00 0.  1.
<mgrwt>
<rscale>  0 0.19897259E+04</rscale>
<asrwt>0</asrwt>
<pdfrwt beam="1">  1        2 0.19260920E+00 0.19897259E+04</pdfrwt>
<pdfrwt beam="2">  1       -2 0.12162498E+00 0.19897259E+04</pdfrwt>
<totfact> 0.84242468E+00</totfact>
</mgrwt>
</event>
<event>
 6    1  0.1001928E-005  0.1485421E+04  0.7818608E-02  0.8894206E-01
          2   -1    0    0  501    0  0.00000000000E+00  0.00000000000E+00  0.48731178595E+03  0.48731178595E+03  0.00000000000E+00 0. -1.
         -2   -1    0    0    0  501 -0.00000000000E+00 -0.00000000000E+00 -0.11319622646E+04  0.11319622646E+04  0.00000000000E+00 0.  1.
         23    2    1    2    0    0  0.75110999636E+02  0.49000783657E+03 -0.92219777773E+03  0.10511351191E+04  0.93203836900E+02 0.  0.
         11    1    3    3    0    0  0.71978226378E+02  0.32706920746E+03 -0.69560052850E+03  0.77202022434E+03  0.00000000000E+00 0. -1.
        -11    1    3    3    0    0  0.31327732587E+01  0.16293862911E+03 -0.22659724923E+03  0.27911489478E+03  0.00000000000E+00 0.  1.
         22    1    1    2    0    0 -0.75110999636E+02 -0.49000783657E+03  0.27754729909E+03  0.56813893143E+03  0.00000000000E+00 0. -1.
<mgrwt>
<rscale>  0 0.14854206E+04</rscale>
<asrwt>0</asrwt>
<pdfrwt beam="1">  1        2 0.74971043E-01 0.14854206E+04</pdfrwt>
<pdfrwt beam="2">  1       -2 0.17414804E+00 0.14854206E+04</pdfrwt>
<totfact> 0.12211837E+01</totfact>
</mgrwt>
</event>
<event>
 6    1  0.1001928E-005  0.1137046E+04  0.7818608E-02  0.9169818E-01
          1   -1    0    0  501    0  0.00000000000E+00  0.00000000000E+00  0.11805596125E+04  0.11805596125E+04  0.00000000000E+00 0. -1.
         -1   -1    0    0    0  501 -0.00000000000E+00 -0.00000000000E+00 -0.27378381842E+03  0.27378381842E+03  0.00000000000E+00 0.  1.
         23    2    1    2    0    0 -0.28818840710E+03 -0.52030825597E+02  0.10741377918E+04  0.11170456350E+04  0.90880086375E+02 0.  0.
         13    1    3    3    0    0 -0.70271561744E+02 -0.34230885079E+02  0.42351193387E+03  0.43066483954E+03  0.00000000000E+00 0.  1.
        -13    1    3    3    0    0 -0.21791684536E+03 -0.17799940518E+02  0.65062585794E+03  0.68638079548E+03  0.00000000000E+00 0. -1.
         22    1    1    2    0    0  0.28818840710E+03  0.52030825597E+02 -0.16736199776E+03  0.33729779587E+03  0.00000000000E+00 0.  1.
<mgrwt>
<rscale>  0 0.11370455E+04</rscale>
<asrwt>0</asrwt>
<pdfrwt beam="1">  1        1 0.18162455E+00 0.11370455E+04</pdfrwt>
<pdfrwt beam="2">  1       -1 0.42120588E-01 0.11370455E+04</pdfrwt>
<totfact> 0.60757831E+01</totfact>
</mgrwt>
</event>
<event>
 6    1  0.1001928E-005  0.2878514E+04  0.7818608E-02  0.8279299E-01
         -2   -1    0    0    0  501 -0.00000000000E+00  0.00000000000E+00  0.47064401508E+03  0.47064401508E+03  0.00000000000E+00 0.  1.
          2   -1    0    0  501    0  0.00000000000E+00 -0.00000000000E+00 -0.44013308256E+04  0.44013308256E+04  0.00000000000E+00 0. -1.
         23    2    1    2    0    0 -0.56454441129E+03  0.50298445314E+03  0.10254955116E+03  0.76847641841E+03  0.91300836736E+02 0.  0.
         11    1    3    3    0    0 -0.78298059637E+02  0.97339997540E+02 -0.99907535500E+01  0.12532149225E+03  0.00000000000E+00 0. -1.
        -11    1    3    3    0    0 -0.48624635165E+03  0.40564445560E+03  0.11254030471E+03  0.64315492615E+03  0.00000000000E+00 0.  1.
         22    1    1    2    0    0  0.56454441129E+03 -0.50298445314E+03 -0.40332363617E+04  0.41034984223E+04  0.00000000000E+00 0. -1.
<mgrwt>
<rscale>  0 0.28785135E+04</rscale>
<asrwt>0</asrwt>
<pdfrwt beam="1">  1        2 0.67712779E+00 0.28785135E+04</pdfrwt>
<pdfrwt beam="2">  1       -2 0.72406775E-01 0.28785135E+04</pdfrwt>
<totfact> 0.22848334E-01</totfact>
</mgrwt>
</event>
<event>
 6    1  0.1001928E-005  0.1365139E+04  0.7818608E-02  0.8979447E-01
          1   -1    0    0  501    0  0.00000000000E+00  0.00000000000E+00  0.65789368918E+03  0.65789368918E+03  0.00000000000E+00 0. -1.
         -1   -1    0    0    0  501 -0.00000000000E+00 -0.00000000000E+00 -0.70817074871E+03  0.70817074871E+03  0.00000000000E+00 0.  1.
         23    2    1    2    0    0 -0.20004410172E+03 -0.27401230229E+03  0.56424146286E+03  0.66411472544E+03  0.87060643781E+02 0.  0.
         13    1    3    3    0    0 -0.17116284550E+02 -0.69044002662E+02  0.16286941051E+03  0.17772587426E+03  0.00000000000E+00 0. -1.
        -13    1    3    3    0    0 -0.18292781717E+03 -0.20496829963E+03  0.40137205235E+03  0.48638885118E+03  0.00000000000E+00 0.  1.
         22    1    1    2    0    0  0.20004410172E+03  0.27401230229E+03 -0.61451852239E+03  0.70194971244E+03  0.00000000000E+00 0.  1.
<mgrwt>
<rscale>  0 0.13651389E+04</rscale>
<asrwt>0</asrwt>
<pdfrwt beam="1">  1        1 0.10121441E+00 0.13651389E+04</pdfrwt>
<pdfrwt beam="2">  1       -1 0.10894935E+00 0.13651389E+04</pdfrwt>
<totfact> 0.22843256E+01</totfact>
</mgrwt>
</event>
<event>
 6    1  0.1001928E-005  0.6328836E+04  0.7818608E-02  0.7650915E-01
          1   -1    0    0  501    0  0.00000000000E+00  0.00000000000E+00  0.22113142166E+04  0.22113142166E+04  0.00000000000E+00 0. -1.
         -1   -1    0    0    0  501 -0.00000000000E+00 -0.00000000000E+00 -0.45283216842E+04  0.45283216842E+04  0.00000000000E+00 0.  1.
         23    2    1    2    0    0  0.11666138035E+04  0.29848884629E+03 -0.42741687824E+04  0.44416881708E+04  0.99958329302E+02 0.  0.
         11    1    3    3    0    0  0.91491127386E+03  0.20984401184E+03 -0.34483604999E+04  0.35738336959E+04  0.00000000000E+00 0. -1.
        -11    1    3    3    0    0  0.25170252965E+03  0.88644834455E+02 -0.82580828253E+03  0.86785447490E+03  0.00000000000E+00 0.  1.
         22    1    1    2    0    0 -0.11666138035E+04 -0.29848884629E+03  0.19571613148E+04  0.22979477301E+04  0.00000000000E+00 0. -1.
<mgrwt>
<rscale>  0 0.63288363E+04</rscale>
<asrwt>0</asrwt>
<pdfrwt beam="1">  1        1 0.34020219E+00 0.63288363E+04</pdfrwt>
<pdfrwt beam="2">  1       -1 0.69666487E+00 0.63288363E+04</pdfrwt>
<totfact> 0.29274988E-04</totfact>
</mgrwt>
</event>
<event>
 6    1  0.1001928E-005  0.2779850E+04  0.7818608E-02  0.8309551E-01
          2   -1    0    0  501    0  0.00000000000E+00  0.00000000000E+00  0.34934388916E+04  0.34934388916E+04  0.00000000000E+00 0. -1.
         -2   -1    0    0    0  501 -0.00000000000E+00 -0.00000000000E+00 -0.55300579601E+03  0.55300579601E+03  0.00000000000E+00 0.  1.
         23    2    1    2    0    0  0.11117802948E+04  0.70140544631E+03  0.82124968338E+03  0.15526597413E+04  0.90973654734E+02 0.  0.
         13    1    3    3    0    0  0.88493329579E+02  0.52049600166E+02  0.94440252540E+02  0.13949620625E+03  0.00000000000E+00 0.  1.
        -13    1    3    3    0    0  0.10232869652E+04  0.64935584615E+03  0.72680943084E+03  0.14131635350E+04  0.00000000000E+00 0. -1.
         22    1    1    2    0    0 -0.11117802948E+04 -0.70140544631E+03  0.21191834122E+04  0.24937849463E+04  0.00000000000E+00 0. -1.
<mgrwt>
<rscale>  0 0.27798503E+04</rscale>
<asrwt>0</asrwt>
<pdfrwt beam="1">  1        2 0.53745213E+00 0.27798503E+04</pdfrwt>
<pdfrwt beam="2">  1       -2 0.85077817E-01 0.27798503E+04</pdfrwt>
<totfact> 0.86097182E-01</totfact>
</mgrwt>
</event>
<event>
 6    1  0.1001928E-005  0.4184455E+04  0.7818608E-02  0.7968336E-01
          2   -1    0    0  501    0  0.00000000000E+00  0.00000000000E+00  0.47036163757E+04  0.47036163757E+04  0.00000000000E+00 0. -1.
         -2   -1    0    0    0  501 -0.00000000000E+00 -0.00000000000E+00 -0.93064916245E+03  0.93064916245E+03  0.00000000000E+00 0.  1.
         23    2    1    2    0    0 -0.20065946806E+04 -0.14624780849E+03  0.11193465205E+04  0.23041734352E+04  0.92021478379E+02 0.  0.
         11    1    3    3    0    0 -0.10590177703E+04 -0.10473801050E+03  0.63391406558E+03  0.12386830633E+04  0.00000000000E+00 0.  1.
        -11    1    3    3    0    0 -0.94757691030E+03 -0.41509797992E+02  0.48543245497E+03  0.10654903719E+04  0.00000000000E+00 0. -1.
         22    1    1    2    0    0  0.20065946806E+04  0.14624780849E+03  0.26536206927E+04  0.33300921030E+04  0.00000000000E+00 0.  1.
<mgrwt>
<rscale>  0 0.41844553E+04</rscale>
<asrwt>0</asrwt>
<pdfrwt beam="1">  1        2 0.72363328E+00 0.41844553E+04</pdfrwt>
<pdfrwt beam="2">  1       -2 0.14317680E+00 0.41844553E+04</pdfrwt>
<totfact> 0.19829876E-02</totfact>
</mgrwt>
</event>
<event>
 6    1  0.1001928E-005  0.1322556E+04  0.7818608E-02  0.9011866E-01
          1   -1    0    0  501    0  0.00000000000E+00  0.00000000000E+00  0.58762875085E+03  0.58762875085E+03  0.00000000000E+00 0. -1.
         -1   -1    0    0    0  501 -0.00000000000E+00 -0.00000000000E+00 -0.74415845023E+03  0.74415845023E+03  0.00000000000E+00 0.  1.
         23    2    1    2    0    0 -0.42309533435E+03 -0.16844643389E+02  0.42872163240E+03  0.60942127904E+03  0.91096944531E+02 0.  0.
         13    1    3    3    0    0 -0.15817043692E+03 -0.22071680759E+02  0.22133803118E+03  0.27293876648E+03  0.00000000000E+00 0.  1.
        -13    1    3    3    0    0 -0.26492489744E+03  0.52270373704E+01  0.20738360122E+03  0.33648251256E+03  0.00000000000E+00 0. -1.
         22    1    1    2    0    0  0.42309533435E+03  0.16844643389E+02 -0.58525133178E+03  0.72236592203E+03  0.00000000000E+00 0.  1.
<mgrwt>
<rscale>  0 0.13225565E+04</rscale>
<asrwt>0</asrwt>
<pdfrwt beam="1">  1        1 0.90404423E-01 0.13225565E+04</pdfrwt>
<pdfrwt beam="2">  1       -1 0.11448592E+00 0.13225565E+04</pdfrwt>
<totfact> 0.24030173E+01</totfact>
</mgrwt>
</event>
<event>
 6    1  0.1001928E-005  0.1611138E+04  0.7818608E-02  0.8813734E-01
          1   -1    0    0  501    0  0.00000000000E+00  0.00000000000E+00  0.15470482837E+04  0.15470482837E+04  0.00000000000E+00 0. -1.
         -1   -1    0    0    0  501 -0.00000000000E+00 -0.00000000000E+00 -0.41947084885E+03  0.41947084885E+03  0.00000000000E+00 0.  1.
         23    2    1    2    0    0  0.15701009795E+03  0.33876165344E+02  0.15259083723E+04  0.15370225654E+04  0.90786786374E+02 0.  0.
         13    1    3    3    0    0  0.55543292879E+02  0.32473921957E+02  0.95507093813E+03  0.95723566056E+03  0.00000000000E+00 0.  1.
        -13    1    3    3    0    0  0.10146680507E+03  0.14022433869E+01  0.57083743414E+03  0.57978690485E+03  0.00000000000E+00 0. -1.
         22    1    1    2    0    0 -0.15701009795E+03 -0.33876165344E+02 -0.39833093745E+03  0.42949656712E+03  0.00000000000E+00 0.  1.
<mgrwt>
<rscale>  0 0.16111383E+04</rscale>
<asrwt>0</asrwt>
<pdfrwt beam="1">  1        1 0.23800743E+00 0.16111383E+04</pdfrwt>
<pdfrwt beam="2">  1       -1 0.64533977E-01 0.16111383E+04</pdfrwt>
<totfact> 0.14165285E+01</totfact>
</mgrwt>
</event>
<event>
 6    1  0.1001928E-005  0.1398915E+04  0.7818608E-02  0.8954604E-01
         -1   -1    0    0    0  501 -0.00000000000E+00  0.00000000000E+00  0.28608315952E+03  0.28608315952E+03  0.00000000000E+00 0.  1.
          1   -1    0    0  501    0  0.00000000000E+00 -0.00000000000E+00 -0.17101356521E+04  0.17101356521E+04  0.00000000000E+00 0. -1.
         23    2    1    2    0    0  0.43241468919E+03  0.39857163961E+03 -0.18240563541E+03  0.62234518815E+03  0.90553310567E+02 0.  0.
         13    1    3    3    0    0  0.11831701567E+03  0.59200415938E+02 -0.32475480840E+02  0.13622871320E+03  0.00000000000E+00 0. -1.
        -13    1    3    3    0    0  0.31409767352E+03  0.33937122367E+03 -0.14993015457E+03  0.48611647495E+03  0.00000000000E+00 0.  1.
         22    1    1    2    0    0 -0.43241468919E+03 -0.39857163961E+03 -0.12416468572E+04  0.13738736235E+04  0.00000000000E+00 0. -1.
<mgrwt>
<rscale>  0 0.13989153E+04</rscale>
<asrwt>0</asrwt>
<pdfrwt beam="1">  1        1 0.26309780E+00 0.13989153E+04</pdfrwt>
<pdfrwt beam="2">  1       -1 0.44012792E-01 0.13989153E+04</pdfrwt>
<totfact> 0.23351814E+01</totfact>
</mgrwt>
</event>
<event>
 6    1  0.1001928E-005  0.3982678E+04  0.7818608E-02  0.8008050E-01
         -2   -1    0    0    0  501 -0.00000000000E+00  0.00000000000E+00  0.13744617091E+04  0.13744617091E+04  0.00000000000E+00 0.  1.
          2   -1    0    0  501    0  0.00000000000E+00 -0.00000000000E+00 -0.28850787472E+04  0.28850787472E+04  0.00000000000E+00 0. -1.
         23    2    1    2    0    0 -0.14990700521E+04  0.10093218275E+04  0.13612170506E+03  0.18146089520E+04  0.91295988382E+02 0.  0.
         11    1    3    3    0    0 -0.45580374332E+03  0.33113359090E+03  0.79783078173E+02  0.56900953156E+03  0.00000000000E+00 0. -1.
        -11    1    3    3    0    0 -0.10432663088E+04  0.67818823663E+03  0.56338626891E+02  0.12455994204E+04  0.00000000000E+00 0.  1.
         22    1    1    2    0    0  0.14990700521E+04 -0.10093218275E+04 -0.16467387431E+04  0.24449315043E+04  0.00000000000E+00 0.  1.
<mgrwt>
<rscale>  0 0.39826776E+04</rscale>
<asrwt>0</asrwt>
<pdfrwt beam="1">  1        2 0.44385827E+00 0.39826776E+04</pdfrwt>
<pdfrwt beam="2">  1       -2 0.21145565E+00 0.39826776E+04</pdfrwt>
<totfact> 0.18158652E-01</totfact>
</mgrwt>
</event>
<event>
 6    1  0.1001928E-005  0.3892391E+04  0.7818608E-02  0.8026614E-01
          2   -1    0    0  501    0  0.00000000000E+00  0.00000000000E+00  0.44342649757E+04  0.44342649757E+04  0.00000000000E+00 0.  1.
         -2   -1    0    0    0  501 -0.00000000000E+00 -0.00000000000E+00 -0.85418388177E+03  0.85418388177E+03  0.00000000000E+00 0. -1.
         23    2    1    2    0    0  0.11737127285E+04  0.97159532961E+03  0.34337926685E+04  0.37577629468E+04  0.90836230221E+02 0.  0.
         11    1    3    3    0    0  0.14927037450E+03  0.88876765611E+02  0.41798936390E+03  0.45265420853E+03  0.00000000000E+00 0. -1.
        -11    1    3    3    0    0  0.10244423540E+04  0.88271856400E+03  0.30158033046E+04  0.33051087383E+04  0.00000000000E+00 0.  1.
         22    1    1    2    0    0 -0.11737127285E+04 -0.97159532961E+03  0.14628842547E+03  0.15306859107E+04  0.00000000000E+00 0.  1.
<mgrwt>
<rscale>  0 0.38923914E+04</rscale>
<asrwt>0</asrwt>
<pdfrwt beam="1">  1        2 0.68219460E+00 0.38923914E+04</pdfrwt>
<pdfrwt beam="2">  1       -2 0.13141291E+00 0.38923914E+04</pdfrwt>
<totfact> 0.47598946E-02</totfact>
</mgrwt>
</event>
<event>
 6    1  0.1001928E-005  0.2889226E+04  0.7818608E-02  0.8276090E-01
         -2   -1    0    0    0  501 -0.00000000000E+00  0.00000000000E+00  0.80802563805E+03  0.80802563805E+03  0.00000000000E+00 0.  1.
          2   -1    0    0  501    0  0.00000000000E+00 -0.00000000000E+00 -0.25827234263E+04  0.25827234263E+04  0.00000000000E+00 0. -1.
         23    2    1    2    0    0 -0.73175636786E+03 -0.42183528885E+02  0.57133394752E+03  0.93288174953E+03  0.81234518662E+02 0.  0.
         13    1    3    3    0    0 -0.21527436183E+03 -0.49633308302E+02  0.17033274055E+03  0.27896193048E+03  0.00000000000E+00 0. -1.
        -13    1    3    3    0    0 -0.51648200603E+03  0.74497794177E+01  0.40100120697E+03  0.65391981906E+03  0.00000000000E+00 0.  1.
         22    1    1    2    0    0  0.73175636786E+03  0.42183528885E+02 -0.23460317358E+04  0.24578673149E+04  0.00000000000E+00 0. -1.
<mgrwt>
<rscale>  0 0.28892260E+04</rscale>
<asrwt>0</asrwt>
<pdfrwt beam="1">  1        2 0.39734206E+00 0.28892260E+04</pdfrwt>
<pdfrwt beam="2">  1       -2 0.12431164E+00 0.28892260E+04</pdfrwt>
<totfact> 0.13078980E+00</totfact>
</mgrwt>
</event>
<event>
 6    1  0.1001928E-005  0.1830982E+04  0.7818608E-02  0.8689995E-01
          3   -1    0    0  501    0  0.00000000000E+00  0.00000000000E+00  0.87839794362E+03  0.87839794362E+03  0.00000000000E+00 0. -1.
         -3   -1    0    0    0  501 -0.00000000000E+00 -0.00000000000E+00 -0.95415077264E+03  0.95415077264E+03  0.00000000000E+00 0.  1.
         23    2    1    2    0    0 -0.27556894799E+03  0.85845745991E+03  0.11257546091E+03  0.91148682889E+03  0.72439970141E+02 0.  0.
         13    1    3    3    0    0 -0.70885145674E+02  0.33188371491E+03  0.33379518470E+02  0.34100688608E+03  0.00000000000E+00 0. -1.
        -13    1    3    3    0    0 -0.20468380232E+03  0.52657374500E+03  0.79195942436E+02  0.57047994281E+03  0.00000000000E+00 0.  1.
         22    1    1    2    0    0  0.27556894799E+03 -0.85845745991E+03 -0.18832828992E+03  0.92106188737E+03  0.00000000000E+00 0.  1.
<mgrwt>
<rscale>  0 0.18309823E+04</rscale>
<asrwt>0</asrwt>
<pdfrwt beam="1">  1        3 0.13513815E+00 0.18309823E+04</pdfrwt>
<pdfrwt beam="2">  1       -3 0.14679243E+00 0.18309823E+04</pdfrwt>
<totfact> 0.35475273E-01</totfact>
</mgrwt>
</event>
<event>
 6    1  0.1001928E-005  0.1657011E+04  0.7818608E-02  0.8786269E-01
         -2   -1    0    0    0  501 -0.00000000000E+00  0.00000000000E+00  0.97456476590E+03  0.97456476590E+03  0.00000000000E+00 0.  1.
          2   -1    0    0  501    0  0.00000000000E+00 -0.00000000000E+00 -0.70433671575E+03  0.70433671575E+03  0.00000000000E+00 0. -1.
         23    2    1    2    0    0  0.33837671841E+03  0.75052873424E+03  0.68052179864E+02  0.83115902842E+03  0.91662679655E+02 0.  0.
         13    1    3    3    0    0  0.22632805755E+03  0.40304479491E+03  0.17519398198E+02  0.46257585934E+03  0.00000000000E+00 0. -1.
        -13    1    3    3    0    0  0.11204866086E+03  0.34748393934E+03  0.50532781666E+02  0.36858316907E+03  0.00000000000E+00 0.  1.
         22    1    1    2    0    0 -0.33837671841E+03 -0.75052873424E+03  0.20217587029E+03  0.84774245323E+03  0.00000000000E+00 0. -1.
<mgrwt>
<rscale>  0 0.16570115E+04</rscale>
<asrwt>0</asrwt>
<pdfrwt beam="1">  1        2 0.10835950E+00 0.16570115E+04</pdfrwt>
<pdfrwt beam="2">  1       -2 0.14993304E+00 0.16570115E+04</pdfrwt>
<totfact> 0.11636412E+01</totfact>
</mgrwt>
</event>
<event>
 6    1  0.1001928E-005  0.2469653E+04  0.7818608E-02  0.8413877E-01
         -2   -1    0    0    0  501 -0.00000000000E+00  0.00000000000E+00  0.56559067931E+03  0.56559067931E+03  0.00000000000E+00 0.  1.
          2   -1    0    0  501    0  0.00000000000E+00 -0.00000000000E+00 -0.26959355333E+04  0.26959355333E+04  0.00000000000E+00 0. -1.
         23    2    1    2    0    0 -0.11467904442E+03 -0.66164139245E+03 -0.24326028562E+04  0.25251292305E+04  0.88319643185E+02 0.  0.
         13    1    3    3    0    0 -0.54050006346E+02 -0.30840458592E+03 -0.12999069676E+04  0.13370837357E+04  0.00000000000E+00 0. -1.
        -13    1    3    3    0    0 -0.60629038075E+02 -0.35323680653E+03 -0.11326958886E+04  0.11880454948E+04  0.00000000000E+00 0.  1.
         22    1    1    2    0    0  0.11467904442E+03  0.66164139245E+03  0.30225800217E+03  0.73639698215E+03  0.00000000000E+00 0.  1.
<mgrwt>
<rscale>  0 0.24696526E+04</rscale>
<asrwt>0</asrwt>
<pdfrwt beam="1">  1        2 0.41475932E+00 0.24696526E+04</pdfrwt>
<pdfrwt beam="2">  1       -2 0.87013950E-01 0.24696526E+04</pdfrwt>
<totfact> 0.27266890E+00</totfact>
</mgrwt>
</event>
<event>
 6    1  0.1001928E-005  0.3076368E+04  0.7818608E-02  0.8222254E-01
         -1   -1    0    0    0  501 -0.00000000000E+00  0.00000000000E+00  0.80107677838E+03  0.80107677838E+03  0.00000000000E+00 0.  1.
          1   -1    0    0  501    0  0.00000000000E+00 -0.00000000000E+00 -0.29535373515E+04  0.29535373515E+04  0.00000000000E+00 0. -1.
         23    2    1    2    0    0  0.31865241281E+03  0.65824916088E+03  0.57253626378E+03  0.93318912129E+03  0.90624746963E+02 0.  0.
         13    1    3    3    0    0  0.30967043763E+02  0.10216123718E+03  0.12036479300E+03  0.16088368337E+03  0.00000000000E+00 0. -1.
        -13    1    3    3    0    0  0.28768536905E+03  0.55608792370E+03  0.45217147078E+03  0.77230543792E+03  0.00000000000E+00 0.  1.
         22    1    1    2    0    0 -0.31865241281E+03 -0.65824916088E+03 -0.27249968369E+04  0.28214250086E+04  0.00000000000E+00 0. -1.
<mgrwt>
<rscale>  0 0.30763681E+04</rscale>
<asrwt>0</asrwt>
<pdfrwt beam="1">  1        1 0.45439037E+00 0.30763681E+04</pdfrwt>
<pdfrwt beam="2">  1       -1 0.12324258E+00 0.30763681E+04</pdfrwt>
<totfact> 0.31647065E-01</totfact>
</mgrwt>
</event>
<event>
 6    1  0.1001928E-005  0.4346308E+04  0.7818608E-02  0.7938110E-01
          1   -1    0    0  501    0  0.00000000000E+00  0.00000000000E+00  0.44111261888E+04  0.44111261888E+04  0.00000000000E+00 0. -1.
         -1   -1    0    0    0  501 -0.00000000000E+00 -0.00000000000E+00 -0.10706106353E+04  0.10706106353E+04  0.00000000000E+00 0.  1.
         23    2    1    2    0    0 -0.71182635339E+03 -0.14484861672E+04  0.35046833827E+04  0.38594668065E+04  0.88710111968E+02 0.  0.
         13    1    3    3    0    0 -0.53886442852E+03 -0.10220844019E+04  0.24510571833E+04  0.27097440309E+04  0.00000000000E+00 0. -1.
        -13    1    3    3    0    0 -0.17296192487E+03 -0.42640176530E+03  0.10536261994E+04  0.11497227757E+04  0.00000000000E+00 0.  1.
         22    1    1    2    0    0  0.71182635339E+03  0.14484861672E+04 -0.16416782913E+03  0.16222700176E+04  0.00000000000E+00 0.  1.
<mgrwt>
<rscale>  0 0.43463081E+04</rscale>
<asrwt>0</asrwt>
<pdfrwt beam="1">  1        1 0.67863479E+00 0.43463081E+04</pdfrwt>
<pdfrwt beam="2">  1       -1 0.16470933E+00 0.43463081E+04</pdfrwt>
<totfact> 0.80706271E-03</totfact>
</mgrwt>
</event>
<event>
 6    1  0.1001928E-005  0.2684049E+04  0.7818608E-02  0.8340199E-01
          2   -1    0    0  501    0  0.00000000000E+00  0.00000000000E+00  0.21248397822E+04  0.21248397822E+04  0.00000000000E+00 0. -1.
         -2   -1    0    0    0  501 -0.00000000000E+00 -0.00000000000E+00 -0.84760726292E+03  0.84760726292E+03  0.00000000000E+00 0.  1.
         23    2    1    2    0    0 -0.10645358451E+04  0.58871581553E+03  0.15718831486E+02  0.12199517779E+04  0.90622192712E+02 0.  0.
         13    1    3    3    0    0 -0.16471040594E+03  0.90596429592E+02  0.35297211193E+02  0.19126715347E+03  0.00000000000E+00 0. -1.
        -13    1    3    3    0    0 -0.89982543917E+03  0.49811938594E+03 -0.19578379708E+02  0.10286846245E+04  0.00000000000E+00 0.  1.
         22    1    1    2    0    0  0.10645358451E+04 -0.58871581553E+03  0.12615136878E+04  0.17524952671E+04  0.00000000000E+00 0. -1.
<mgrwt>
<rscale>  0 0.26840489E+04</rscale>
<asrwt>0</asrwt>
<pdfrwt beam="1">  1        2 0.32689843E+00 0.26840489E+04</pdfrwt>
<pdfrwt beam="2">  1       -2 0.13040112E+00 0.26840489E+04</pdfrwt>
<totfact> 0.21541165E+00</totfact>
</mgrwt>
</event>
<event>
 6    1  0.1001928E-005  0.5651293E+04  0.7818608E-02  0.7735208E-01
         -2   -1    0    0    0  501 -0.00000000000E+00  0.00000000000E+00  0.44318860101E+04  0.44318860101E+04  0.00000000000E+00 0.  1.
          2   -1    0    0  501    0  0.00000000000E+00 -0.00000000000E+00 -0.18015529072E+04  0.18015529072E+04  0.00000000000E+00 0. -1.
         23    2    1    2    0    0  0.20887719009E+04  0.18940711122E+04  0.11288953189E+04  0.30389453971E+04  0.10154335704E+03 0.  0.
         11    1    3    3    0    0  0.59080010531E+03  0.58398806210E+03  0.36424583257E+03  0.90706220715E+03  0.00000000000E+00 0. -1.
        -11    1    3    3    0    0  0.14979717956E+04  0.13100830501E+04  0.76464948636E+03  0.21318831899E+04  0.00000000000E+00 0.  1.
         22    1    1    2    0    0 -0.20887719009E+04 -0.18940711122E+04  0.15014377839E+04  0.31944935203E+04  0.00000000000E+00 0.  1.
<mgrwt>
<rscale>  0 0.56512926E+04</rscale>
<asrwt>0</asrwt>
<pdfrwt beam="1">  1        2 0.27716199E+00 0.56512926E+04</pdfrwt>
<pdfrwt beam="2">  1       -2 0.68182861E+00 0.56512926E+04</pdfrwt>
<totfact> 0.15917171E-03</totfact>
</mgrwt>
</event>
<event>
 6    1  0.1001928E-005  0.1621493E+04  0.7818608E-02  0.8807452E-01
          2   -1    0    0  501    0  0.00000000000E+00  0.00000000000E+00  0.35957941164E+03  0.35957941164E+03  0.00000000000E+00 0. -1.
         -2   -1    0    0    0  501 -0.00000000000E+00 -0.00000000000E+00 -0.18279964074E+04  0.18279964074E+04  0.00000000000E+00 0.  1.
         23    2    1    2    0    0 -0.21066878512E+03 -0.66176243538E+03 -0.12939629403E+04  0.14715136183E+04  0.93281187630E+02 0.  0.
         13    1    3    3    0    0 -0.12264181232E+03 -0.50974176439E+03 -0.93864896704E+03  0.10751462988E+04  0.00000000000E+00 0.  1.
        -13    1    3    3    0    0 -0.88026972797E+02 -0.15202067099E+03 -0.35531397325E+03  0.39636731946E+03  0.00000000000E+00 0. -1.
         22    1    1    2    0    0  0.21066878512E+03  0.66176243538E+03 -0.17445405545E+03  0.71606220077E+03  0.00000000000E+00 0. -1.
<mgrwt>
<rscale>  0 0.16214930E+04</rscale>
<asrwt>0</asrwt>
<pdfrwt beam="1">  1        2 0.55319910E-01 0.16214930E+04</pdfrwt>
<pdfrwt beam="2">  1       -2 0.28123021E+00 0.16214930E+04</pdfrwt>
<totfact> 0.35586108E+00</totfact>
</mgrwt>
</event>
<event>
 6    1  0.1001928E-005  0.3686836E+04  0.7818608E-02  0.8070885E-01
         -2   -1    0    0    0  501 -0.00000000000E+00  0.00000000000E+00  0.20435605920E+04  0.20435605920E+04  0.00000000000E+00 0.  1.
          2   -1    0    0  501    0  0.00000000000E+00 -0.00000000000E+00 -0.16628766463E+04  0.16628766463E+04  0.00000000000E+00 0. -1.
         23    2    1    2    0    0 -0.70725534603E+03  0.20153805279E+03  0.18886200761E+04  0.20287307430E+04  0.89637742223E+02 0.  0.
         13    1    3    3    0    0 -0.58343749124E+03  0.19638632134E+03  0.15245380813E+04  0.16441360207E+04  0.00000000000E+00 0.  1.
        -13    1    3    3    0    0 -0.12381785479E+03  0.51517314549E+01  0.36408199477E+03  0.38459472230E+03  0.00000000000E+00 0. -1.
         22    1    1    2    0    0  0.70725534603E+03 -0.20153805279E+03 -0.15079361303E+04  0.16777064953E+04  0.00000000000E+00 0. -1.
<mgrwt>
<rscale>  0 0.36868356E+04</rscale>
<asrwt>0</asrwt>
<pdfrwt beam="1">  1        2 0.25582718E+00 0.36868356E+04</pdfrwt>
<pdfrwt beam="2">  1       -2 0.31439393E+00 0.36868356E+04</pdfrwt>
<totfact> 0.21579438E-01</totfact>
</mgrwt>
</event>
<event>
 6    1  0.1001928E-005  0.2687172E+04  0.7818608E-02  0.8339179E-01
         -2   -1    0    0    0  501 -0.00000000000E+00  0.00000000000E+00  0.10054121929E+04  0.10054121929E+04  0.00000000000E+00 0.  1.
          2   -1    0    0  501    0  0.00000000000E+00 -0.00000000000E+00 -0.17955060986E+04  0.17955060986E+04  0.00000000000E+00 0. -1.
         23    2    1    2    0    0 -0.35822916963E+03  0.46831289963E+03  0.86111421801E+03  0.10475976199E+04  0.91093176450E+02 0.  0.
         11    1    3    3    0    0 -0.38706709493E+02  0.70153957429E+02  0.17425858321E+03  0.19179635274E+03  0.00000000000E+00 0.  1.
        -11    1    3    3    0    0 -0.31952246014E+03  0.39815894220E+03  0.68685563480E+03  0.85580126714E+03  0.00000000000E+00 0. -1.
         22    1    1    2    0    0  0.35822916963E+03 -0.46831289963E+03 -0.16512081237E+04  0.17533206717E+04  0.00000000000E+00 0. -1.
<mgrwt>
<rscale>  0 0.26871723E+04</rscale>
<asrwt>0</asrwt>
<pdfrwt beam="1">  1        2 0.27623170E+00 0.26871723E+04</pdfrwt>
<pdfrwt beam="2">  1       -2 0.15467880E+00 0.26871723E+04</pdfrwt>
<totfact> 0.21042951E+00</totfact>
</mgrwt>
</event>
<event>
 6    1  0.1001928E-005  0.1875162E+04  0.7818608E-02  0.8667319E-01
          3   -1    0    0  501    0  0.00000000000E+00  0.00000000000E+00  0.17275978299E+04  0.17275978299E+04  0.00000000000E+00 0. -1.
         -3   -1    0    0    0  501 -0.00000000000E+00 -0.00000000000E+00 -0.50883270262E+03  0.50883270262E+03  0.00000000000E+00 0.  1.
         23    2    1    2    0    0  0.78155200054E+03  0.19908564551E+03  0.11758458438E+04  0.14287791915E+04  0.91312134692E+02 0.  0.
         13    1    3    3    0    0  0.37398230938E+03  0.55192726468E+02  0.50681537497E+03  0.63227433056E+03  0.00000000000E+00 0.  1.
        -13    1    3    3    0    0  0.40756969115E+03  0.14389291904E+03  0.66903046883E+03  0.79650486095E+03  0.00000000000E+00 0. -1.
         22    1    1    2    0    0 -0.78155200054E+03 -0.19908564551E+03  0.42919283524E+02  0.80765134104E+03  0.00000000000E+00 0.  1.
<mgrwt>
<rscale>  0 0.18751622E+04</rscale>
<asrwt>0</asrwt>
<pdfrwt beam="1">  1        3 0.26578428E+00 0.18751622E+04</pdfrwt>
<pdfrwt beam="2">  1       -3 0.78281955E-01 0.18751622E+04</pdfrwt>
<totfact> 0.22509445E-01</totfact>
</mgrwt>
</event>
<event>
 6    1  0.1001928E-005  0.7510891E+03  0.7818608E-02  0.9633643E-01
         -1   -1    0    0    0  501 -0.00000000000E+00  0.00000000000E+00  0.60282463263E+02  0.60282463263E+02  0.00000000000E+00 0.  1.
          1   -1    0    0  501    0  0.00000000000E+00 -0.00000000000E+00 -0.23395477041E+04  0.23395477041E+04  0.00000000000E+00 0. -1.
         23    2    1    2    0    0  0.36283469688E+03  0.57992367078E+02 -0.12972126878E+04  0.13512886332E+04  0.90598460154E+02 0.  0.
         13    1    3    3    0    0  0.31566158889E+03  0.42381117569E+02 -0.98681370291E+03  0.10369376462E+04  0.00000000000E+00 0.  1.
        -13    1    3    3    0    0  0.47173107985E+02  0.15611249509E+02 -0.31039898487E+03  0.31435098702E+03  0.00000000000E+00 0. -1.
         22    1    1    2    0    0 -0.36283469688E+03 -0.57992367078E+02 -0.98205255303E+03  0.10485415341E+04  0.00000000000E+00 0.  1.
<mgrwt>
<rscale>  0 0.75108907E+03</rscale>
<asrwt>0</asrwt>
<pdfrwt beam="1">  1        1 0.35993045E+00 0.75108907E+03</pdfrwt>
<pdfrwt beam="2">  1       -1 0.92742243E-02 0.75108907E+03</pdfrwt>
<totfact> 0.12900640E+02</totfact>
</mgrwt>
</event>
<event>
 6    1  0.1001928E-005  0.3364632E+04  0.7818608E-02  0.8146642E-01
          1   -1    0    0  501    0  0.00000000000E+00  0.00000000000E+00  0.17509034781E+04  0.17509034781E+04  0.00000000000E+00 0. -1.
         -1   -1    0    0    0  501 -0.00000000000E+00 -0.00000000000E+00 -0.16164153671E+04  0.16164153671E+04  0.00000000000E+00 0.  1.
         23    2    1    2    0    0  0.15624601659E+04  0.37095705488E+03  0.56417505646E+03  0.17049344801E+04  0.98067224207E+02 0.  0.
         13    1    3    3    0    0  0.79513514299E+03  0.13919244478E+03  0.29235284596E+03  0.85853632355E+03  0.00000000000E+00 0.  1.
        -13    1    3    3    0    0  0.76732502289E+03  0.23176461009E+03  0.27182221049E+03  0.84639815652E+03  0.00000000000E+00 0. -1.
         22    1    1    2    0    0 -0.15624601659E+04 -0.37095705488E+03 -0.42968694544E+03  0.16623843652E+04  0.00000000000E+00 0.  1.
<mgrwt>
<rscale>  0 0.33646321E+04</rscale>
<asrwt>0</asrwt>
<pdfrwt beam="1">  1        1 0.26936977E+00 0.33646321E+04</pdfrwt>
<pdfrwt beam="2">  1       -1 0.24867929E+00 0.33646321E+04</pdfrwt>
<totfact> 0.25820895E-01</totfact>
</mgrwt>
</event>
<event>
 6    1  0.1001928E-005  0.9286681E+03  0.7818608E-02  0.9390438E-01
         -2   -1    0    0    0  501 -0.00000000000E+00  0.00000000000E+00  0.17358692088E+03  0.17358692088E+03  0.00000000000E+00 0. -1.
          2   -1    0    0  501    0  0.00000000000E+00 -0.00000000000E+00 -0.12420641902E+04  0.12420641902E+04  0.00000000000E+00 0.  1.
         23    2    1    2    0    0  0.26813658998E+03 -0.80091663688E+02 -0.10956739786E+04  0.11344900070E+04  0.90852645384E+02 0.  0.
         13    1    3    3    0    0  0.12747131595E+03 -0.75169345202E+02 -0.67004463872E+03  0.68619179879E+03  0.00000000000E+00 0.  1.
        -13    1    3    3    0    0  0.14066527404E+03 -0.49223184855E+01 -0.42562933986E+03  0.44829820821E+03  0.00000000000E+00 0. -1.
         22    1    1    2    0    0 -0.26813658998E+03  0.80091663688E+02  0.27196709215E+02  0.28116110412E+03  0.00000000000E+00 0. -1.
<mgrwt>
<rscale>  0 0.92866807E+03</rscale>
<asrwt>0</asrwt>
<pdfrwt beam="1">  1        2 0.19108679E+00 0.92866807E+03</pdfrwt>
<pdfrwt beam="2">  1       -2 0.26705681E-01 0.92866807E+03</pdfrwt>
<totfact> 0.22741207E+02</totfact>
</mgrwt>
</event>
<event>
 6    1  0.1001928E-005  0.2391534E+04  0.7818608E-02  0.8442680E-01
          2   -1    0    0  501    0  0.00000000000E+00  0.00000000000E+00  0.24899763435E+04  0.24899763435E+04  0.00000000000E+00 0. -1.
         -2   -1    0    0    0  501 -0.00000000000E+00 -0.00000000000E+00 -0.57424600120E+03  0.57424600120E+03  0.00000000000E+00 0.  1.
         23    2    1    2    0    0  0.11229307770E+04  0.16225195482E+03  0.14365370649E+04  0.18325870806E+04  0.86240606827E+02 0.  0.
         11    1    3    3    0    0  0.39935489264E+03  0.63724577965E+02  0.57900256972E+03  0.70625004627E+03  0.00000000000E+00 0. -1.
        -11    1    3    3    0    0  0.72357588434E+03  0.98527376860E+02  0.85753449518E+03  0.11263370343E+04  0.00000000000E+00 0.  1.
         22    1    1    2    0    0 -0.11229307770E+04 -0.16225195482E+03  0.47919327741E+03  0.12316352641E+04  0.00000000000E+00 0.  1.
<mgrwt>
<rscale>  0 0.23915342E+04</rscale>
<asrwt>0</asrwt>
<pdfrwt beam="1">  1        2 0.38307328E+00 0.23915342E+04</pdfrwt>
<pdfrwt beam="2">  1       -2 0.88345540E-01 0.23915342E+04</pdfrwt>
<totfact> 0.35012481E+00</totfact>
</mgrwt>
</event>
<event>
 6    1  0.1001928E-005  0.1534194E+04  0.7818608E-02  0.8862028E-01
         -1   -1    0    0    0  501 -0.00000000000E+00  0.00000000000E+00  0.91582516311E+03  0.91582516311E+03  0.00000000000E+00 0.  1.
          1   -1    0    0  501    0  0.00000000000E+00 -0.00000000000E+00 -0.64252172548E+03  0.64252172548E+03  0.00000000000E+00 0. -1.
         23    2    1    2    0    0 -0.33866360433E+03  0.97097947653E+02 -0.55195099086E+03  0.66103650747E+03  0.90544572247E+02 0.  0.
         11    1    3    3    0    0 -0.27381826850E+03  0.11043444484E+03 -0.41978557045E+03  0.51321743533E+03  0.00000000000E+00 0.  1.
        -11    1    3    3    0    0 -0.64845335835E+02 -0.13336497187E+02 -0.13216542041E+03  0.14781907214E+03  0.00000000000E+00 0. -1.
         22    1    1    2    0    0  0.33866360433E+03 -0.97097947653E+02  0.82525442848E+03  0.89731038112E+03  0.00000000000E+00 0.  1.
<mgrwt>
<rscale>  0 0.15341937E+04</rscale>
<asrwt>0</asrwt>
<pdfrwt beam="1">  1        1 0.98849496E-01 0.15341937E+04</pdfrwt>
<pdfrwt beam="2">  1       -1 0.14089618E+00 0.15341937E+04</pdfrwt>
<totfact> 0.12322146E+01</totfact>
</mgrwt>
</event>
<event>
 6    1  0.1001928E-005  0.1226287E+04  0.7818608E-02  0.9090154E-01
         -1   -1    0    0    0  501 -0.00000000000E+00  0.00000000000E+00  0.32808117485E+03  0.32808117485E+03  0.00000000000E+00 0.  1.
          1   -1    0    0  501    0  0.00000000000E+00 -0.00000000000E+00 -0.11458891127E+04  0.11458891127E+04  0.00000000000E+00 0. -1.
         23    2    1    2    0    0 -0.20635491298E+03  0.88098218643E+02  0.27023593023E+03  0.36303234818E+03  0.91768085962E+02 0.  0.
         11    1    3    3    0    0 -0.77630050246E+02  0.61277074351E+02  0.17380205057E+03  0.19997114123E+03  0.00000000000E+00 0. -1.
        -11    1    3    3    0    0 -0.12872486273E+03  0.26821144292E+02  0.96433879658E+02  0.16306120695E+03  0.00000000000E+00 0.  1.
         22    1    1    2    0    0  0.20635491298E+03 -0.88098218643E+02 -0.10880438681E+04  0.11109379394E+04  0.00000000000E+00 0. -1.
<mgrwt>
<rscale>  0 0.12262865E+04</rscale>
<asrwt>0</asrwt>
<pdfrwt beam="1">  1        1 0.17629063E+00 0.12262865E+04</pdfrwt>
<pdfrwt beam="2">  1       -1 0.50474028E-01 0.12262865E+04</pdfrwt>
<totfact> 0.45608472E+01</totfact>
</mgrwt>
</event>
<event>
 6    1  0.1001928E-005  0.2680705E+04  0.7818608E-02  0.8341293E-01
          1   -1    0    0  501    0  0.00000000000E+00  0.00000000000E+00  0.27483468538E+04  0.27483468538E+04  0.00000000000E+00 0. -1.
         -1   -1    0    0    0  501 -0.00000000000E+00 -0.00000000000E+00 -0.65368178942E+03  0.65368178942E+03  0.00000000000E+00 0.  1.
         23    2    1    2    0    0 -0.10526959216E+04  0.80218490042E+03  0.13044924445E+04  0.18605870818E+04  0.91730221414E+02 0.  0.
         11    1    3    3    0    0 -0.41067110623E+03  0.25949565237E+03  0.46090930677E+03  0.66964627988E+03  0.00000000000E+00 0. -1.
        -11    1    3    3    0    0 -0.64202481540E+03  0.54268924805E+03  0.84358313770E+03  0.11909408019E+04  0.00000000000E+00 0.  1.
         22    1    1    2    0    0  0.10526959216E+04 -0.80218490042E+03  0.79017261991E+03  0.15414415614E+04  0.00000000000E+00 0.  1.
<mgrwt>
<rscale>  0 0.26807046E+04</rscale>
<asrwt>0</asrwt>
<pdfrwt beam="1">  1        1 0.42282259E+00 0.26807046E+04</pdfrwt>
<pdfrwt beam="2">  1       -1 0.10056643E+00 0.26807046E+04</pdfrwt>
<totfact> 0.74596928E-01</totfact>
</mgrwt>
</event>
<event>
 6    1  0.1001928E-005  0.1311994E+04  0.7818608E-02  0.9020108E-01
         -1   -1    0    0    0  501 -0.00000000000E+00  0.00000000000E+00  0.20697166494E+03  0.20697166494E+03  0.00000000000E+00 0.  1.
          1   -1    0    0  501    0  0.00000000000E+00 -0.00000000000E+00 -0.20791824483E+04  0.20791824483E+04  0.00000000000E+00 0. -1.
         23    2    1    2    0    0 -0.14400868931E+03 -0.63379285372E+03 -0.10473363482E+04  0.12359875941E+04  0.91214158010E+02 0.  0.
         13    1    3    3    0    0 -0.68732712228E+02 -0.16041970528E+03 -0.23393406501E+03  0.29186266350E+03  0.00000000000E+00 0.  1.
        -13    1    3    3    0    0 -0.75275977082E+02 -0.47337314844E+03 -0.81340228317E+03  0.94412493064E+03  0.00000000000E+00 0. -1.
         22    1    1    2    0    0  0.14400868931E+03  0.63379285372E+03 -0.82487443520E+03  0.10501665191E+04  0.00000000000E+00 0.  1.
<mgrwt>
<rscale>  0 0.13119937E+04</rscale>
<asrwt>0</asrwt>
<pdfrwt beam="1">  1        1 0.31987424E+00 0.13119937E+04</pdfrwt>
<pdfrwt beam="2">  1       -1 0.31841793E-01 0.13119937E+04</pdfrwt>
<totfact> 0.23778763E+01</totfact>
</mgrwt>
</event>
<event>
 6    1  0.1001928E-005  0.1784123E+04  0.7818608E-02  0.8714789E-01
         -1   -1    0    0    0  501 -0.00000000000E+00  0.00000000000E+00  0.36735530202E+03  0.36735530202E+03  0.00000000000E+00 0. -1.
          1   -1    0    0  501    0  0.00000000000E+00 -0.00000000000E+00 -0.21662224812E+04  0.21662224812E+04  0.00000000000E+00 0.  1.
         23    2    1    2    0    0 -0.42065974468E+02  0.46297893387E+03  0.17561136425E+03  0.50510925798E+03  0.90426610187E+02 0.  0.
         13    1    3    3    0    0  0.50455411812E+01  0.36341293518E+03  0.13533443589E+03  0.38782706002E+03  0.00000000000E+00 0. -1.
        -13    1    3    3    0    0 -0.47111515649E+02  0.99565998689E+02  0.40276928354E+02  0.11728219796E+03  0.00000000000E+00 0.  1.
         22    1    1    2    0    0  0.42065974468E+02 -0.46297893387E+03 -0.19744785435E+04  0.20284685253E+04  0.00000000000E+00 0.  1.
<mgrwt>
<rscale>  0 0.17841225E+04</rscale>
<asrwt>0</asrwt>
<pdfrwt beam="1">  1        1 0.33326501E+00 0.17841225E+04</pdfrwt>
<pdfrwt beam="2">  1       -1 0.56516199E-01 0.17841225E+04</pdfrwt>
<totfact> 0.68802712E+00</totfact>
</mgrwt>
</event>
<event>
 6    1  0.1001928E-005  0.1476387E+04  0.7818608E-02  0.8900309E-01
         -1   -1    0    0    0  501 -0.00000000000E+00  0.00000000000E+00  0.25803941914E+03  0.25803941914E+03  0.00000000000E+00 0.  1.
          1   -1    0    0  501    0  0.00000000000E+00 -0.00000000000E+00 -0.21118067905E+04  0.21118067905E+04  0.00000000000E+00 0. -1.
         23    2    1    2    0    0 -0.32832449241E+03 -0.26001284475E+02 -0.19856455017E+04  0.20150718020E+04  0.96193915724E+02 0.  0.
         11    1    3    3    0    0 -0.23186469076E+03 -0.19829621223E+02 -0.16299037616E+04  0.16464327259E+04  0.00000000000E+00 0. -1.
        -11    1    3    3    0    0 -0.96459801656E+02 -0.61716632527E+01 -0.35574174014E+03  0.36863907612E+03  0.00000000000E+00 0.  1.
         22    1    1    2    0    0  0.32832449241E+03  0.26001284475E+02  0.13187813033E+03  0.35477440772E+03  0.00000000000E+00 0.  1.
<mgrwt>
<rscale>  0 0.14763867E+04</rscale>
<asrwt>0</asrwt>
<pdfrwt beam="1">  1        1 0.32489335E+00 0.14763867E+04</pdfrwt>
<pdfrwt beam="2">  1       -1 0.39698372E-01 0.14763867E+04</pdfrwt>
<totfact> 0.14990495E+01</totfact>
</mgrwt>
</event>
<event>
 6    1  0.1001928E-005  0.4222748E+04  0.7818608E-02  0.7961059E-01
         -1   -1    0    0    0  501 -0.00000000000E+00  0.00000000000E+00  0.52408304030E+04  0.52408304030E+04  0.00000000000E+00 0.  1.
          1   -1    0    0  501    0  0.00000000000E+00 -0.00000000000E+00 -0.85060953792E+03  0.85060953792E+03  0.00000000000E+00 0. -1.
         23    2    1    2    0    0 -0.13207092429E+04  0.15660440728E+04  0.29273479251E+04  0.35741469145E+04  0.91615224043E+02 0.  0.
         13    1    3    3    0    0 -0.51041431273E+03  0.59174781745E+03  0.10412246461E+04  0.13018590606E+04  0.00000000000E+00 0. -1.
        -13    1    3    3    0    0 -0.81029493019E+03  0.97429625537E+03  0.18861232791E+04  0.22722878539E+04  0.00000000000E+00 0.  1.
         22    1    1    2    0    0  0.13207092429E+04 -0.15660440728E+04  0.14628729399E+04  0.25172930264E+04  0.00000000000E+00 0. -1.
<mgrwt>
<rscale>  0 0.42227481E+04</rscale>
<asrwt>0</asrwt>
<pdfrwt beam="1">  1        1 0.13086301E+00 0.42227481E+04</pdfrwt>
<pdfrwt beam="2">  1       -1 0.80628158E+00 0.42227481E+04</pdfrwt>
<totfact> 0.98290658E-04</totfact>
</mgrwt>
</event>
<event>
 6    1  0.1001928E-005  0.2340143E+04  0.7818608E-02  0.8462259E-01
         -1   -1    0    0    0  501 -0.00000000000E+00  0.00000000000E+00  0.10744492395E+04  0.10744492395E+04  0.00000000000E+00 0.  1.
          1   -1    0    0  501    0  0.00000000000E+00 -0.00000000000E+00 -0.12742042785E+04  0.12742042785E+04  0.00000000000E+00 0. -1.
         23    2    1    2    0    0 -0.27655751932E+03  0.25682629334E+03 -0.12096775610E+04  0.12705128467E+04  0.91865585149E+02 0.  0.
         13    1    3    3    0    0 -0.48560853924E+02  0.99404989839E+02 -0.31073668895E+03  0.32984359688E+03  0.00000000000E+00 0. -1.
        -13    1    3    3    0    0 -0.22799666540E+03  0.15742130350E+03 -0.89894087204E+03  0.94066924987E+03  0.00000000000E+00 0.  1.
         22    1    1    2    0    0  0.27655751932E+03 -0.25682629334E+03  0.10099225220E+04  0.10781406712E+04  0.00000000000E+00 0.  1.
<mgrwt>
<rscale>  0 0.23401434E+04</rscale>
<asrwt>0</asrwt>
<pdfrwt beam="1">  1        1 0.19603143E+00 0.23401434E+04</pdfrwt>
<pdfrwt beam="2">  1       -1 0.16529988E+00 0.23401434E+04</pdfrwt>
<totfact> 0.22670695E+00</totfact>
</mgrwt>
</event>
<event>
 6    1  0.1001928E-005  0.1000617E+04  0.7818608E-02  0.9307868E-01
          1   -1    0    0  501    0  0.00000000000E+00  0.00000000000E+00  0.60125481839E+03  0.60125481839E+03  0.00000000000E+00 0. -1.
         -1   -1    0    0    0  501 -0.00000000000E+00 -0.00000000000E+00 -0.41631026918E+03  0.41631026918E+03  0.00000000000E+00 0.  1.
         23    2    1    2    0    0  0.38614312555E+03  0.28919520451E+02 -0.22224719160E+03  0.45565053370E+03  0.90998585790E+02 0.  0.
         13    1    3    3    0    0  0.22119269334E+03  0.48314230512E+02 -0.16431683397E+03  0.27975077190E+03  0.00000000000E+00 0.  1.
        -13    1    3    3    0    0  0.16495043221E+03 -0.19394710061E+02 -0.57930357634E+02  0.17589976179E+03  0.00000000000E+00 0. -1.
         22    1    1    2    0    0 -0.38614312555E+03 -0.28919520451E+02  0.40719174082E+03  0.56191455388E+03  0.00000000000E+00 0. -1.
<mgrwt>
<rscale>  0 0.10006169E+04</rscale>
<asrwt>0</asrwt>
<pdfrwt beam="1">  1        1 0.92500741E-01 0.10006169E+04</pdfrwt>
<pdfrwt beam="2">  1       -1 0.64047734E-01 0.10006169E+04</pdfrwt>
<totfact> 0.84655254E+01</totfact>
</mgrwt>
</event>
<event>
 6    1  0.1001928E-005  0.2816182E+04  0.7818608E-02  0.8298262E-01
         -1   -1    0    0    0  501 -0.00000000000E+00  0.00000000000E+00  0.27469543209E+04  0.27469543209E+04  0.00000000000E+00 0.  1.
          1   -1    0    0  501    0  0.00000000000E+00 -0.00000000000E+00 -0.72178874621E+03  0.72178874621E+03  0.00000000000E+00 0. -1.
         23    2    1    2    0    0 -0.74003191819E+03  0.34313358759E+03  0.24248576024E+04  0.25603700073E+04  0.10085773804E+03 0.  0.
         13    1    3    3    0    0 -0.65334931619E+03  0.32743733669E+03  0.20886259835E+04  0.22127898765E+04  0.00000000000E+00 0. -1.
        -13    1    3    3    0    0 -0.86682601992E+02  0.15696250906E+02  0.33623161891E+03  0.34758013081E+03  0.00000000000E+00 0.  1.
         22    1    1    2    0    0  0.74003191819E+03 -0.34313358759E+03 -0.39969202770E+03  0.90837305986E+03  0.00000000000E+00 0. -1.
<mgrwt>
<rscale>  0 0.28161823E+04</rscale>
<asrwt>0</asrwt>
<pdfrwt beam="1">  1        1 0.11104442E+00 0.28161823E+04</pdfrwt>
<pdfrwt beam="2">  1       -1 0.42260835E+00 0.28161823E+04</pdfrwt>
<totfact> 0.11233053E-01</totfact>
</mgrwt>
</event>
<event>
 6    1  0.1001928E-005  0.1491254E+04  0.7818608E-02  0.8890290E-01
          2   -1    0    0  501    0  0.00000000000E+00  0.00000000000E+00  0.96937515225E+03  0.96937515225E+03  0.00000000000E+00 0. -1.
         -2   -1    0    0    0  501 -0.00000000000E+00 -0.00000000000E+00 -0.57352346327E+03  0.57352346327E+03  0.00000000000E+00 0.  1.
         23    2    1    2    0    0 -0.50075126271E+03  0.48932665080E+03  0.45551539959E+03  0.84022361479E+03  0.91044194230E+02 0.  0.
         11    1    3    3    0    0 -0.31050529144E+03  0.32136858163E+03  0.23975490488E+03  0.50712297886E+03  0.00000000000E+00 0. -1.
        -11    1    3    3    0    0 -0.19024597127E+03  0.16795806917E+03  0.21576049471E+03  0.33310063594E+03  0.00000000000E+00 0.  1.
         22    1    1    2    0    0  0.50075126271E+03 -0.48932665080E+03 -0.59663710612E+02  0.70267500073E+03  0.00000000000E+00 0.  1.
<mgrwt>
<rscale>  0 0.14912537E+04</rscale>
<asrwt>0</asrwt>
<pdfrwt beam="1">  1        2 0.14913464E+00 0.14912537E+04</pdfrwt>
<pdfrwt beam="2">  1       -2 0.88234379E-01 0.14912537E+04</pdfrwt>
<totfact> 0.28205793E+01</totfact>
</mgrwt>
</event>
<event>
 6    1  0.1001928E-005  0.6434011E+03  0.7818608E-02  0.9819241E-01
          2   -1    0    0  501    0  0.00000000000E+00  0.00000000000E+00  0.13182137477E+04  0.13182137477E+04  0.00000000000E+00 0. -1.
         -2   -1    0    0    0  501 -0.00000000000E+00 -0.00000000000E+00 -0.78508694326E+02  0.78508694326E+02  0.00000000000E+00 0.  1.
         23    2    1    2    0    0  0.29173309649E+03  0.11191777485E+03  0.72517382652E+03  0.79474555599E+03  0.90053496246E+02 0.  0.
         13    1    3    3    0    0  0.19291656401E+03  0.70663563386E+02  0.57261348421E+03  0.60835544064E+03  0.00000000000E+00 0.  1.
        -13    1    3    3    0    0  0.98816532478E+02  0.41254211464E+02  0.15256034231E+03  0.18639011535E+03  0.00000000000E+00 0. -1.
         22    1    1    2    0    0 -0.29173309649E+03 -0.11191777485E+03  0.51453122686E+03  0.60197688604E+03  0.00000000000E+00 0.  1.
<mgrwt>
<rscale>  0 0.64340109E+03</rscale>
<asrwt>0</asrwt>
<pdfrwt beam="1">  1        2 0.20280210E+00 0.64340109E+03</pdfrwt>
<pdfrwt beam="2">  1       -2 0.12078262E-01 0.64340109E+03</pdfrwt>
<totfact> 0.82304519E+02</totfact>
</mgrwt>
</event>
<event>
 6    1  0.1001928E-005  0.2615021E+04  0.7818608E-02  0.8363117E-01
          2   -1    0    0  501    0  0.00000000000E+00  0.00000000000E+00  0.36723451059E+04  0.36723451059E+04  0.00000000000E+00 0. -1.
         -2   -1    0    0    0  501 -0.00000000000E+00 -0.00000000000E+00 -0.46552903304E+03  0.46552903304E+03  0.00000000000E+00 0.  1.
         23    2    1    2    0    0  0.11117958881E+04  0.30279804857E+03  0.25777846584E+04  0.28250690219E+04  0.90909176120E+02 0.  0.
         13    1    3    3    0    0  0.59035101067E+03  0.11561873312E+03  0.13731660925E+04  0.14991554706E+04  0.00000000000E+00 0.  1.
        -13    1    3    3    0    0  0.52144487744E+03  0.18717931545E+03  0.12046185658E+04  0.13259135513E+04  0.00000000000E+00 0. -1.
         22    1    1    2    0    0 -0.11117958881E+04 -0.30279804857E+03  0.62903141450E+03  0.13128051171E+04  0.00000000000E+00 0.  1.
<mgrwt>
<rscale>  0 0.26150207E+04</rscale>
<asrwt>0</asrwt>
<pdfrwt beam="1">  1        2 0.56497615E+00 0.26150207E+04</pdfrwt>
<pdfrwt beam="2">  1       -2 0.71619854E-01 0.26150207E+04</pdfrwt>
<totfact> 0.95653206E-01</totfact>
</mgrwt>
</event>
<event>
 6    1  0.1001928E-005  0.3635564E+03  0.7818608E-02  0.1057185E+00
          1   -1    0    0  501    0  0.00000000000E+00  0.00000000000E+00  0.22356897854E+04  0.22356897854E+04  0.00000000000E+00 0. -1.
         -1   -1    0    0    0  501 -0.00000000000E+00 -0.00000000000E+00 -0.14779916731E+02  0.14779916731E+02  0.00000000000E+00 0.  1.
         23    2    1    2    0    0 -0.12283291038E+03  0.20033785665E+01  0.19133360011E+04  0.19192694283E+04  0.87455976052E+02 0.  0.
         11    1    3    3    0    0 -0.44113727777E+02 -0.32655727247E+02  0.11068234194E+04  0.11081834231E+04  0.00000000000E+00 0. -1.
        -11    1    3    3    0    0 -0.78719182607E+02  0.34659105813E+02  0.80651258173E+03  0.81108600519E+03  0.00000000000E+00 0.  1.
         22    1    1    2    0    0  0.12283291038E+03 -0.20033785665E+01  0.30757386752E+03  0.33120027382E+03  0.00000000000E+00 0.  1.
<mgrwt>
<rscale>  0 0.36355637E+03</rscale>
<asrwt>0</asrwt>
<pdfrwt beam="1">  1        1 0.34395201E+00 0.36355637E+03</pdfrwt>
<pdfrwt beam="2">  1       -1 0.22738351E-02 0.36355637E+03</pdfrwt>
<totfact> 0.13354678E+03</totfact>
</mgrwt>
</event>
<event>
 6    1  0.1001928E-005  0.8407950E+03  0.7818608E-02  0.9502776E-01
          1   -1    0    0  501    0  0.00000000000E+00  0.00000000000E+00  0.87682185973E+03  0.87682185973E+03  0.00000000000E+00 0. -1.
         -1   -1    0    0    0  501 -0.00000000000E+00 -0.00000000000E+00 -0.20156211775E+03  0.20156211775E+03  0.00000000000E+00 0.  1.
         23    2    1    2    0    0  0.46463411501E+02 -0.24735753741E+03  0.76554553188E+03  0.81099638657E+03  0.91162370056E+02 0.  0.
         11    1    3    3    0    0  0.72696368092E+02 -0.20440989602E+03  0.63817466275E+03  0.67404381734E+03  0.00000000000E+00 0. -1.
        -11    1    3    3    0    0 -0.26232956591E+02 -0.42947641386E+02  0.12737086914E+03  0.13695256922E+03  0.00000000000E+00 0.  1.
         22    1    1    2    0    0 -0.46463411501E+02  0.24735753741E+03 -0.90285789903E+02  0.26738759092E+03  0.00000000000E+00 0.  1.
<mgrwt>
<rscale>  0 0.84079503E+03</rscale>
<asrwt>0</asrwt>
<pdfrwt beam="1">  1        1 0.13489567E+00 0.84079503E+03</pdfrwt>
<pdfrwt beam="2">  1       -1 0.31009557E-01 0.84079503E+03</pdfrwt>
<totfact> 0.18460859E+02</totfact>
</mgrwt>
</event>
<event>
 6    1  0.1001928E-005  0.3369797E+04  0.7818608E-02  0.8145359E-01
         -1   -1    0    0    0  501 -0.00000000000E+00  0.00000000000E+00  0.12301010244E+04  0.12301010244E+04  0.00000000000E+00 0.  1.
          1   -1    0    0  501    0  0.00000000000E+00 -0.00000000000E+00 -0.23078455395E+04  0.23078455395E+04  0.00000000000E+00 0. -1.
         23    2    1    2    0    0 -0.46355637067E+03  0.15401653498E+04 -0.10618527540E+04  0.19294546113E+04  0.90939607994E+02 0.  0.
         13    1    3    3    0    0 -0.20013772697E+03  0.56967956407E+03 -0.43986331689E+03  0.74704059664E+03  0.00000000000E+00 0.  1.
        -13    1    3    3    0    0 -0.26341864370E+03  0.97048578575E+03 -0.62198943711E+03  0.11824140147E+04  0.00000000000E+00 0. -1.
         22    1    1    2    0    0  0.46355637067E+03 -0.15401653498E+04 -0.15891761096E+02  0.16084919526E+04  0.00000000000E+00 0.  1.
<mgrwt>
<rscale>  0 0.33697971E+04</rscale>
<asrwt>0</asrwt>
<pdfrwt beam="1">  1        1 0.35505316E+00 0.33697971E+04</pdfrwt>
<pdfrwt beam="2">  1       -1 0.18924631E+00 0.33697971E+04</pdfrwt>
<totfact> 0.27117293E-01</totfact>
</mgrwt>
</event>
<event>
 6    1  0.1001928E-005  0.8873529E+03  0.7818608E-02  0.9441530E-01
          2   -1    0    0  501    0  0.00000000000E+00  0.00000000000E+00  0.42648995358E+03  0.42648995358E+03  0.00000000000E+00 0. -1.
         -2   -1    0    0    0  501 -0.00000000000E+00 -0.00000000000E+00 -0.46155550983E+03  0.46155550983E+03  0.00000000000E+00 0.  1.
         23    2    1    2    0    0  0.89456198414E+02  0.35043485638E+03 -0.26672729254E+03  0.45854091155E+03  0.91155465997E+02 0.  0.
         13    1    3    3    0    0  0.39259994306E+02  0.17766566296E+03 -0.78510902445E+02  0.19816759763E+03  0.00000000000E+00 0.  1.
        -13    1    3    3    0    0  0.50196204108E+02  0.17276919342E+03 -0.18821639010E+03  0.26037331392E+03  0.00000000000E+00 0. -1.
         22    1    1    2    0    0 -0.89456198414E+02 -0.35043485638E+03  0.23166173629E+03  0.42950455185E+03  0.00000000000E+00 0. -1.
<mgrwt>
<rscale>  0 0.88735289E+03</rscale>
<asrwt>0</asrwt>
<pdfrwt beam="1">  1        2 0.65613839E-01 0.88735289E+03</pdfrwt>
<pdfrwt beam="2">  1       -2 0.71008540E-01 0.88735289E+03</pdfrwt>
<totfact> 0.13382444E+02</totfact>
</mgrwt>
</event>
<event>
 6    1  0.1001928E-005  0.4088379E+04  0.7818608E-02  0.7986951E-01
         -2   -1    0    0    0  501 -0.00000000000E+00  0.00000000000E+00  0.29180497214E+04  0.29180497214E+04  0.00000000000E+00 0.  1.
          2   -1    0    0  501    0  0.00000000000E+00 -0.00000000000E+00 -0.14320217392E+04  0.14320217392E+04  0.00000000000E+00 0. -1.
         23    2    1    2    0    0  0.15349062844E+04  0.37506530930E+03 -0.63489792373E+03  0.17052769533E+04  0.90900086547E+02 0.  0.
         11    1    3    3    0    0  0.10617405334E+04  0.22204598412E+03 -0.41209574960E+03  0.11603535177E+04  0.00000000000E+00 0.  1.
        -11    1    3    3    0    0  0.47316575098E+03  0.15301932518E+03 -0.22280217413E+03  0.54492343551E+03  0.00000000000E+00 0. -1.
         22    1    1    2    0    0 -0.15349062844E+04 -0.37506530930E+03  0.21209259058E+04  0.26447945073E+04  0.00000000000E+00 0.  1.
<mgrwt>
<rscale>  0 0.40883790E+04</rscale>
<asrwt>0</asrwt>
<pdfrwt beam="1">  1        2 0.22031104E+00 0.40883790E+04</pdfrwt>
<pdfrwt beam="2">  1       -2 0.44893073E+00 0.40883790E+04</pdfrwt>
<totfact> 0.38343577E-02</totfact>
</mgrwt>
</event>
<event>
 6    1  0.1001928E-005  0.8612935E+03  0.7818608E-02  0.9475303E-01
         -1   -1    0    0    0  501 -0.00000000000E+00  0.00000000000E+00  0.18713337486E+03  0.18713337486E+03  0.00000000000E+00 0.  1.
          1   -1    0    0  501    0  0.00000000000E+00 -0.00000000000E+00 -0.99103970101E+03  0.99103970101E+03  0.00000000000E+00 0. -1.
         23    2    1    2    0    0  0.42245376284E+03  0.48316578182E+02 -0.39819587228E+03  0.59046341470E+03  0.96360873462E+02 0.  0.
         11    1    3    3    0    0  0.10465724595E+03 -0.21734939618E+02 -0.13323731923E+03  0.17081489972E+03  0.00000000000E+00 0.  1.
        -11    1    3    3    0    0  0.31779651688E+03  0.70051517800E+02 -0.26495855305E+03  0.41964851498E+03  0.00000000000E+00 0. -1.
         22    1    1    2    0    0 -0.42245376284E+03 -0.48316578182E+02 -0.40571045387E+03  0.58770966118E+03  0.00000000000E+00 0. -1.
<mgrwt>
<rscale>  0 0.86129345E+03</rscale>
<asrwt>0</asrwt>
<pdfrwt beam="1">  1        1 0.15246765E+00 0.86129345E+03</pdfrwt>
<pdfrwt beam="2">  1       -1 0.28789749E-01 0.86129345E+03</pdfrwt>
<totfact> 0.16996432E+02</totfact>
</mgrwt>
</event>
<event>
 6    1  0.1001928E-005  0.1578957E+04  0.7818608E-02  0.8833581E-01
          1   -1    0    0  501    0  0.00000000000E+00  0.00000000000E+00  0.19503048002E+04  0.19503048002E+04  0.00000000000E+00 0. -1.
         -1   -1    0    0    0  501 -0.00000000000E+00 -0.00000000000E+00 -0.31957903700E+03  0.31957903700E+03  0.00000000000E+00 0.  1.
         23    2    1    2    0    0 -0.69520169826E+03 -0.31272780242E+03  0.10988848095E+04  0.13403899535E+04  0.89405388161E+02 0.  0.
         11    1    3    3    0    0 -0.19821140261E+03 -0.13444254492E+03  0.34752525628E+03  0.42206203544E+03  0.00000000000E+00 0. -1.
        -11    1    3    3    0    0 -0.49699029565E+03 -0.17828525750E+03  0.75135955317E+03  0.91832791810E+03  0.00000000000E+00 0.  1.
         22    1    1    2    0    0  0.69520169826E+03  0.31272780242E+03  0.53184095376E+03  0.92949388366E+03  0.00000000000E+00 0.  1.
<mgrwt>
<rscale>  0 0.15789573E+04</rscale>
<asrwt>0</asrwt>
<pdfrwt beam="1">  1        1 0.30004689E+00 0.15789573E+04</pdfrwt>
<pdfrwt beam="2">  1       -1 0.49166007E-01 0.15789573E+04</pdfrwt>
<totfact> 0.12834653E+01</totfact>
</mgrwt>
</event>
<event>
 6    1  0.1001928E-005  0.1318205E+04  0.7818608E-02  0.9015252E-01
         -1   -1    0    0    0  501 -0.00000000000E+00  0.00000000000E+00  0.47960985797E+03  0.47960985797E+03  0.00000000000E+00 0.  1.
          1   -1    0    0  501    0  0.00000000000E+00 -0.00000000000E+00 -0.90577010825E+03  0.90577010825E+03  0.00000000000E+00 0. -1.
         23    2    1    2    0    0  0.39370806613E+03 -0.45151139891E+03  0.66617551690E+02  0.60968766460E+03  0.91720038667E+02 0.  0.
         11    1    3    3    0    0  0.17365282663E+03 -0.13962025559E+03  0.45346284146E+02  0.22738822629E+03  0.00000000000E+00 0. -1.
        -11    1    3    3    0    0  0.22005523950E+03 -0.31189114332E+03  0.21271267544E+02  0.38229943832E+03  0.00000000000E+00 0.  1.
         22    1    1    2    0    0 -0.39370806613E+03  0.45151139891E+03 -0.49277780197E+03  0.77569230162E+03  0.00000000000E+00 0. -1.
<mgrwt>
<rscale>  0 0.13182053E+04</rscale>
<asrwt>0</asrwt>
<pdfrwt beam="1">  1        1 0.13934925E+00 0.13182053E+04</pdfrwt>
<pdfrwt beam="2">  1       -1 0.73786132E-01 0.13182053E+04</pdfrwt>
<totfact> 0.32680424E+01</totfact>
</mgrwt>
</event>
<event>
 6    1  0.1001928E-005  0.3076657E+04  0.7818608E-02  0.8222173E-01
          2   -1    0    0  501    0  0.00000000000E+00  0.00000000000E+00  0.17919632363E+04  0.17919632363E+04  0.00000000000E+00 0.  1.
         -2   -1    0    0    0  501 -0.00000000000E+00 -0.00000000000E+00 -0.13205933999E+04  0.13205933999E+04  0.00000000000E+00 0. -1.
         23    2    1    2    0    0 -0.39256528159E+03 -0.53180886026E+03  0.16397560037E+04  0.17701504383E+04  0.87776184142E+02 0.  0.
         13    1    3    3    0    0 -0.33504707640E+03 -0.48240654592E+03  0.13861221267E+04  0.15054259095E+04  0.00000000000E+00 0.  1.
        -13    1    3    3    0    0 -0.57518205187E+02 -0.49402314346E+02  0.25363387697E+03  0.26472452878E+03  0.00000000000E+00 0. -1.
         22    1    1    2    0    0  0.39256528159E+03  0.53180886026E+03 -0.11683861673E+04  0.13424061979E+04  0.00000000000E+00 0. -1.
<mgrwt>
<rscale>  0 0.30766572E+04</rscale>
<asrwt>0</asrwt>
<pdfrwt beam="1">  1        2 0.27568665E+00 0.30766572E+04</pdfrwt>
<pdfrwt beam="2">  1       -2 0.20316822E+00 0.30766572E+04</pdfrwt>
<totfact> 0.94039714E-01</totfact>
</mgrwt>
</event>
<event>
 6    1  0.1001928E-005  0.2415168E+04  0.7818608E-02  0.8433847E-01
         -2   -1    0    0    0  501 -0.00000000000E+00  0.00000000000E+00  0.12964013722E+04  0.12964013722E+04  0.00000000000E+00 0.  1.
          2   -1    0    0  501    0  0.00000000000E+00 -0.00000000000E+00 -0.11248516903E+04  0.11248516903E+04  0.00000000000E+00 0. -1.
         23    2    1    2    0    0 -0.97085958488E+03 -0.30039016219E+03 -0.56480594004E+03  0.11662541840E+04  0.91326275903E+02 0.  0.
         11    1    3    3    0    0 -0.19535636956E+03 -0.32156353357E+02 -0.82984872482E+02  0.21467331285E+03  0.00000000000E+00 0. -1.
        -11    1    3    3    0    0 -0.77550321532E+03 -0.26823380883E+03 -0.48182106756E+03  0.95158087114E+03  0.00000000000E+00 0.  1.
         22    1    1    2    0    0  0.97085958488E+03  0.30039016219E+03  0.73635562192E+03  0.12549988785E+04  0.00000000000E+00 0.  1.
<mgrwt>
<rscale>  0 0.24151681E+04</rscale>
<asrwt>0</asrwt>
<pdfrwt beam="1">  1        2 0.17305411E+00 0.24151681E+04</pdfrwt>
<pdfrwt beam="2">  1       -2 0.19944636E+00 0.24151681E+04</pdfrwt>
<totfact> 0.25332176E+00</totfact>
</mgrwt>
</event>
<event>
 6    1  0.1001928E-005  0.1224418E+04  0.7818608E-02  0.9091748E-01
         -1   -1    0    0    0  501 -0.00000000000E+00  0.00000000000E+00  0.40043026913E+04  0.40043026913E+04  0.00000000000E+00 0. -1.
          1   -1    0    0  501    0  0.00000000000E+00 -0.00000000000E+00 -0.93599241310E+02  0.93599241310E+02  0.00000000000E+00 0.  1.
         23    2    1    2    0    0 -0.14358309497E+03  0.12729037821E+03  0.38999045368E+04  0.39057156634E+04  0.92414832300E+02 0.  0.
         11    1    3    3    0    0 -0.11336792562E+03  0.39426646609E+02  0.21627605296E+04  0.21660886075E+04  0.00000000000E+00 0.  1.
        -11    1    3    3    0    0 -0.30215169353E+02  0.87863731598E+02  0.17371440072E+04  0.17396270559E+04  0.00000000000E+00 0. -1.
         22    1    1    2    0    0  0.14358309497E+03 -0.12729037821E+03  0.10798913136E+02  0.19218626921E+03  0.00000000000E+00 0.  1.
<mgrwt>
<rscale>  0 0.12244177E+04</rscale>
<asrwt>0</asrwt>
<pdfrwt beam="1">  1        1 0.14399886E-01 0.12244177E+04</pdfrwt>
<pdfrwt beam="2">  1       -1 0.61604643E+00 0.12244177E+04</pdfrwt>
<totfact> 0.15142099E-01</totfact>
</mgrwt>
</event>
<event>
 6    1  0.1001928E-005  0.2558880E+04  0.7818608E-02  0.8382305E-01
          2   -1    0    0  501    0  0.00000000000E+00  0.00000000000E+00  0.11079499228E+04  0.11079499228E+04  0.00000000000E+00 0. -1.
         -2   -1    0    0    0  501 -0.00000000000E+00 -0.00000000000E+00 -0.14774731213E+04  0.14774731213E+04  0.00000000000E+00 0.  1.
         23    2    1    2    0    0 -0.10529810115E+04 -0.24336948596E+03  0.50339286350E+03  0.11961857826E+04  0.97253966678E+02 0.  0.
         13    1    3    3    0    0 -0.83695771425E+03 -0.22685876072E+03  0.42578551562E+03  0.96605197483E+03  0.00000000000E+00 0. -1.
        -13    1    3    3    0    0 -0.21602329728E+03 -0.16510725239E+02  0.77607347884E+02  0.23013380773E+03  0.00000000000E+00 0.  1.
         22    1    1    2    0    0  0.10529810115E+04  0.24336948596E+03 -0.87291606199E+03  0.13892372615E+04  0.00000000000E+00 0.  1.
<mgrwt>
<rscale>  0 0.25588796E+04</rscale>
<asrwt>0</asrwt>
<pdfrwt beam="1">  1        2 0.17045383E+00 0.25588796E+04</pdfrwt>
<pdfrwt beam="2">  1       -2 0.22730356E+00 0.25588796E+04</pdfrwt>
<totfact> 0.16994075E+00</totfact>
</mgrwt>
</event>
<event>
 6    1  0.1001928E-005  0.1102627E+04  0.7818608E-02  0.9202635E-01
         -1   -1    0    0    0  501 -0.00000000000E+00  0.00000000000E+00  0.66144299898E+03  0.66144299898E+03  0.00000000000E+00 0.  1.
          1   -1    0    0  501    0  0.00000000000E+00 -0.00000000000E+00 -0.45952077606E+03  0.45952077606E+03  0.00000000000E+00 0. -1.
         23    2    1    2    0    0 -0.19945081512E+03  0.44827166450E+03 -0.14383587986E+03  0.52073317062E+03  0.98722650931E+02 0.  0.
         13    1    3    3    0    0 -0.12505787827E+03  0.26369154487E+03 -0.13493101522E+03  0.32152617720E+03  0.00000000000E+00 0. -1.
        -13    1    3    3    0    0 -0.74392936851E+02  0.18458011963E+03 -0.89048646331E+01  0.19920699343E+03  0.00000000000E+00 0.  1.
         22    1    1    2    0    0  0.19945081512E+03 -0.44827166450E+03  0.34575810277E+03  0.60023060442E+03  0.00000000000E+00 0.  1.
<mgrwt>
<rscale>  0 0.11026274E+04</rscale>
<asrwt>0</asrwt>
<pdfrwt beam="1">  1        1 0.70695504E-01 0.11026274E+04</pdfrwt>
<pdfrwt beam="2">  1       -1 0.10176046E+00 0.11026274E+04</pdfrwt>
<totfact> 0.45423982E+01</totfact>
</mgrwt>
</event>
<event>
 6    1  0.1001928E-005  0.1319351E+04  0.7818608E-02  0.9014359E-01
          2   -1    0    0  501    0  0.00000000000E+00  0.00000000000E+00  0.37344625486E+03  0.37344625486E+03  0.00000000000E+00 0. -1.
         -2   -1    0    0    0  501 -0.00000000000E+00 -0.00000000000E+00 -0.11652861609E+04  0.11652861609E+04  0.00000000000E+00 0.  1.
         23    2    1    2    0    0 -0.35206711062E+02  0.42319873621E+03  0.18469155141E+03  0.47386135772E+03  0.10048350284E+03 0.  0.
         13    1    3    3    0    0  0.26522874888E+02  0.10864341718E+03  0.76682180690E+02  0.13559871616E+03  0.00000000000E+00 0.  1.
        -13    1    3    3    0    0 -0.61729585949E+02  0.31455531903E+03  0.10800937072E+03  0.33826264156E+03  0.00000000000E+00 0. -1.
         22    1    1    2    0    0  0.35206711062E+02 -0.42319873621E+03 -0.97653145744E+03  0.10648710580E+04  0.00000000000E+00 0.  1.
<mgrwt>
<rscale>  0 0.13193510E+04</rscale>
<asrwt>0</asrwt>
<pdfrwt beam="1">  1        2 0.57453271E-01 0.13193510E+04</pdfrwt>
<pdfrwt beam="2">  1       -2 0.17927479E+00 0.13193510E+04</pdfrwt>
<totfact> 0.15409371E+01</totfact>
</mgrwt>
</event>
<event>
 6    1  0.1001928E-005  0.1537037E+04  0.7818608E-02  0.8860190E-01
          1   -1    0    0  501    0  0.00000000000E+00  0.00000000000E+00  0.23053453132E+04  0.23053453132E+04  0.00000000000E+00 0.  1.
         -1   -1    0    0    0  501 -0.00000000000E+00 -0.00000000000E+00 -0.25619622166E+03  0.25619622166E+03  0.00000000000E+00 0. -1.
         23    2    1    2    0    0  0.68857814501E+03 -0.30032060966E+03  0.77902814634E+03  0.10858926790E+04  0.89138808186E+02 0.  0.
         11    1    3    3    0    0  0.41962732642E+03 -0.20872335036E+03  0.43206836282E+03  0.63744458600E+03  0.00000000000E+00 0.  1.
        -11    1    3    3    0    0  0.26895081859E+03 -0.91597259295E+02  0.34695978352E+03  0.44844809300E+03  0.00000000000E+00 0. -1.
         22    1    1    2    0    0 -0.68857814501E+03  0.30032060966E+03  0.12701209452E+04  0.14756488559E+04  0.00000000000E+00 0. -1.
<mgrwt>
<rscale>  0 0.15370371E+04</rscale>
<asrwt>0</asrwt>
<pdfrwt beam="1">  1        1 0.35466850E+00 0.15370371E+04</pdfrwt>
<pdfrwt beam="2">  1       -1 0.39414805E-01 0.15370371E+04</pdfrwt>
<totfact> 0.11154706E+01</totfact>
</mgrwt>
</event>
<event>
 6    1  0.1001928E-005  0.3644654E+04  0.7818608E-02  0.8080339E-01
         -1   -1    0    0    0  501 -0.00000000000E+00  0.00000000000E+00  0.95908944396E+03  0.95908944396E+03  0.00000000000E+00 0.  1.
          1   -1    0    0  501    0  0.00000000000E+00 -0.00000000000E+00 -0.34625292683E+04  0.34625292683E+04  0.00000000000E+00 0. -1.
         23    2    1    2    0    0  0.17330366371E+04 -0.23894550227E+03 -0.18666269804E+04  0.25598879216E+04  0.90658417694E+02 0.  0.
         13    1    3    3    0    0  0.66585827425E+03 -0.13623323018E+03 -0.72976879055E+03  0.99724080445E+03  0.00000000000E+00 0.  1.
        -13    1    3    3    0    0  0.10671783629E+04 -0.10271227209E+03 -0.11368581899E+04  0.15626471172E+04  0.00000000000E+00 0. -1.
         22    1    1    2    0    0 -0.17330366371E+04  0.23894550227E+03 -0.63681284394E+03  0.18617307906E+04  0.00000000000E+00 0.  1.
<mgrwt>
<rscale>  0 0.36446538E+04</rscale>
<asrwt>0</asrwt>
<pdfrwt beam="1">  1        1 0.53269682E+00 0.36446538E+04</pdfrwt>
<pdfrwt beam="2">  1       -1 0.14755222E+00 0.36446538E+04</pdfrwt>
<totfact> 0.78496000E-02</totfact>
</mgrwt>
</event>
<event>
 6    1  0.1001928E-005  0.3124270E+04  0.7818608E-02  0.8209109E-01
         -2   -1    0    0    0  501 -0.00000000000E+00  0.00000000000E+00  0.15567543431E+04  0.15567543431E+04  0.00000000000E+00 0.  1.
          2   -1    0    0  501    0  0.00000000000E+00 -0.00000000000E+00 -0.15675342177E+04  0.15675342177E+04  0.00000000000E+00 0. -1.
         23    2    1    2    0    0  0.14906544424E+04 -0.29656319877E+02  0.45561720699E+03  0.15620925417E+04  0.98060724017E+02 0.  0.
         13    1    3    3    0    0  0.12383849288E+04 -0.40051559807E+02  0.41290667686E+03  0.13060219305E+04  0.00000000000E+00 0.  1.
        -13    1    3    3    0    0  0.25226951366E+03  0.10395239930E+02  0.42710530127E+02  0.25607061120E+03  0.00000000000E+00 0. -1.
         22    1    1    2    0    0 -0.14906544424E+04  0.29656319877E+02 -0.46639708161E+03  0.15621960190E+04  0.00000000000E+00 0. -1.
<mgrwt>
<rscale>  0 0.31242700E+04</rscale>
<asrwt>0</asrwt>
<pdfrwt beam="1">  1        2 0.24115911E+00 0.31242700E+04</pdfrwt>
<pdfrwt beam="2">  1       -2 0.23950067E+00 0.31242700E+04</pdfrwt>
<totfact> 0.73517754E-01</totfact>
</mgrwt>
</event>
<event>
 6    1  0.1001928E-005  0.4350276E+04  0.7818608E-02  0.7937387E-01
         -2   -1    0    0    0  501 -0.00000000000E+00  0.00000000000E+00  0.16188226785E+04  0.16188226785E+04  0.00000000000E+00 0.  1.
          2   -1    0    0  501    0  0.00000000000E+00 -0.00000000000E+00 -0.29226328752E+04  0.29226328752E+04  0.00000000000E+00 0. -1.
         23    2    1    2    0    0  0.15930875967E+04 -0.60898315275E+03  0.75553875671E+03  0.18675620100E+04  0.90335358051E+02 0.  0.
         13    1    3    3    0    0  0.53183902795E+03 -0.24687439650E+03  0.27425035625E+03  0.64731211730E+03  0.00000000000E+00 0.  1.
        -13    1    3    3    0    0  0.10612485688E+04 -0.36210875626E+03  0.48128840046E+03  0.12202498927E+04  0.00000000000E+00 0. -1.
         22    1    1    2    0    0 -0.15930875967E+04  0.60898315275E+03 -0.20593489535E+04  0.26738935438E+04  0.00000000000E+00 0. -1.
<mgrwt>
<rscale>  0 0.43502756E+04</rscale>
<asrwt>0</asrwt>
<pdfrwt beam="1">  1        2 0.44963583E+00 0.43502756E+04</pdfrwt>
<pdfrwt beam="2">  1       -2 0.24904964E+00 0.43502756E+04</pdfrwt>
<totfact> 0.97139713E-02</totfact>
</mgrwt>
</event>
<event>
 6    1  0.1001928E-005  0.3712238E+04  0.7818608E-02  0.8065255E-01
          1   -1    0    0  501    0  0.00000000000E+00  0.00000000000E+00  0.32483317405E+04  0.32483317405E+04  0.00000000000E+00 0. -1.
         -1   -1    0    0    0  501 -0.00000000000E+00 -0.00000000000E+00 -0.10605993533E+04  0.10605993533E+04  0.00000000000E+00 0.  1.
         23    2    1    2    0    0  0.13057371344E+04 -0.13047258929E+04  0.13060258342E+04  0.22632855807E+04  0.97462917506E+02 0.  0.
         11    1    3    3    0    0  0.77263136054E+03 -0.73959374507E+03  0.80807467335E+03  0.13405009529E+04  0.00000000000E+00 0. -1.
        -11    1    3    3    0    0  0.53310577389E+03 -0.56513214779E+03  0.49795116084E+03  0.92278462774E+03  0.00000000000E+00 0.  1.
         22    1    1    2    0    0 -0.13057371344E+04  0.13047258929E+04  0.88170655297E+03  0.20456455131E+04  0.00000000000E+00 0.  1.
<mgrwt>
<rscale>  0 0.37122384E+04</rscale>
<asrwt>0</asrwt>
<pdfrwt beam="1">  1        1 0.49974334E+00 0.37122384E+04</pdfrwt>
<pdfrwt beam="2">  1       -1 0.16316913E+00 0.37122384E+04</pdfrwt>
<totfact> 0.86558770E-02</totfact>
</mgrwt>
</event>
<event>
 6    1  0.1001928E-005  0.2249119E+04  0.7818608E-02  0.8498257E-01
         -2   -1    0    0    0  501 -0.00000000000E+00  0.00000000000E+00  0.54431506634E+03  0.54431506634E+03  0.00000000000E+00 0.  1.
          2   -1    0    0  501    0  0.00000000000E+00 -0.00000000000E+00 -0.23233490353E+04  0.23233490353E+04  0.00000000000E+00 0. -1.
         23    2    1    2    0    0 -0.70740742634E+03 -0.59833818756E+03 -0.16992272619E+04  0.19377162730E+04  0.94536836522E+02 0.  0.
         13    1    3    3    0    0 -0.11533837000E+03 -0.12673971615E+03 -0.37785615285E+03  0.41489898468E+03  0.00000000000E+00 0. -1.
        -13    1    3    3    0    0 -0.59206905634E+03 -0.47159847141E+03 -0.13213711091E+04  0.15228172883E+04  0.00000000000E+00 0.  1.
         22    1    1    2    0    0  0.70740742634E+03  0.59833818756E+03 -0.79806707038E+02  0.92994782865E+03  0.00000000000E+00 0.  1.
<mgrwt>
<rscale>  0 0.22491188E+04</rscale>
<asrwt>0</asrwt>
<pdfrwt beam="1">  1        2 0.35743831E+00 0.22491188E+04</pdfrwt>
<pdfrwt beam="2">  1       -2 0.83740779E-01 0.22491188E+04</pdfrwt>
<totfact> 0.49894967E+00</totfact>
</mgrwt>
</event>
<event>
 6    1  0.1001928E-005  0.2864793E+04  0.7818608E-02  0.8283430E-01
         -2   -1    0    0    0  501 -0.00000000000E+00  0.00000000000E+00  0.81215762822E+03  0.81215762822E+03  0.00000000000E+00 0. -1.
          2   -1    0    0  501    0  0.00000000000E+00 -0.00000000000E+00 -0.25263076746E+04  0.25263076746E+04  0.00000000000E+00 0.  1.
         23    2    1    2    0    0 -0.10199693857E+04 -0.60453354350E+03  0.76382934604E+02  0.11909535545E+04  0.82083270939E+02 0.  0.
         11    1    3    3    0    0 -0.45763173151E+03 -0.31693636396E+03  0.24262026076E+02  0.55719306025E+03  0.00000000000E+00 0. -1.
        -11    1    3    3    0    0 -0.56233765421E+03 -0.28759717954E+03  0.52120908528E+02  0.63376049430E+03  0.00000000000E+00 0.  1.
         22    1    1    2    0    0  0.10199693857E+04  0.60453354350E+03 -0.17905329810E+04  0.21475117483E+04  0.00000000000E+00 0.  1.
<mgrwt>
<rscale>  0 0.28647932E+04</rscale>
<asrwt>0</asrwt>
<pdfrwt beam="1">  1        2 0.38866273E+00 0.28647932E+04</pdfrwt>
<pdfrwt beam="2">  1       -2 0.12494732E+00 0.28647932E+04</pdfrwt>
<totfact> 0.13958955E+00</totfact>
</mgrwt>
</event>
<event>
 6    1  0.1001928E-005  0.1417530E+04  0.7818608E-02  0.8941226E-01
          1   -1    0    0  501    0  0.00000000000E+00  0.00000000000E+00  0.11166895671E+04  0.11166895671E+04  0.00000000000E+00 0. -1.
         -1   -1    0    0    0  501 -0.00000000000E+00 -0.00000000000E+00 -0.44985460572E+03  0.44985460572E+03  0.00000000000E+00 0.  1.
         23    2    1    2    0    0  0.97887037784E+02 -0.66101463504E+03  0.83677542004E+02  0.67964237688E+03  0.91594811601E+02 0.  0.
         13    1    3    3    0    0  0.94438447667E+02 -0.36714707022E+03  0.69472380317E+02  0.38541147258E+03  0.00000000000E+00 0. -1.
        -13    1    3    3    0    0  0.34485901167E+01 -0.29386756482E+03  0.14205161687E+02  0.29423090430E+03  0.00000000000E+00 0.  1.
         22    1    1    2    0    0 -0.97887037784E+02  0.66101463504E+03  0.58315741943E+03  0.88690179599E+03  0.00000000000E+00 0.  1.
<mgrwt>
<rscale>  0 0.14175302E+04</rscale>
<asrwt>0</asrwt>
<pdfrwt beam="1">  1        1 0.17179839E+00 0.14175302E+04</pdfrwt>
<pdfrwt beam="2">  1       -1 0.69208402E-01 0.14175302E+04</pdfrwt>
<totfact> 0.25333455E+01</totfact>
</mgrwt>
</event>
<event>
 6    1  0.1001928E-005  0.2191184E+04  0.7818608E-02  0.8522106E-01
          2   -1    0    0  501    0  0.00000000000E+00  0.00000000000E+00  0.39730283961E+04  0.39730283961E+04  0.00000000000E+00 0. -1.
         -2   -1    0    0    0  501 -0.00000000000E+00 -0.00000000000E+00 -0.30211763630E+03  0.30211763630E+03  0.00000000000E+00 0.  1.
         23    2    1    2    0    0  0.73593257885E+03  0.54095366591E+02  0.34136887701E+04  0.34936818801E+04  0.89548820012E+02 0.  0.
         11    1    3    3    0    0  0.48068954025E+03  0.38190841840E+02  0.20230996410E+04  0.20797723750E+04  0.00000000000E+00 0.  1.
        -11    1    3    3    0    0  0.25524303860E+03  0.15904524751E+02  0.13905891291E+04  0.14139095051E+04  0.00000000000E+00 0. -1.
         22    1    1    2    0    0 -0.73593257885E+03 -0.54095366591E+02  0.25722198970E+03  0.78146415227E+03  0.00000000000E+00 0.  1.
<mgrwt>
<rscale>  0 0.21911841E+04</rscale>
<asrwt>0</asrwt>
<pdfrwt beam="1">  1        2 0.61123510E+00 0.21911841E+04</pdfrwt>
<pdfrwt beam="2">  1       -2 0.46479639E-01 0.21911841E+04</pdfrwt>
<totfact> 0.14541545E+00</totfact>
</mgrwt>
</event>
<event>
 6    1  0.1001928E-005  0.4417736E+04  0.7818608E-02  0.7925199E-01
         -2   -1    0    0    0  501 -0.00000000000E+00  0.00000000000E+00  0.17622252845E+04  0.17622252845E+04  0.00000000000E+00 0.  1.
          2   -1    0    0  501    0  0.00000000000E+00 -0.00000000000E+00 -0.27687135537E+04  0.27687135537E+04  0.00000000000E+00 0. -1.
         23    2    1    2    0    0 -0.18365515482E+04 -0.10076780111E+04 -0.12188634438E+04  0.24253653349E+04  0.91827827265E+02 0.  0.
         13    1    3    3    0    0 -0.78906859181E+03 -0.48443376680E+03 -0.53076335943E+03  0.10672464855E+04  0.00000000000E+00 0. -1.
        -13    1    3    3    0    0 -0.10474829564E+04 -0.52324424430E+03 -0.68810008441E+03  0.13581188495E+04  0.00000000000E+00 0.  1.
         22    1    1    2    0    0  0.18365515482E+04  0.10076780111E+04  0.21237517469E+03  0.21055735033E+04  0.00000000000E+00 0.  1.
<mgrwt>
<rscale>  0 0.44177356E+04</rscale>
<asrwt>0</asrwt>
<pdfrwt beam="1">  1        2 0.42595593E+00 0.44177356E+04</pdfrwt>
<pdfrwt beam="2">  1       -2 0.27111158E+00 0.44177356E+04</pdfrwt>
<totfact> 0.87886773E-02</totfact>
</mgrwt>
</event>
<event>
 6    1  0.1001928E-005  0.3933157E+04  0.7818608E-02  0.8018168E-01
          1   -1    0    0  501    0  0.00000000000E+00  0.00000000000E+00  0.20681517700E+04  0.20681517700E+04  0.00000000000E+00 0. -1.
         -1   -1    0    0    0  501 -0.00000000000E+00 -0.00000000000E+00 -0.18699939683E+04  0.18699939683E+04  0.00000000000E+00 0.  1.
         23    2    1    2    0    0  0.10248039756E+04 -0.53147753419E+03 -0.14935953131E+04  0.18900441395E+04  0.93532518383E+02 0.  0.
         13    1    3    3    0    0  0.84780421354E+03 -0.46746008025E+03 -0.12094413714E+04  0.15492060360E+04  0.00000000000E+00 0.  1.
        -13    1    3    3    0    0  0.17699976207E+03 -0.64017453936E+02 -0.28415394172E+03  0.34083810347E+03  0.00000000000E+00 0. -1.
         22    1    1    2    0    0 -0.10248039756E+04  0.53147753419E+03  0.16917531148E+04  0.20481015989E+04  0.00000000000E+00 0. -1.
<mgrwt>
<rscale>  0 0.39331572E+04</rscale>
<asrwt>0</asrwt>
<pdfrwt beam="1">  1        1 0.31817720E+00 0.39331572E+04</pdfrwt>
<pdfrwt beam="2">  1       -1 0.28769138E+00 0.39331572E+04</pdfrwt>
<totfact> 0.83654763E-02</totfact>
</mgrwt>
</event>
<event>
 6    1  0.1001928E-005  0.1862780E+04  0.7818608E-02  0.8673608E-01
         -2   -1    0    0    0  501 -0.00000000000E+00  0.00000000000E+00  0.80991840331E+03  0.80991840331E+03  0.00000000000E+00 0.  1.
          2   -1    0    0  501    0  0.00000000000E+00 -0.00000000000E+00 -0.10710796724E+04  0.10710796724E+04  0.00000000000E+00 0. -1.
         23    2    1    2    0    0 -0.15116671463E+03 -0.58318348544E+03  0.58357904354E+03  0.84343335528E+03  0.88662119539E+02 0.  0.
         13    1    3    3    0    0 -0.14304091436E+03 -0.43099901843E+03  0.40309734309E+03  0.60721357452E+03  0.00000000000E+00 0. -1.
        -13    1    3    3    0    0 -0.81258002772E+01 -0.15218446701E+03  0.18048170045E+03  0.23621978077E+03  0.00000000000E+00 0.  1.
         22    1    1    2    0    0  0.15116671463E+03  0.58318348544E+03 -0.84474031266E+03  0.10375647205E+04  0.00000000000E+00 0. -1.
<mgrwt>
<rscale>  0 0.18627798E+04</rscale>
<asrwt>0</asrwt>
<pdfrwt beam="1">  1        2 0.16478149E+00 0.18627798E+04</pdfrwt>
<pdfrwt beam="2">  1       -2 0.12460283E+00 0.18627798E+04</pdfrwt>
<totfact> 0.10309966E+01</totfact>
</mgrwt>
</event>
<event>
 6    1  0.1001928E-005  0.3522810E+04  0.7818608E-02  0.8108405E-01
          2   -1    0    0  501    0  0.00000000000E+00  0.00000000000E+00  0.27565979486E+04  0.27565979486E+04  0.00000000000E+00 0. -1.
         -2   -1    0    0    0  501 -0.00000000000E+00 -0.00000000000E+00 -0.11254989412E+04  0.11254989412E+04  0.00000000000E+00 0.  1.
         23    2    1    2    0    0  0.23720097186E+03 -0.11979039276E+04  0.22131232426E+04  0.25293255376E+04  0.91296591097E+02 0.  0.
         11    1    3    3    0    0  0.12713177862E+03 -0.77698429213E+03  0.13520334813E+04  0.15645643527E+04  0.00000000000E+00 0. -1.
        -11    1    3    3    0    0  0.11006919324E+03 -0.42091963552E+03  0.86108976130E+03  0.96476118490E+03  0.00000000000E+00 0.  1.
         22    1    1    2    0    0 -0.23720097186E+03  0.11979039276E+04 -0.58202423514E+03  0.13527713522E+04  0.00000000000E+00 0.  1.
<mgrwt>
<rscale>  0 0.35228103E+04</rscale>
<asrwt>0</asrwt>
<pdfrwt beam="1">  1        2 0.42409199E+00 0.35228103E+04</pdfrwt>
<pdfrwt beam="2">  1       -2 0.17315368E+00 0.35228103E+04</pdfrwt>
<totfact> 0.40769144E-01</totfact>
</mgrwt>
</event>
<event>
 6    1  0.1001928E-005  0.1357322E+04  0.7818608E-02  0.8985304E-01
          1   -1    0    0  501    0  0.00000000000E+00  0.00000000000E+00  0.10412832432E+04  0.10412832432E+04  0.00000000000E+00 0. -1.
         -1   -1    0    0    0  501 -0.00000000000E+00 -0.00000000000E+00 -0.44232049059E+03  0.44232049059E+03  0.00000000000E+00 0.  1.
         23    2    1    2    0    0  0.57884100308E+03 -0.33868327950E+03  0.39054245500E+03  0.78132010798E+03  0.90412561702E+02 0.  0.
         11    1    3    3    0    0  0.38760652731E+03 -0.22219586727E+03  0.30807657265E+03  0.54269788839E+03  0.00000000000E+00 0.  1.
        -11    1    3    3    0    0  0.19123447577E+03 -0.11648741223E+03  0.82465882357E+02  0.23862221959E+03  0.00000000000E+00 0. -1.
         22    1    1    2    0    0 -0.57884100308E+03  0.33868327950E+03  0.20842029762E+03  0.70228362584E+03  0.00000000000E+00 0.  1.
<mgrwt>
<rscale>  0 0.13573222E+04</rscale>
<asrwt>0</asrwt>
<pdfrwt beam="1">  1        1 0.16019742E+00 0.13573222E+04</pdfrwt>
<pdfrwt beam="2">  1       -1 0.68049306E-01 0.13573222E+04</pdfrwt>
<totfact> 0.30063598E+01</totfact>
</mgrwt>
</event>
<event>
 6    1  0.1001928E-005  0.3648643E+04  0.7818608E-02  0.8079440E-01
          3   -1    0    0  501    0  0.00000000000E+00  0.00000000000E+00  0.24312064289E+04  0.24312064289E+04  0.00000000000E+00 0. -1.
         -3   -1    0    0    0  501 -0.00000000000E+00 -0.00000000000E+00 -0.13689286150E+04  0.13689286150E+04  0.00000000000E+00 0.  1.
         23    2    1    2    0    0  0.12918873303E+04 -0.70911916388E+03  0.16494255049E+04  0.22137664631E+04  0.91293999043E+02 0.  0.
         13    1    3    3    0    0  0.35390239802E+03 -0.16290639253E+03  0.48054193142E+03  0.61863232046E+03  0.00000000000E+00 0. -1.
        -13    1    3    3    0    0  0.93798493232E+03 -0.54621277135E+03  0.11688835735E+04  0.15951341427E+04  0.00000000000E+00 0.  1.
         22    1    1    2    0    0 -0.12918873303E+04  0.70911916388E+03 -0.58714769098E+03  0.15863685807E+04  0.00000000000E+00 0.  1.
<mgrwt>
<rscale>  0 0.36486425E+04</rscale>
<asrwt>0</asrwt>
<pdfrwt beam="1">  1        3 0.37403176E+00 0.36486425E+04</pdfrwt>
<pdfrwt beam="2">  1       -3 0.21060440E+00 0.36486425E+04</pdfrwt>
<totfact> 0.40326359E-03</totfact>
</mgrwt>
</event>
<event>
 6    1  0.1001928E-005  0.1132191E+04  0.7818608E-02  0.9174372E-01
          2   -1    0    0  501    0  0.00000000000E+00  0.00000000000E+00  0.29966319980E+04  0.29966319980E+04  0.00000000000E+00 0. -1.
         -2   -1    0    0    0  501 -0.00000000000E+00 -0.00000000000E+00 -0.10694143061E+03  0.10694143061E+03  0.00000000000E+00 0.  1.
         23    2    1    2    0    0  0.16817481192E+03  0.41923400195E+03  0.23734370035E+04  0.24176013753E+04  0.86909632844E+02 0.  0.
         11    1    3    3    0    0  0.10756767750E+03  0.29955026484E+03  0.18539301547E+04  0.18810524142E+04  0.00000000000E+00 0. -1.
        -11    1    3    3    0    0  0.60607134414E+02  0.11968373711E+03  0.51950684882E+03  0.53654896108E+03  0.00000000000E+00 0.  1.
         22    1    1    2    0    0 -0.16817481192E+03 -0.41923400195E+03  0.51625356388E+03  0.68597205335E+03  0.00000000000E+00 0.  1.
<mgrwt>
<rscale>  0 0.11321910E+04</rscale>
<asrwt>0</asrwt>
<pdfrwt beam="1">  1        2 0.46102024E+00 0.11321910E+04</pdfrwt>
<pdfrwt beam="2">  1       -2 0.16452530E-01 0.11321910E+04</pdfrwt>
<totfact> 0.52913679E+01</totfact>
</mgrwt>
</event>
<event>
 6    1  0.1001928E-005  0.6369624E+04  0.7818608E-02  0.7646189E-01
         -2   -1    0    0    0  501 -0.00000000000E+00  0.00000000000E+00  0.26599285232E+04  0.26599285232E+04  0.00000000000E+00 0.  1.
          2   -1    0    0  501    0  0.00000000000E+00 -0.00000000000E+00 -0.38132709709E+04  0.38132709709E+04  0.00000000000E+00 0. -1.
         23    2    1    2    0    0  0.30909773273E+04  0.32451322919E+03 -0.12803393890E+04  0.33626403970E+04  0.92907557912E+02 0.  0.
         11    1    3    3    0    0  0.21732302099E+04  0.19413282001E+03 -0.92629977615E+03  0.23703688262E+04  0.00000000000E+00 0. -1.
        -11    1    3    3    0    0  0.91774711742E+03  0.13038040918E+03 -0.35403961289E+03  0.99227157075E+03  0.00000000000E+00 0.  1.
         22    1    1    2    0    0 -0.30909773273E+04 -0.32451322919E+03  0.12699694137E+03  0.31105590972E+04  0.00000000000E+00 0.  1.
<mgrwt>
<rscale>  0 0.63696242E+04</rscale>
<asrwt>0</asrwt>
<pdfrwt beam="1">  1        2 0.58665707E+00 0.63696242E+04</pdfrwt>
<pdfrwt beam="2">  1       -2 0.40921978E+00 0.63696242E+04</pdfrwt>
<totfact> 0.20227768E-03</totfact>
</mgrwt>
</event>
<event>
 6    1  0.1001928E-005  0.1929542E+04  0.7818608E-02  0.8640289E-01
          1   -1    0    0  501    0  0.00000000000E+00  0.00000000000E+00  0.22842206473E+04  0.22842206473E+04  0.00000000000E+00 0.  1.
         -1   -1    0    0    0  501 -0.00000000000E+00 -0.00000000000E+00 -0.40748401440E+03  0.40748401440E+03  0.00000000000E+00 0. -1.
         23    2    1    2    0    0 -0.40157674289E+03  0.63088227724E+03  0.94930914761E+02  0.75932065604E+03  0.90992592799E+02 0.  0.
         13    1    3    3    0    0 -0.62368564972E+02  0.16997305927E+03  0.25856573327E+02  0.18289133702E+03  0.00000000000E+00 0.  1.
        -13    1    3    3    0    0 -0.33920817791E+03  0.46090921798E+03  0.69074341434E+02  0.57642931902E+03  0.00000000000E+00 0. -1.
         22    1    1    2    0    0  0.40157674289E+03 -0.63088227724E+03  0.17818057182E+04  0.19323840057E+04  0.00000000000E+00 0.  1.
<mgrwt>
<rscale>  0 0.19295423E+04</rscale>
<asrwt>0</asrwt>
<pdfrwt beam="1">  1        1 0.35141855E+00 0.19295423E+04</pdfrwt>
<pdfrwt beam="2">  1       -1 0.62689850E-01 0.19295423E+04</pdfrwt>
<totfact> 0.45970868E+00</totfact>
</mgrwt>
</event>
<event>
 6    1  0.1001928E-005  0.1782815E+04  0.7818608E-02  0.8715492E-01
          2   -1    0    0  501    0  0.00000000000E+00  0.00000000000E+00  0.14364084361E+04  0.14364084361E+04  0.00000000000E+00 0. -1.
         -2   -1    0    0    0  501 -0.00000000000E+00 -0.00000000000E+00 -0.55319011204E+03  0.55319011204E+03  0.00000000000E+00 0.  1.
         23    2    1    2    0    0 -0.35784993908E+03  0.66417924424E+03  0.96782467184E+03  0.12304220987E+04  0.89795869412E+02 0.  0.
         11    1    3    3    0    0 -0.14863351350E+03  0.24719953428E+03  0.43837202377E+03  0.52475666962E+03  0.00000000000E+00 0. -1.
        -11    1    3    3    0    0 -0.20921642557E+03  0.41697970996E+03  0.52945264807E+03  0.70566542908E+03  0.00000000000E+00 0.  1.
         22    1    1    2    0    0  0.35784993908E+03 -0.66417924424E+03 -0.84606347738E+02  0.75917644949E+03  0.00000000000E+00 0.  1.
<mgrwt>
<rscale>  0 0.17828146E+04</rscale>
<asrwt>0</asrwt>
<pdfrwt beam="1">  1        2 0.22098591E+00 0.17828146E+04</pdfrwt>
<pdfrwt beam="2">  1       -2 0.85106172E-01 0.17828146E+04</pdfrwt>
<totfact> 0.15668095E+01</totfact>
</mgrwt>
</event>
<event>
 6    1  0.1001928E-005  0.2558919E+04  0.7818608E-02  0.8382291E-01
         -1   -1    0    0    0  501 -0.00000000000E+00  0.00000000000E+00  0.50405990210E+03  0.50405990210E+03  0.00000000000E+00 0.  1.
          1   -1    0    0  501    0  0.00000000000E+00 -0.00000000000E+00 -0.32476639489E+04  0.32476639489E+04  0.00000000000E+00 0. -1.
         23    2    1    2    0    0  0.80418988007E+03  0.27764423109E+03  0.24262067370E+02  0.85605630996E+03  0.91848111802E+02 0.  0.
         11    1    3    3    0    0  0.32287288255E+03  0.84740827052E+02  0.46577542181E+02  0.33704209454E+03  0.00000000000E+00 0. -1.
        -11    1    3    3    0    0  0.48131699752E+03  0.19290340404E+03 -0.22315474811E+02  0.51901421542E+03  0.00000000000E+00 0.  1.
         22    1    1    2    0    0 -0.80418988007E+03 -0.27764423109E+03 -0.27678661141E+04  0.28956675410E+04  0.00000000000E+00 0. -1.
<mgrwt>
<rscale>  0 0.25589194E+04</rscale>
<asrwt>0</asrwt>
<pdfrwt beam="1">  1        1 0.49964062E+00 0.25589194E+04</pdfrwt>
<pdfrwt beam="2">  1       -1 0.77547675E-01 0.25589194E+04</pdfrwt>
<totfact> 0.57653349E-01</totfact>
</mgrwt>
</event>
<event>
 6    1  0.1001928E-005  0.9979072E+03  0.7818608E-02  0.9310843E-01
          2   -1    0    0  501    0  0.00000000000E+00  0.00000000000E+00  0.22642177184E+04  0.22642177184E+04  0.00000000000E+00 0. -1.
         -2   -1    0    0    0  501 -0.00000000000E+00 -0.00000000000E+00 -0.10995173751E+03  0.10995173751E+03  0.00000000000E+00 0.  1.
         23    2    1    2    0    0 -0.18910039093E+03  0.44350614330E+03  0.13517663271E+04  0.14379737759E+04  0.89664485820E+02 0.  0.
         13    1    3    3    0    0 -0.77007889316E+02  0.10613479224E+03  0.44813963382E+03  0.46693033799E+03  0.00000000000E+00 0. -1.
        -13    1    3    3    0    0 -0.11209250162E+03  0.33737135106E+03  0.90362669332E+03  0.97104343791E+03  0.00000000000E+00 0.  1.
         22    1    1    2    0    0  0.18910039093E+03 -0.44350614330E+03  0.80249965377E+03  0.93619568003E+03  0.00000000000E+00 0. -1.
<mgrwt>
<rscale>  0 0.99790715E+03</rscale>
<asrwt>0</asrwt>
<pdfrwt beam="1">  1        2 0.34834115E+00 0.99790715E+03</pdfrwt>
<pdfrwt beam="2">  1       -2 0.16915654E-01 0.99790715E+03</pdfrwt>
<totfact> 0.13673682E+02</totfact>
</mgrwt>
</event>
<event>
 6    1  0.1001928E-005  0.1556496E+04  0.7818608E-02  0.8847729E-01
          2   -1    0    0  501    0  0.00000000000E+00  0.00000000000E+00  0.18984116134E+04  0.18984116134E+04  0.00000000000E+00 0. -1.
         -2   -1    0    0    0  501 -0.00000000000E+00 -0.00000000000E+00 -0.31904048831E+03  0.31904048831E+03  0.00000000000E+00 0.  1.
         23    2    1    2    0    0  0.66157572724E+03 -0.32054358881E+03  0.44091267071E+03  0.86227008901E+03  0.93140152526E+02 0.  0.
         13    1    3    3    0    0  0.45425128501E+03 -0.25745443073E+03  0.28102558607E+03  0.59296070179E+03  0.00000000000E+00 0. -1.
        -13    1    3    3    0    0  0.20732444223E+03 -0.63089158072E+02  0.15988708464E+03  0.26930938723E+03  0.00000000000E+00 0.  1.
         22    1    1    2    0    0 -0.66157572724E+03  0.32054358881E+03  0.11384584544E+04  0.13551820127E+04  0.00000000000E+00 0. -1.
<mgrwt>
<rscale>  0 0.15564963E+04</rscale>
<asrwt>0</asrwt>
<pdfrwt beam="1">  1        2 0.29206332E+00 0.15564963E+04</pdfrwt>
<pdfrwt beam="2">  1       -2 0.49083153E-01 0.15564963E+04</pdfrwt>
<totfact> 0.28770759E+01</totfact>
</mgrwt>
</event>
<event>
 6    1  0.1001928E-005  0.2857171E+04  0.7818608E-02  0.8285736E-01
          2   -1    0    0  501    0  0.00000000000E+00  0.00000000000E+00  0.20266701984E+04  0.20266701984E+04  0.00000000000E+00 0. -1.
         -2   -1    0    0    0  501 -0.00000000000E+00 -0.00000000000E+00 -0.10069996236E+04  0.10069996236E+04  0.00000000000E+00 0.  1.
         23    2    1    2    0    0  0.12962311014E+04  0.60278481411E+02 -0.12043375886E+03  0.13063347489E+04  0.90319556734E+02 0.  0.
         13    1    3    3    0    0  0.45606893395E+03  0.55739045586E+02 -0.16527970871E+02  0.45975959754E+03  0.00000000000E+00 0. -1.
        -13    1    3    3    0    0  0.84016216742E+03  0.45394358249E+01 -0.10390578799E+03  0.84657515132E+03  0.00000000000E+00 0.  1.
         22    1    1    2    0    0 -0.12962311014E+04 -0.60278481411E+02  0.11401043336E+04  0.17273350732E+04  0.00000000000E+00 0. -1.
<mgrwt>
<rscale>  0 0.28571707E+04</rscale>
<asrwt>0</asrwt>
<pdfrwt beam="1">  1        2 0.31179541E+00 0.28571707E+04</pdfrwt>
<pdfrwt beam="2">  1       -2 0.15492302E+00 0.28571707E+04</pdfrwt>
<totfact> 0.15372918E+00</totfact>
</mgrwt>
</event>
<event>
 6    1  0.1001928E-005  0.3077360E+04  0.7818608E-02  0.8221979E-01
         -1   -1    0    0    0  501 -0.00000000000E+00  0.00000000000E+00  0.13335155485E+04  0.13335155485E+04  0.00000000000E+00 0.  1.
          1   -1    0    0  501    0  0.00000000000E+00 -0.00000000000E+00 -0.17754092422E+04  0.17754092422E+04  0.00000000000E+00 0. -1.
         23    2    1    2    0    0  0.93178683659E+03  0.87379510861E+03 -0.10852805265E+04  0.16786481680E+04  0.91001373611E+02 0.  0.
         11    1    3    3    0    0  0.46854382045E+03  0.48950478748E+03 -0.53936652705E+03  0.86606264159E+03  0.00000000000E+00 0.  1.
        -11    1    3    3    0    0  0.46324301613E+03  0.38429032113E+03 -0.54591399943E+03  0.81258552638E+03  0.00000000000E+00 0. -1.
         22    1    1    2    0    0 -0.93178683659E+03 -0.87379510861E+03  0.64338683279E+03  0.14302766226E+04  0.00000000000E+00 0. -1.
<mgrwt>
<rscale>  0 0.30773598E+04</rscale>
<asrwt>0</asrwt>
<pdfrwt beam="1">  1        1 0.27313988E+00 0.30773598E+04</pdfrwt>
<pdfrwt beam="2">  1       -1 0.20515624E+00 0.30773598E+04</pdfrwt>
<totfact> 0.49657109E-01</totfact>
</mgrwt>
</event>
<event>
 6    1  0.1001928E-005  0.3178094E+04  0.7818608E-02  0.8194627E-01
          4   -1    0    0  501    0  0.00000000000E+00  0.00000000000E+00  0.22862927352E+04  0.22862927352E+04  0.00000000000E+00 0. -1.
         -4   -1    0    0    0  501 -0.00000000000E+00 -0.00000000000E+00 -0.11044386919E+04  0.11044386919E+04  0.00000000000E+00 0.  1.
         23    2    1    2    0    0 -0.14579081270E+04 -0.24962727318E+03  0.12070883784E+04  0.19113914885E+04  0.92440179574E+02 0.  0.
         13    1    3    3    0    0 -0.85666321210E+03 -0.10124526646E+03  0.71365179353E+03  0.11195630154E+04  0.00000000000E+00 0. -1.
        -13    1    3    3    0    0 -0.60124491487E+03 -0.14838200672E+03  0.49343658490E+03  0.79182847315E+03  0.00000000000E+00 0.  1.
         22    1    1    2    0    0  0.14579081270E+04  0.24962727318E+03 -0.25234335169E+02  0.14793399386E+04  0.00000000000E+00 0. -1.
<mgrwt>
<rscale>  0 0.31780939E+04</rscale>
<asrwt>0</asrwt>
<pdfrwt beam="1">  1        4 0.35173734E+00 0.31780939E+04</pdfrwt>
<pdfrwt beam="2">  1       -4 0.16991365E+00 0.31780939E+04</pdfrwt>
<totfact> 0.51093226E-03</totfact>
</mgrwt>
</event>
<event>
 6    1  0.1001928E-005  0.2219255E+04  0.7818608E-02  0.8510456E-01
          2   -1    0    0  501    0  0.00000000000E+00  0.00000000000E+00  0.37817521719E+04  0.37817521719E+04  0.00000000000E+00 0.  1.
         -2   -1    0    0    0  501 -0.00000000000E+00 -0.00000000000E+00 -0.32558272691E+03  0.32558272691E+03  0.00000000000E+00 0. -1.
         23    2    1    2    0    0 -0.40372586291E+03 -0.53885655854E+03  0.33587069839E+04  0.34269968252E+04  0.10016822281E+03 0.  0.
         11    1    3    3    0    0 -0.21729611218E+03 -0.21863215990E+03  0.16549142811E+04  0.16833772303E+04  0.00000000000E+00 0.  1.
        -11    1    3    3    0    0 -0.18642975073E+03 -0.32022439863E+03  0.17037927029E+04  0.17436195949E+04  0.00000000000E+00 0. -1.
         22    1    1    2    0    0  0.40372586291E+03  0.53885655854E+03  0.97462461025E+02  0.68033807358E+03  0.00000000000E+00 0. -1.
<mgrwt>
<rscale>  0 0.22192550E+04</rscale>
<asrwt>0</asrwt>
<pdfrwt beam="1">  1        2 0.58180800E+00 0.22192550E+04</pdfrwt>
<pdfrwt beam="2">  1       -2 0.50089653E-01 0.22192550E+04</pdfrwt>
<totfact> 0.17536719E+00</totfact>
</mgrwt>
</event>
<event>
 6    1  0.1274294E-005  0.3072467E+04  0.7818608E-02  0.8223335E-01
         -2   -1    0    0    0  501 -0.00000000000E+00  0.00000000000E+00  0.98971614340E+03  0.98971614340E+03  0.00000000000E+00 0.  1.
          2   -1    0    0  501    0  0.00000000000E+00 -0.00000000000E+00 -0.23845361335E+04  0.23845361335E+04  0.00000000000E+00 0. -1.
         23    2    1    2    0    0  0.53212388283E+03  0.82410131557E+03 -0.19944327521E+04  0.22245417614E+04  0.92332229106E+02 0.  0.
         13    1    3    3    0    0  0.29113680798E+03  0.43771970217E+03 -0.96537904182E+03  0.10992342212E+04  0.00000000000E+00 0. -1.
        -13    1    3    3    0    0  0.24098707485E+03  0.38638161340E+03 -0.10290537103E+04  0.11253075402E+04  0.00000000000E+00 0.  1.
         22    1    1    2    0    0 -0.53212388283E+03 -0.82410131557E+03  0.59961276203E+03  0.11497105155E+04  0.00000000000E+00 0.  1.
<mgrwt>
<rscale>  0 0.30724674E+04</rscale>
<asrwt>0</asrwt>
<pdfrwt beam="1">  1        2 0.36685171E+00 0.30724674E+04</pdfrwt>
<pdfrwt beam="2">  1       -2 0.15226402E+00 0.30724674E+04</pdfrwt>
<totfact> 0.99393793E-01</totfact>
</mgrwt>
</event>
<event>
 6    1  0.1225210E-005  0.2723110E+04  0.7818608E-02  0.8327545E-01
         -1   -1    0    0    0  501 -0.00000000000E+00  0.00000000000E+00  0.11302578703E+04  0.11302578703E+04  0.00000000000E+00 0.  1.
          1   -1    0    0  501    0  0.00000000000E+00 -0.00000000000E+00 -0.16401852341E+04  0.16401852341E+04  0.00000000000E+00 0. -1.
         23    2    1    2    0    0  0.51329495016E+03 -0.31729955612E+03 -0.14952806907E+04  0.16149899928E+04  0.90430187361E+02 0.  0.
         11    1    3    3    0    0  0.18933713860E+03 -0.12967836931E+03 -0.68467786359E+03  0.72211412423E+03  0.00000000000E+00 0.  1.
        -11    1    3    3    0    0  0.32395781157E+03 -0.18762118680E+03 -0.81060282709E+03  0.89287586859E+03  0.00000000000E+00 0. -1.
         22    1    1    2    0    0 -0.51329495016E+03  0.31729955612E+03  0.98535332690E+03  0.11554531116E+04  0.00000000000E+00 0.  1.
<mgrwt>
<rscale>  0 0.27231102E+04</rscale>
<asrwt>0</asrwt>
<pdfrwt beam="1">  1        1 0.25233619E+00 0.27231102E+04</pdfrwt>
<pdfrwt beam="2">  1       -1 0.17388583E+00 0.27231102E+04</pdfrwt>
<totfact> 0.10517459E+00</totfact>
</mgrwt>
</event>
<event>
 6    1  0.1001928E-005  0.5135946E+04  0.7818608E-02  0.7807872E-01
         -2   -1    0    0    0  501 -0.00000000000E+00  0.00000000000E+00  0.25265561908E+04  0.25265561908E+04  0.00000000000E+00 0.  1.
          2   -1    0    0  501    0  0.00000000000E+00 -0.00000000000E+00 -0.26100688851E+04  0.26100688851E+04  0.00000000000E+00 0. -1.
         23    2    1    2    0    0 -0.15488161458E+04 -0.10819723222E+04 -0.17800536814E+04  0.25973836772E+04  0.91188257075E+02 0.  0.
         13    1    3    3    0    0 -0.12138947388E+04 -0.88308446451E+03 -0.14445346826E+04  0.20832808398E+04  0.00000000000E+00 0.  1.
        -13    1    3    3    0    0 -0.33492140703E+03 -0.19888785772E+03 -0.33551899882E+03  0.51410283738E+03  0.00000000000E+00 0. -1.
         22    1    1    2    0    0  0.15488161458E+04  0.10819723222E+04  0.16965409871E+04  0.25392413987E+04  0.00000000000E+00 0.  1.
<mgrwt>
<rscale>  0 0.51359461E+04</rscale>
<asrwt>0</asrwt>
<pdfrwt beam="1">  1        2 0.40154906E+00 0.51359461E+04</pdfrwt>
<pdfrwt beam="2">  1       -2 0.38870095E+00 0.51359461E+04</pdfrwt>
<totfact> 0.19024377E-02</totfact>
</mgrwt>
</event>
<event>
 6    1  0.1115601E-005  0.2806175E+04  0.7818608E-02  0.8301354E-01
         -1   -1    0    0    0  501 -0.00000000000E+00  0.00000000000E+00  0.72644662745E+03  0.72644662745E+03  0.00000000000E+00 0. -1.
          1   -1    0    0  501    0  0.00000000000E+00 -0.00000000000E+00 -0.27099780495E+04  0.27099780495E+04  0.00000000000E+00 0.  1.
         23    2    1    2    0    0  0.60483941926E+03 -0.86520437894E+03  0.13749123919E+03  0.10672166933E+04  0.75088541813E+02 0.  0.
         11    1    3    3    0    0  0.38417621131E+03 -0.49490295361E+03  0.61751607670E+02  0.62955028066E+03  0.00000000000E+00 0.  1.
        -11    1    3    3    0    0  0.22066320795E+03 -0.37030142533E+03  0.75739631519E+02  0.43766641261E+03  0.00000000000E+00 0. -1.
         22    1    1    2    0    0 -0.60483941926E+03  0.86520437894E+03 -0.21210226612E+04  0.23692079837E+04  0.00000000000E+00 0.  1.
<mgrwt>
<rscale>  0 0.28061749E+04</rscale>
<asrwt>0</asrwt>
<pdfrwt beam="1">  1        1 0.41691969E+00 0.28061749E+04</pdfrwt>
<pdfrwt beam="2">  1       -1 0.11176102E+00 0.28061749E+04</pdfrwt>
<totfact> 0.61369453E-01</totfact>
</mgrwt>
</event>
<event>
 6    1  0.1001928E-005  0.3082569E+04  0.7818608E-02  0.8220538E-01
         -2   -1    0    0    0  501 -0.00000000000E+00  0.00000000000E+00  0.79130830830E+03  0.79130830830E+03  0.00000000000E+00 0.  1.
          2   -1    0    0  501    0  0.00000000000E+00 -0.00000000000E+00 -0.30020642970E+04  0.30020642970E+04  0.00000000000E+00 0. -1.
         23    2    1    2    0    0  0.49602403072E+03 -0.14423209059E+04 -0.13680762461E+04  0.20508346334E+04  0.89222441092E+02 0.  0.
         11    1    3    3    0    0  0.34782885710E+03 -0.11250124615E+04 -0.10459938373E+04  0.15750368440E+04  0.00000000000E+00 0. -1.
        -11    1    3    3    0    0  0.14819517361E+03 -0.31730844440E+03 -0.32208240875E+03  0.47579778940E+03  0.00000000000E+00 0.  1.
         22    1    1    2    0    0 -0.49602403072E+03  0.14423209059E+04 -0.84267974263E+03  0.17425379718E+04  0.00000000000E+00 0.  1.
<mgrwt>
<rscale>  0 0.30825693E+04</rscale>
<asrwt>0</asrwt>
<pdfrwt beam="1">  1        2 0.46185605E+00 0.30825693E+04</pdfrwt>
<pdfrwt beam="2">  1       -2 0.12173974E+00 0.30825693E+04</pdfrwt>
<totfact> 0.75563565E-01</totfact>
</mgrwt>
</event>
<event>
 6    1  0.1001928E-005  0.1810951E+04  0.7818608E-02  0.8700497E-01
         -1   -1    0    0    0  501 -0.00000000000E+00  0.00000000000E+00  0.48656674771E+03  0.48656674771E+03  0.00000000000E+00 0.  1.
          1   -1    0    0  501    0  0.00000000000E+00 -0.00000000000E+00 -0.16850431563E+04  0.16850431563E+04  0.00000000000E+00 0. -1.
         23    2    1    2    0    0 -0.44658251648E+03 -0.44975326448E+03 -0.13722294898E+04  0.15144158108E+04  0.93421264283E+02 0.  0.
         13    1    3    3    0    0 -0.16608040487E+03 -0.22244982976E+03 -0.53761513309E+03  0.60505921939E+03  0.00000000000E+00 0.  1.
        -13    1    3    3    0    0 -0.28050211161E+03 -0.22730343472E+03 -0.83461435668E+03  0.90935659146E+03  0.00000000000E+00 0. -1.
         22    1    1    2    0    0  0.44658251648E+03  0.44975326448E+03  0.17375308114E+03  0.65719409320E+03  0.00000000000E+00 0.  1.
<mgrwt>
<rscale>  0 0.18109511E+04</rscale>
<asrwt>0</asrwt>
<pdfrwt beam="1">  1        1 0.25923741E+00 0.18109511E+04</pdfrwt>
<pdfrwt beam="2">  1       -1 0.74856424E-01 0.18109511E+04</pdfrwt>
<totfact> 0.82568116E+00</totfact>
</mgrwt>
</event>
<event>
 6    1  0.1001928E-005  0.1784992E+04  0.7818608E-02  0.8714322E-01
         -1   -1    0    0    0  501 -0.00000000000E+00  0.00000000000E+00  0.99144048540E+03  0.99144048540E+03  0.00000000000E+00 0.  1.
          1   -1    0    0  501    0  0.00000000000E+00 -0.00000000000E+00 -0.80342565322E+03  0.80342565322E+03  0.00000000000E+00 0. -1.
         23    2    1    2    0    0 -0.83797956608E+01  0.58210997127E+03 -0.58371459792E+03  0.82817665749E+03  0.78940512813E+02 0.  0.
         13    1    3    3    0    0  0.35096652248E+02  0.24601193133E+03 -0.25438480710E+03  0.35561956560E+03  0.00000000000E+00 0. -1.
        -13    1    3    3    0    0 -0.43476447909E+02  0.33609803994E+03 -0.32932979082E+03  0.47255709189E+03  0.00000000000E+00 0.  1.
         22    1    1    2    0    0  0.83797956608E+01 -0.58210997127E+03  0.77172943011E+03  0.96668948112E+03  0.00000000000E+00 0.  1.
<mgrwt>
<rscale>  0 0.17849916E+04</rscale>
<asrwt>0</asrwt>
<pdfrwt beam="1">  1        1 0.12360395E+00 0.17849916E+04</pdfrwt>
<pdfrwt beam="2">  1       -1 0.15252931E+00 0.17849916E+04</pdfrwt>
<totfact> 0.69180749E+00</totfact>
</mgrwt>
</event>
<event>
 6    1  0.1001928E-005  0.3599347E+04  0.7818608E-02  0.8090641E-01
          2   -1    0    0  501    0  0.00000000000E+00  0.00000000000E+00  0.18192372169E+04  0.18192372169E+04  0.00000000000E+00 0. -1.
         -2   -1    0    0    0  501 -0.00000000000E+00 -0.00000000000E+00 -0.17803198387E+04  0.17803198387E+04  0.00000000000E+00 0.  1.
         23    2    1    2    0    0  0.57786763833E+03  0.33913413998E+03 -0.16496468871E+04  0.17829139288E+04  0.92218508391E+02 0.  0.
         11    1    3    3    0    0  0.34078324553E+03  0.17423967487E+03 -0.10437475254E+04  0.11117111052E+04  0.00000000000E+00 0.  1.
        -11    1    3    3    0    0  0.23708439279E+03  0.16489446511E+03 -0.60589936167E+03  0.67120282359E+03  0.00000000000E+00 0. -1.
         22    1    1    2    0    0 -0.57786763833E+03 -0.33913413998E+03  0.16885642652E+04  0.18166431268E+04  0.00000000000E+00 0. -1.
<mgrwt>
<rscale>  0 0.35993467E+04</rscale>
<asrwt>0</asrwt>
<pdfrwt beam="1">  1        2 0.27988265E+00 0.35993467E+04</pdfrwt>
<pdfrwt beam="2">  1       -2 0.27389536E+00 0.35993467E+04</pdfrwt>
<totfact> 0.31487525E-01</totfact>
</mgrwt>
</event>
<event>
 6    1  0.1001928E-005  0.1502923E+04  0.7818608E-02  0.8882511E-01
         -1   -1    0    0    0  501 -0.00000000000E+00  0.00000000000E+00  0.34580380676E+03  0.34580380676E+03  0.00000000000E+00 0.  1.
          1   -1    0    0  501    0  0.00000000000E+00 -0.00000000000E+00 -0.16329908194E+04  0.16329908194E+04  0.00000000000E+00 0. -1.
         23    2    1    2    0    0 -0.30881306761E+03  0.34613787067E+03 -0.14198378233E+04  0.14963289032E+04  0.88790797042E+02 0.  0.
         11    1    3    3    0    0 -0.28194627441E+03  0.30050875292E+03 -0.11564431433E+04  0.12276644313E+04  0.00000000000E+00 0.  1.
        -11    1    3    3    0    0 -0.26866793192E+02  0.45629117749E+02 -0.26339468000E+03  0.26866447181E+03  0.00000000000E+00 0. -1.
         22    1    1    2    0    0  0.30881306761E+03 -0.34613787067E+03  0.13265081073E+03  0.48246572295E+03  0.00000000000E+00 0.  1.
<mgrwt>
<rscale>  0 0.15029231E+04</rscale>
<asrwt>0</asrwt>
<pdfrwt beam="1">  1        1 0.25122936E+00 0.15029231E+04</pdfrwt>
<pdfrwt beam="2">  1       -1 0.53200586E-01 0.15029231E+04</pdfrwt>
<totfact> 0.18253561E+01</totfact>
</mgrwt>
</event>
<event>
 6    1  0.1001928E-005  0.6717947E+03  0.7818608E-02  0.9766721E-01
          2   -1    0    0  501    0  0.00000000000E+00  0.00000000000E+00  0.34821528129E+04  0.34821528129E+04  0.00000000000E+00 0. -1.
         -2   -1    0    0    0  501 -0.00000000000E+00 -0.00000000000E+00 -0.32401519052E+02  0.32401519052E+02  0.00000000000E+00 0.  1.
         23    2    1    2    0    0 -0.29388690651E+03  0.19215801136E+02  0.25297256352E+04  0.25485388179E+04  0.93805949120E+02 0.  0.
         13    1    3    3    0    0 -0.27387615681E+03 -0.86552278340E+01  0.23000455461E+04  0.23163101210E+04  0.00000000000E+00 0. -1.
        -13    1    3    3    0    0 -0.20010749700E+02  0.27871028970E+02  0.22968008911E+03  0.23222869696E+03  0.00000000000E+00 0.  1.
         22    1    1    2    0    0  0.29388690651E+03 -0.19215801136E+02  0.92002565863E+03  0.96601551404E+03  0.00000000000E+00 0.  1.
<mgrwt>
<rscale>  0 0.67179473E+03</rscale>
<asrwt>0</asrwt>
<pdfrwt beam="1">  1        2 0.53571552E+00 0.67179473E+03</pdfrwt>
<pdfrwt beam="2">  1       -2 0.49848518E-02 0.67179473E+03</pdfrwt>
<totfact> 0.18863204E+02</totfact>
</mgrwt>
</event>
<event>
 6    1  0.1001928E-005  0.2181130E+04  0.7818608E-02  0.8526323E-01
          1   -1    0    0  501    0  0.00000000000E+00  0.00000000000E+00  0.19635830518E+04  0.19635830518E+04  0.00000000000E+00 0. -1.
         -1   -1    0    0    0  501 -0.00000000000E+00 -0.00000000000E+00 -0.60569498759E+03  0.60569498759E+03  0.00000000000E+00 0.  1.
         23    2    1    2    0    0 -0.31606900991E+03 -0.60765998425E+03  0.16768279624E+04  0.18137167022E+04  0.93091271594E+02 0.  0.
         13    1    3    3    0    0 -0.21319744905E+03 -0.39704793216E+03  0.12133367454E+04  0.12943285018E+04  0.00000000000E+00 0.  1.
        -13    1    3    3    0    0 -0.10287156086E+03 -0.21061205209E+03  0.46349121698E+03  0.51938820042E+03  0.00000000000E+00 0. -1.
         22    1    1    2    0    0  0.31606900991E+03  0.60765998425E+03 -0.31893989824E+03  0.75556133714E+03  0.00000000000E+00 0.  1.
<mgrwt>
<rscale>  0 0.21811304E+04</rscale>
<asrwt>0</asrwt>
<pdfrwt beam="1">  1        1 0.30208970E+00 0.21811304E+04</pdfrwt>
<pdfrwt beam="2">  1       -1 0.93183845E-01 0.21811304E+04</pdfrwt>
<totfact> 0.32205393E+00</totfact>
</mgrwt>
</event>
<event>
 6    1  0.1001928E-005  0.1906150E+04  0.7818608E-02  0.8651801E-01
         -2   -1    0    0    0  501 -0.00000000000E+00  0.00000000000E+00  0.14324834317E+04  0.14324834317E+04  0.00000000000E+00 0.  1.
          2   -1    0    0  501    0  0.00000000000E+00 -0.00000000000E+00 -0.63410968855E+03  0.63410968855E+03  0.00000000000E+00 0. -1.
         23    2    1    2    0    0  0.92219414007E+03 -0.18742558765E+03  0.25139183996E+03  0.97812649911E+03  0.89236809501E+02 0.  0.
         11    1    3    3    0    0  0.53318671379E+03 -0.63270983843E+02  0.14377220184E+03  0.55584326494E+03  0.00000000000E+00 0.  1.
        -11    1    3    3    0    0  0.38900742628E+03 -0.12415460381E+03  0.10761963812E+03  0.42228323417E+03  0.00000000000E+00 0. -1.
         22    1    1    2    0    0 -0.92219414007E+03  0.18742558765E+03  0.54698190317E+03  0.10884666211E+04  0.00000000000E+00 0.  1.
<mgrwt>
<rscale>  0 0.19061497E+04</rscale>
<asrwt>0</asrwt>
<pdfrwt beam="1">  1        2 0.97555337E-01 0.19061497E+04</pdfrwt>
<pdfrwt beam="2">  1       -2 0.22038207E+00 0.19061497E+04</pdfrwt>
<totfact> 0.42625901E+00</totfact>
</mgrwt>
</event>
<event>
 6    1  0.1001928E-005  0.3868187E+04  0.7818608E-02  0.8031678E-01
          2   -1    0    0  501    0  0.00000000000E+00  0.00000000000E+00  0.12414154713E+04  0.12414154713E+04  0.00000000000E+00 0. -1.
         -2   -1    0    0    0  501 -0.00000000000E+00 -0.00000000000E+00 -0.30132681908E+04  0.30132681908E+04  0.00000000000E+00 0.  1.
         23    2    1    2    0    0 -0.85310439172E+03 -0.11063841845E+04  0.58305687000E+03  0.15165324169E+04  0.89678263701E+02 0.  0.
         13    1    3    3    0    0 -0.72810823340E+03 -0.92830539911E+03  0.45786904049E+03  0.12655183017E+04  0.00000000000E+00 0.  1.
        -13    1    3    3    0    0 -0.12499615831E+03 -0.17807878538E+03  0.12518782951E+03  0.25101411525E+03  0.00000000000E+00 0. -1.
         22    1    1    2    0    0  0.85310439172E+03  0.11063841845E+04 -0.23549095895E+04  0.27381512452E+04  0.00000000000E+00 0.  1.
<mgrwt>
<rscale>  0 0.38681870E+04</rscale>
<asrwt>0</asrwt>
<pdfrwt beam="1">  1        2 0.19098700E+00 0.38681870E+04</pdfrwt>
<pdfrwt beam="2">  1       -2 0.46357972E+00 0.38681870E+04</pdfrwt>
<totfact> 0.40297213E-02</totfact>
</mgrwt>
</event>
<event>
 6    1  0.1001928E-005  0.3300590E+04  0.7818608E-02  0.8162745E-01
         -2   -1    0    0    0  501 -0.00000000000E+00  0.00000000000E+00  0.14647388740E+04  0.14647388740E+04  0.00000000000E+00 0.  1.
          2   -1    0    0  501    0  0.00000000000E+00 -0.00000000000E+00 -0.18593578884E+04  0.18593578884E+04  0.00000000000E+00 0. -1.
         23    2    1    2    0    0 -0.12318234029E+04  0.39856710089E+03  0.83115259879E+03  0.15411888350E+04  0.90574569971E+02 0.  0.
         11    1    3    3    0    0 -0.54898319690E+03  0.22396970874E+03  0.36838522174E+03  0.69803485049E+03  0.00000000000E+00 0. -1.
        -11    1    3    3    0    0 -0.68284020601E+03  0.17459739215E+03  0.46276737705E+03  0.84315398448E+03  0.00000000000E+00 0.  1.
         22    1    1    2    0    0  0.12318234029E+04 -0.39856710089E+03 -0.12257716132E+04  0.17829079274E+04  0.00000000000E+00 0. -1.
<mgrwt>
<rscale>  0 0.33005901E+04</rscale>
<asrwt>0</asrwt>
<pdfrwt beam="1">  1        2 0.28605506E+00 0.33005901E+04</pdfrwt>
<pdfrwt beam="2">  1       -2 0.22534444E+00 0.33005901E+04</pdfrwt>
<totfact> 0.61090702E-01</totfact>
</mgrwt>
</event>
<event>
 6    1  0.1001928E-005  0.1686292E+04  0.7818608E-02  0.8769221E-01
         -2   -1    0    0    0  501 -0.00000000000E+00  0.00000000000E+00  0.85964907333E+03  0.85964907333E+03  0.00000000000E+00 0.  1.
          2   -1    0    0  501    0  0.00000000000E+00 -0.00000000000E+00 -0.82695961302E+03  0.82695961302E+03  0.00000000000E+00 0. -1.
         23    2    1    2    0    0 -0.21883948051E+03  0.17775094851E+03  0.80807378600E+03  0.86155900879E+03  0.99068481727E+02 0.  0.
         13    1    3    3    0    0  0.22301548003E+01  0.36240628924E+02  0.93632766861E+02  0.10042635015E+03  0.00000000000E+00 0.  1.
        -13    1    3    3    0    0 -0.22106963531E+03  0.14151031958E+03  0.71444101914E+03  0.76113265863E+03  0.00000000000E+00 0. -1.
         22    1    1    2    0    0  0.21883948051E+03 -0.17775094851E+03 -0.77538432569E+03  0.82504967756E+03  0.00000000000E+00 0. -1.
<mgrwt>
<rscale>  0 0.16862919E+04</rscale>
<asrwt>0</asrwt>
<pdfrwt beam="1">  1        2 0.12722456E+00 0.16862919E+04</pdfrwt>
<pdfrwt beam="2">  1       -2 0.13225370E+00 0.16862919E+04</pdfrwt>
<totfact> 0.13045716E+01</totfact>
</mgrwt>
</event>
<event>
 6    1  0.1001928E-005  0.1987816E+04  0.7818608E-02  0.8612338E-01
         -1   -1    0    0    0  501 -0.00000000000E+00  0.00000000000E+00  0.11628145242E+04  0.11628145242E+04  0.00000000000E+00 0.  1.
          1   -1    0    0  501    0  0.00000000000E+00 -0.00000000000E+00 -0.84953623578E+03  0.84953623578E+03  0.00000000000E+00 0. -1.
         23    2    1    2    0    0 -0.75302196633E+03  0.71345801849E+02 -0.49228200903E+03  0.90733505961E+03  0.93717814531E+02 0.  0.
         11    1    3    3    0    0 -0.57841680094E+03  0.86206353532E+02 -0.40666253688E+03  0.71230046321E+03  0.00000000000E+00 0.  1.
        -11    1    3    3    0    0 -0.17460516540E+03 -0.14860551683E+02 -0.85619472150E+02  0.19503459639E+03  0.00000000000E+00 0. -1.
         22    1    1    2    0    0  0.75302196633E+03 -0.71345801849E+02  0.80556029741E+03  0.11050157003E+04  0.00000000000E+00 0.  1.
<mgrwt>
<rscale>  0 0.19878160E+04</rscale>
<asrwt>0</asrwt>
<pdfrwt beam="1">  1        1 0.13069788E+00 0.19878160E+04</pdfrwt>
<pdfrwt beam="2">  1       -1 0.17889454E+00 0.19878160E+04</pdfrwt>
<totfact> 0.39454814E+00</totfact>
</mgrwt>
</event>
<event>
 6    1  0.1001928E-005  0.3278895E+04  0.7818608E-02  0.8168286E-01
          2   -1    0    0  501    0  0.00000000000E+00  0.00000000000E+00  0.21506013987E+04  0.21506013987E+04  0.00000000000E+00 0. -1.
         -2   -1    0    0    0  501 -0.00000000000E+00 -0.00000000000E+00 -0.12497843987E+04  0.12497843987E+04  0.00000000000E+00 0.  1.
         23    2    1    2    0    0 -0.11858129243E+04 -0.65300215353E+03  0.14074379556E+04  0.19549692842E+04  0.91973906412E+02 0.  0.
         13    1    3    3    0    0 -0.42773949689E+03 -0.18951535768E+03  0.46128771521E+03  0.65701103811E+03  0.00000000000E+00 0.  1.
        -13    1    3    3    0    0 -0.75807342739E+03 -0.46348679585E+03  0.94615024041E+03  0.12979582461E+04  0.00000000000E+00 0. -1.
         22    1    1    2    0    0  0.11858129243E+04  0.65300215353E+03 -0.50662095567E+03  0.14454165132E+04  0.00000000000E+00 0.  1.
<mgrwt>
<rscale>  0 0.32788950E+04</rscale>
<asrwt>0</asrwt>
<pdfrwt beam="1">  1        2 0.33086175E+00 0.32788950E+04</pdfrwt>
<pdfrwt beam="2">  1       -2 0.19227452E+00 0.32788950E+04</pdfrwt>
<totfact> 0.68925491E-01</totfact>
</mgrwt>
</event>
<event>
 6    1  0.1001928E-005  0.2860349E+04  0.7818608E-02  0.8284774E-01
          1   -1    0    0  501    0  0.00000000000E+00  0.00000000000E+00  0.33887304303E+04  0.33887304303E+04  0.00000000000E+00 0. -1.
         -1   -1    0    0    0  501 -0.00000000000E+00 -0.00000000000E+00 -0.60358849432E+03  0.60358849432E+03  0.00000000000E+00 0.  1.
         23    2    1    2    0    0  0.12397131055E+04 -0.40562032523E+03  0.57966415134E+03  0.14299862588E+04  0.86219138272E+02 0.  0.
         13    1    3    3    0    0  0.75558516296E+03 -0.22398261641E+03  0.38912345461E+03  0.87891649994E+03  0.00000000000E+00 0. -1.
        -13    1    3    3    0    0  0.48412794249E+03 -0.18163770883E+03  0.19054069673E+03  0.55106975881E+03  0.00000000000E+00 0.  1.
         22    1    1    2    0    0 -0.12397131055E+04  0.40562032523E+03  0.22054777846E+04  0.25623326659E+04  0.00000000000E+00 0. -1.
<mgrwt>
<rscale>  0 0.28603487E+04</rscale>
<asrwt>0</asrwt>
<pdfrwt beam="1">  1        1 0.52134313E+00 0.28603487E+04</pdfrwt>
<pdfrwt beam="2">  1       -1 0.92859771E-01 0.28603487E+04</pdfrwt>
<totfact> 0.29610428E-01</totfact>
</mgrwt>
</event>
<event>
 6    1  0.1001928E-005  0.1741119E+04  0.7818608E-02  0.8738254E-01
          1   -1    0    0  501    0  0.00000000000E+00  0.00000000000E+00  0.18013593817E+04  0.18013593817E+04  0.00000000000E+00 0. -1.
         -1   -1    0    0    0  501 -0.00000000000E+00 -0.00000000000E+00 -0.42072306332E+03  0.42072306332E+03  0.00000000000E+00 0.  1.
         23    2    1    2    0    0  0.37846136253E+02  0.69701780279E+03  0.13508986730E+04  0.15234047833E+04  0.92567606059E+02 0.  0.
         11    1    3    3    0    0  0.65741585129E+02  0.47941436899E+03  0.96395667722E+03  0.10785975008E+04  0.00000000000E+00 0. -1.
        -11    1    3    3    0    0 -0.27895448875E+02  0.21760343379E+03  0.38694199574E+03  0.44480728246E+03  0.00000000000E+00 0.  1.
         22    1    1    2    0    0 -0.37846136253E+02 -0.69701780279E+03  0.29737645400E+02  0.69867766172E+03  0.00000000000E+00 0.  1.
<mgrwt>
<rscale>  0 0.17411185E+04</rscale>
<asrwt>0</asrwt>
<pdfrwt beam="1">  1        1 0.27713221E+00 0.17411185E+04</pdfrwt>
<pdfrwt beam="2">  1       -1 0.64726626E-01 0.17411185E+04</pdfrwt>
<totfact> 0.93306302E+00</totfact>
</mgrwt>
</event>
<event>
 6    1  0.1001928E-005  0.4242641E+04  0.7818608E-02  0.7957310E-01
          2   -1    0    0  501    0  0.00000000000E+00  0.00000000000E+00  0.13339475663E+04  0.13339475663E+04  0.00000000000E+00 0.  1.
         -2   -1    0    0    0  501 -0.00000000000E+00 -0.00000000000E+00 -0.33734469874E+04  0.33734469874E+04  0.00000000000E+00 0. -1.
         23    2    1    2    0    0  0.85915382220E+03  0.46205961579E+03 -0.31090006543E+04  0.32598182115E+04  0.94262000830E+02 0.  0.
         13    1    3    3    0    0  0.60347163386E+03  0.27568145334E+03 -0.21360257228E+04  0.22366904491E+04  0.00000000000E+00 0. -1.
        -13    1    3    3    0    0  0.25568218833E+03  0.18637816244E+03 -0.97297493155E+03  0.10231277624E+04  0.00000000000E+00 0.  1.
         22    1    1    2    0    0 -0.85915382220E+03 -0.46205961579E+03  0.10695012331E+04  0.14475763422E+04  0.00000000000E+00 0.  1.
<mgrwt>
<rscale>  0 0.42426413E+04</rscale>
<asrwt>0</asrwt>
<pdfrwt beam="1">  1        2 0.20522270E+00 0.42426413E+04</pdfrwt>
<pdfrwt beam="2">  1       -2 0.51899184E+00 0.42426413E+04</pdfrwt>
<totfact> 0.15522742E-02</totfact>
</mgrwt>
</event>
<event>
 6    1  0.1001928E-005  0.1504716E+04  0.7818608E-02  0.8881323E-01
          2   -1    0    0  501    0  0.00000000000E+00  0.00000000000E+00  0.30572451104E+04  0.30572451104E+04  0.00000000000E+00 0. -1.
         -2   -1    0    0    0  501 -0.00000000000E+00 -0.00000000000E+00 -0.18514795564E+03  0.18514795564E+03  0.00000000000E+00 0.  1.
         23    2    1    2    0    0  0.62757082641E+03  0.40023550480E+03  0.16332402362E+04  0.17971249019E+04  0.90280909533E+02 0.  0.
         11    1    3    3    0    0  0.35305512248E+03  0.24211185647E+03  0.83568230549E+03  0.93895206814E+03  0.00000000000E+00 0. -1.
        -11    1    3    3    0    0  0.27451570393E+03  0.15812364833E+03  0.79755793069E+03  0.85817283380E+03  0.00000000000E+00 0.  1.
         22    1    1    2    0    0 -0.62757082641E+03 -0.40023550480E+03  0.12388569186E+04  0.14452681641E+04  0.00000000000E+00 0.  1.
<mgrwt>
<rscale>  0 0.15047162E+04</rscale>
<asrwt>0</asrwt>
<pdfrwt beam="1">  1        2 0.47034536E+00 0.15047162E+04</pdfrwt>
<pdfrwt beam="2">  1       -2 0.28484303E-01 0.15047162E+04</pdfrwt>
<totfact> 0.17615149E+01</totfact>
</mgrwt>
</event>
<event>
 6    1  0.1001928E-005  0.2051584E+04  0.7818608E-02  0.8582876E-01
          1   -1    0    0  501    0  0.00000000000E+00  0.00000000000E+00  0.89355287774E+03  0.89355287774E+03  0.00000000000E+00 0. -1.
         -1   -1    0    0    0  501 -0.00000000000E+00 -0.00000000000E+00 -0.11776010688E+04  0.11776010688E+04  0.00000000000E+00 0.  1.
         23    2    1    2    0    0  0.67480766692E+03 -0.64615349448E+03  0.28045651589E+03  0.97957468237E+03  0.89615708916E+02 0.  0.
         11    1    3    3    0    0  0.39307294479E+03 -0.35084470660E+03  0.20010672417E+03  0.56359653045E+03  0.00000000000E+00 0. -1.
        -11    1    3    3    0    0  0.28173472213E+03 -0.29530878788E+03  0.80349791728E+02  0.41597815193E+03  0.00000000000E+00 0.  1.
         22    1    1    2    0    0 -0.67480766692E+03  0.64615349448E+03 -0.56450470693E+03  0.10915792641E+04  0.00000000000E+00 0. -1.
<mgrwt>
<rscale>  0 0.20515836E+04</rscale>
<asrwt>0</asrwt>
<pdfrwt beam="1">  1        1 0.13746967E+00 0.20515836E+04</pdfrwt>
<pdfrwt beam="2">  1       -1 0.18116939E+00 0.20515836E+04</pdfrwt>
<totfact> 0.34724450E+00</totfact>
</mgrwt>
</event>
<event>
 6    1  0.1001928E-005  0.4825596E+04  0.7818608E-02  0.7855989E-01
          2   -1    0    0  501    0  0.00000000000E+00  0.00000000000E+00  0.39255673439E+04  0.39255673439E+04  0.00000000000E+00 0. -1.
         -2   -1    0    0    0  501 -0.00000000000E+00 -0.00000000000E+00 -0.14829945059E+04  0.14829945059E+04  0.00000000000E+00 0.  1.
         23    2    1    2    0    0  0.10107862426E+04  0.45479930421E+03 -0.11792584535E+04  0.16209249693E+04  0.90642265948E+02 0.  0.
         11    1    3    3    0    0  0.43771125566E+03  0.24203301936E+03 -0.50375552919E+03  0.70988784958E+03  0.00000000000E+00 0. -1.
        -11    1    3    3    0    0  0.57307498695E+03  0.21276628485E+03 -0.67550292432E+03  0.91103711967E+03  0.00000000000E+00 0.  1.
         22    1    1    2    0    0 -0.10107862426E+04 -0.45479930421E+03  0.36218312915E+04  0.37876368806E+04  0.00000000000E+00 0. -1.
<mgrwt>
<rscale>  0 0.48255963E+04</rscale>
<asrwt>0</asrwt>
<pdfrwt beam="1">  1        2 0.60393343E+00 0.48255963E+04</pdfrwt>
<pdfrwt beam="2">  1       -2 0.22815300E+00 0.48255963E+04</pdfrwt>
<totfact> 0.25334128E-02</totfact>
</mgrwt>
</event>
<event>
 6    1  0.1001928E-005  0.2020004E+04  0.7818608E-02  0.8597325E-01
          1   -1    0    0  501    0  0.00000000000E+00  0.00000000000E+00  0.21793275922E+04  0.21793275922E+04  0.00000000000E+00 0. -1.
         -1   -1    0    0    0  501 -0.00000000000E+00 -0.00000000000E+00 -0.46808218019E+03  0.46808218019E+03  0.00000000000E+00 0.  1.
         23    2    1    2    0    0 -0.84808960625E+03  0.55582110480E+02  0.14757796295E+03  0.86769034437E+03  0.93605167246E+02 0.  0.
         11    1    3    3    0    0 -0.52389673173E+03  0.41482815525E+02  0.13662821275E+03  0.54300633332E+03  0.00000000000E+00 0.  1.
        -11    1    3    3    0    0 -0.32419287451E+03  0.14099294955E+02  0.10949750203E+02  0.32468401105E+03  0.00000000000E+00 0. -1.
         22    1    1    2    0    0  0.84808960625E+03 -0.55582110480E+02  0.15636674491E+04  0.17797194280E+04  0.00000000000E+00 0. -1.
<mgrwt>
<rscale>  0 0.20200044E+04</rscale>
<asrwt>0</asrwt>
<pdfrwt beam="1">  1        1 0.33528116E+00 0.20200044E+04</pdfrwt>
<pdfrwt beam="2">  1       -1 0.72012645E-01 0.20200044E+04</pdfrwt>
<totfact> 0.40554371E+00</totfact>
</mgrwt>
</event>
<event>
 6    1  0.1001928E-005  0.2950509E+04  0.7818608E-02  0.8258006E-01
         -2   -1    0    0    0  501 -0.00000000000E+00  0.00000000000E+00  0.57007095612E+03  0.57007095612E+03  0.00000000000E+00 0.  1.
          2   -1    0    0  501    0  0.00000000000E+00 -0.00000000000E+00 -0.38177282118E+04  0.38177282118E+04  0.00000000000E+00 0. -1.
         23    2    1    2    0    0  0.78840006640E+03 -0.59322303907E+03 -0.32535933647E+04  0.34011262352E+04  0.91113369595E+02 0.  0.
         13    1    3    3    0    0  0.16827278591E+03 -0.17157127985E+03 -0.84298640988E+03  0.87657202886E+03  0.00000000000E+00 0. -1.
        -13    1    3    3    0    0  0.62012728049E+03 -0.42165175922E+03 -0.24106069548E+04  0.25245542063E+04  0.00000000000E+00 0.  1.
         22    1    1    2    0    0 -0.78840006640E+03  0.59322303907E+03  0.59361090177E+01  0.98667293273E+03  0.00000000000E+00 0.  1.
<mgrwt>
<rscale>  0 0.29505091E+04</rscale>
<asrwt>0</asrwt>
<pdfrwt beam="1">  1        2 0.58734283E+00 0.29505091E+04</pdfrwt>
<pdfrwt beam="2">  1       -2 0.87703220E-01 0.29505091E+04</pdfrwt>
<totfact> 0.45872280E-01</totfact>
</mgrwt>
</event>
<event>
 6    1  0.1001928E-005  0.1042008E+04  0.7818608E-02  0.9263634E-01
         -2   -1    0    0    0  501 -0.00000000000E+00  0.00000000000E+00  0.14897488537E+04  0.14897488537E+04  0.00000000000E+00 0.  1.
          2   -1    0    0  501    0  0.00000000000E+00 -0.00000000000E+00 -0.18220884322E+03  0.18220884322E+03  0.00000000000E+00 0. -1.
         23    2    1    2    0    0  0.44576645142E+03 -0.15753988021E+03  0.99696299428E+03  0.11062858609E+04  0.80041558082E+02 0.  0.
         13    1    3    3    0    0  0.37846796265E+03 -0.12313582149E+03  0.89372144519E+03  0.97833452913E+03  0.00000000000E+00 0.  1.
        -13    1    3    3    0    0  0.67298488769E+02 -0.34404058723E+02  0.10324154909E+03  0.12795133178E+03  0.00000000000E+00 0. -1.
         22    1    1    2    0    0 -0.44576645142E+03  0.15753988021E+03  0.31057701624E+03  0.56567183604E+03  0.00000000000E+00 0. -1.
<mgrwt>
<rscale>  0 0.10420085E+04</rscale>
<asrwt>0</asrwt>
<pdfrwt beam="1">  1        2 0.28032131E-01 0.10420085E+04</pdfrwt>
<pdfrwt beam="2">  1       -2 0.22919212E+00 0.10420085E+04</pdfrwt>
<totfact> 0.16628636E+01</totfact>
</mgrwt>
</event>
<event>
 6    1  0.1001928E-005  0.1662983E+04  0.7818608E-02  0.8782763E-01
         -2   -1    0    0    0  501 -0.00000000000E+00  0.00000000000E+00  0.84388654489E+03  0.84388654489E+03  0.00000000000E+00 0.  1.
          2   -1    0    0  501    0  0.00000000000E+00 -0.00000000000E+00 -0.81927838125E+03  0.81927838125E+03  0.00000000000E+00 0. -1.
         23    2    1    2    0    0  0.58765185712E+03  0.33204497359E+03 -0.46900778505E+03  0.82695605602E+03  0.91101297950E+02 0.  0.
         11    1    3    3    0    0  0.11557046057E+03  0.94808804176E+02 -0.13832484956E+03  0.20366395045E+03  0.00000000000E+00 0. -1.
        -11    1    3    3    0    0  0.47208139655E+03  0.23723616941E+03 -0.33068293549E+03  0.62329210557E+03  0.00000000000E+00 0.  1.
         22    1    1    2    0    0 -0.58765185712E+03 -0.33204497359E+03  0.49361594869E+03  0.83620887012E+03  0.00000000000E+00 0.  1.
<mgrwt>
<rscale>  0 0.16629829E+04</rscale>
<asrwt>0</asrwt>
<pdfrwt beam="1">  1        2 0.12604283E+00 0.16629829E+04</pdfrwt>
<pdfrwt beam="2">  1       -2 0.12982870E+00 0.16629829E+04</pdfrwt>
<totfact> 0.13872010E+01</totfact>
</mgrwt>
</event>
<event>
 6    1  0.1001928E-005  0.2559937E+04  0.7818608E-02  0.8381939E-01
          4   -1    0    0  501    0  0.00000000000E+00  0.00000000000E+00  0.16714546326E+04  0.16714546326E+04  0.00000000000E+00 0. -1.
         -4   -1    0    0    0  501 -0.00000000000E+00 -0.00000000000E+00 -0.98017559164E+03  0.98017559164E+03  0.00000000000E+00 0.  1.
         23    2    1    2    0    0  0.11737010607E+04  0.31567723732E+03  0.75682985234E+03  0.14344518450E+04  0.87374894726E+02 0.  0.
         13    1    3    3    0    0  0.52201244358E+03  0.18543645914E+03  0.34271598647E+03  0.65141224967E+03  0.00000000000E+00 0.  1.
        -13    1    3    3    0    0  0.65168861708E+03  0.13024077818E+03  0.41411386587E+03  0.78303959532E+03  0.00000000000E+00 0. -1.
         22    1    1    2    0    0 -0.11737010607E+04 -0.31567723732E+03 -0.65550811434E+02  0.12171783792E+04  0.00000000000E+00 0.  1.
<mgrwt>
<rscale>  0 0.25599367E+04</rscale>
<asrwt>0</asrwt>
<pdfrwt beam="1">  1        4 0.25714687E+00 0.25599367E+04</pdfrwt>
<pdfrwt beam="2">  1       -4 0.15079624E+00 0.25599367E+04</pdfrwt>
<totfact> 0.29625352E-02</totfact>
</mgrwt>
</event>
<event>
 6    1  0.1001928E-005  0.2006335E+04  0.7818608E-02  0.8603665E-01
          2   -1    0    0  501    0  0.00000000000E+00  0.00000000000E+00  0.17912650373E+04  0.17912650373E+04  0.00000000000E+00 0. -1.
         -2   -1    0    0    0  501 -0.00000000000E+00 -0.00000000000E+00 -0.56180694532E+03  0.56180694532E+03  0.00000000000E+00 0.  1.
         23    2    1    2    0    0 -0.10275275881E+03 -0.90766014053E+03  0.13550622974E+03  0.92789278791E+03  0.90653336464E+02 0.  0.
         13    1    3    3    0    0 -0.11554426407E+03 -0.72614140476E+03  0.12301015255E+03  0.74549534828E+03  0.00000000000E+00 0. -1.
        -13    1    3    3    0    0  0.12791505256E+02 -0.18151873576E+03  0.12496077190E+02  0.18239743963E+03  0.00000000000E+00 0.  1.
         22    1    1    2    0    0  0.10275275881E+03  0.90766014053E+03  0.10939518623E+04  0.14251791947E+04  0.00000000000E+00 0. -1.
<mgrwt>
<rscale>  0 0.20063351E+04</rscale>
<asrwt>0</asrwt>
<pdfrwt beam="1">  1        2 0.27557923E+00 0.20063351E+04</pdfrwt>
<pdfrwt beam="2">  1       -2 0.86431839E-01 0.20063351E+04</pdfrwt>
<totfact> 0.93969301E+00</totfact>
</mgrwt>
</event>
<event>
 6    1  0.1001928E-005  0.2389374E+04  0.7818608E-02  0.8443492E-01
          1   -1    0    0  501    0  0.00000000000E+00  0.00000000000E+00  0.10037474068E+04  0.10037474068E+04  0.00000000000E+00 0. -1.
         -1   -1    0    0    0  501 -0.00000000000E+00 -0.00000000000E+00 -0.14219486998E+04  0.14219486998E+04  0.00000000000E+00 0.  1.
         23    2    1    2    0    0  0.90378711982E+03 -0.33044317529E+02 -0.99913927925E+03  0.13507951676E+04  0.91897772344E+02 0.  0.
         13    1    3    3    0    0  0.74032231785E+03  0.25880257121E+01 -0.78471263579E+03  0.10788223917E+04  0.00000000000E+00 0. -1.
        -13    1    3    3    0    0  0.16346480197E+03 -0.35632343241E+02 -0.21442664346E+03  0.27197277583E+03  0.00000000000E+00 0.  1.
         22    1    1    2    0    0 -0.90378711982E+03  0.33044317529E+02  0.58093798629E+03  0.10749009391E+04  0.00000000000E+00 0. -1.
<mgrwt>
<rscale>  0 0.23893742E+04</rscale>
<asrwt>0</asrwt>
<pdfrwt beam="1">  1        1 0.15442268E+00 0.23893742E+04</pdfrwt>
<pdfrwt beam="2">  1       -1 0.21876134E+00 0.23893742E+04</pdfrwt>
<totfact> 0.15121235E+00</totfact>
</mgrwt>
</event>
<event>
 6    1  0.1001928E-005  0.1600616E+04  0.7818608E-02  0.8820170E-01
          1   -1    0    0  501    0  0.00000000000E+00  0.00000000000E+00  0.13609046194E+04  0.13609046194E+04  0.00000000000E+00 0. -1.
         -1   -1    0    0    0  501 -0.00000000000E+00 -0.00000000000E+00 -0.47063731779E+03  0.47063731779E+03  0.00000000000E+00 0.  1.
         23    2    1    2    0    0 -0.63983427297E+03 -0.39902998203E+03  0.74447186597E+03  0.10635125546E+04  0.90596750038E+02 0.  0.
         11    1    3    3    0    0 -0.33735240300E+03 -0.17844166679E+03  0.32496433573E+03  0.50124833342E+03  0.00000000000E+00 0. -1.
        -11    1    3    3    0    0 -0.30248186998E+03 -0.22058831524E+03  0.41950753024E+03  0.56226422117E+03  0.00000000000E+00 0.  1.
         22    1    1    2    0    0  0.63983427297E+03  0.39902998203E+03  0.14579543560E+03  0.76802938256E+03  0.00000000000E+00 0.  1.
<mgrwt>
<rscale>  0 0.16006155E+04</rscale>
<asrwt>0</asrwt>
<pdfrwt beam="1">  1        1 0.20936994E+00 0.16006155E+04</pdfrwt>
<pdfrwt beam="2">  1       -1 0.72405742E-01 0.16006155E+04</pdfrwt>
<totfact> 0.15113267E+01</totfact>
</mgrwt>
</event>
<event>
 6    1  0.1001928E-005  0.4820071E+04  0.7818608E-02  0.7856879E-01
          2   -1    0    0  501    0  0.00000000000E+00  0.00000000000E+00  0.25359892057E+04  0.25359892057E+04  0.00000000000E+00 0. -1.
         -2   -1    0    0    0  501 -0.00000000000E+00 -0.00000000000E+00 -0.22903374207E+04  0.22903374207E+04  0.00000000000E+00 0.  1.
         23    2    1    2    0    0  0.89587333188E+03 -0.13457982163E+04 -0.16655055119E+04  0.23230719291E+04  0.94829910049E+02 0.  0.
         13    1    3    3    0    0  0.22685868195E+03 -0.39465636036E+03 -0.42551174126E+03  0.62312017003E+03  0.00000000000E+00 0. -1.
        -13    1    3    3    0    0  0.66901464993E+03 -0.95114185595E+03 -0.12399937707E+04  0.16999517591E+04  0.00000000000E+00 0.  1.
         22    1    1    2    0    0 -0.89587333188E+03  0.13457982163E+04  0.19111572970E+04  0.25032546973E+04  0.00000000000E+00 0.  1.
<mgrwt>
<rscale>  0 0.48200709E+04</rscale>
<asrwt>0</asrwt>
<pdfrwt beam="1">  1        2 0.39015218E+00 0.48200709E+04</pdfrwt>
<pdfrwt beam="2">  1       -2 0.35235961E+00 0.48200709E+04</pdfrwt>
<totfact> 0.36832084E-02</totfact>
</mgrwt>
</event>
<event>
 6    1  0.1001928E-005  0.1733453E+04  0.7818608E-02  0.8742512E-01
         -2   -1    0    0    0  501 -0.00000000000E+00  0.00000000000E+00  0.39442195842E+03  0.39442195842E+03  0.00000000000E+00 0.  1.
          2   -1    0    0  501    0  0.00000000000E+00 -0.00000000000E+00 -0.19045958868E+04  0.19045958868E+04  0.00000000000E+00 0. -1.
         23    2    1    2    0    0 -0.77145366639E+03 -0.18953656394E+02 -0.24077975028E+03  0.81346691043E+03  0.90848917087E+02 0.  0.
         11    1    3    3    0    0  0.16227104745E+00  0.40222347768E+01 -0.47608690596E+01  0.62346273903E+01  0.00000000000E+00 0. -1.
        -11    1    3    3    0    0 -0.77161593744E+03 -0.22975891171E+02 -0.23601888122E+03  0.80723228304E+03  0.00000000000E+00 0.  1.
         22    1    1    2    0    0  0.77145366639E+03  0.18953656394E+02 -0.12693941781E+04  0.14855509348E+04  0.00000000000E+00 0. -1.
<mgrwt>
<rscale>  0 0.17334526E+04</rscale>
<asrwt>0</asrwt>
<pdfrwt beam="1">  1        2 0.29301475E+00 0.17334526E+04</pdfrwt>
<pdfrwt beam="2">  1       -2 0.60680301E-01 0.17334526E+04</pdfrwt>
<totfact> 0.18116563E+01</totfact>
</mgrwt>
</event>
<event>
 6    1  0.1001928E-005  0.3639267E+04  0.7818608E-02  0.8081556E-01
         -1   -1    0    0    0  501 -0.00000000000E+00  0.00000000000E+00  0.11558210222E+04  0.11558210222E+04  0.00000000000E+00 0.  1.
          1   -1    0    0  501    0  0.00000000000E+00 -0.00000000000E+00 -0.28646881377E+04  0.28646881377E+04  0.00000000000E+00 0. -1.
         23    2    1    2    0    0  0.37303575826E+03  0.14085195454E+04 -0.20569867308E+04  0.25224202929E+04  0.91250955971E+02 0.  0.
         13    1    3    3    0    0  0.10604719837E+03  0.44154435876E+03 -0.57166463800E+03  0.73007389172E+03  0.00000000000E+00 0.  1.
        -13    1    3    3    0    0  0.26698855988E+03  0.96697518660E+03 -0.14853220928E+04  0.17923464012E+04  0.00000000000E+00 0. -1.
         22    1    1    2    0    0 -0.37303575826E+03 -0.14085195454E+04  0.34811961527E+03  0.14980888669E+04  0.00000000000E+00 0.  1.
<mgrwt>
<rscale>  0 0.36392674E+04</rscale>
<asrwt>0</asrwt>
<pdfrwt beam="1">  1        1 0.44072125E+00 0.36392674E+04</pdfrwt>
<pdfrwt beam="2">  1       -1 0.17781862E+00 0.36392674E+04</pdfrwt>
<totfact> 0.13028203E-01</totfact>
</mgrwt>
</event>
<event>
 6    1  0.1001928E-005  0.1724119E+04  0.7818608E-02  0.8747727E-01
         -2   -1    0    0    0  501 -0.00000000000E+00  0.00000000000E+00  0.70653154466E+03  0.70653154466E+03  0.00000000000E+00 0.  1.
          2   -1    0    0  501    0  0.00000000000E+00 -0.00000000000E+00 -0.10518240144E+04  0.10518240144E+04  0.00000000000E+00 0. -1.
         23    2    1    2    0    0  0.69393225470E+03  0.49454065803E+02  0.34177428277E+03  0.78057828322E+03  0.92223191962E+02 0.  0.
         13    1    3    3    0    0  0.27874437180E+03 -0.11181372590E+01  0.18169190906E+03  0.33273356437E+03  0.00000000000E+00 0. -1.
        -13    1    3    3    0    0  0.41518788291E+03  0.50572203062E+02  0.16008237371E+03  0.44784471886E+03  0.00000000000E+00 0.  1.
         22    1    1    2    0    0 -0.69393225470E+03 -0.49454065803E+02 -0.68706675248E+03  0.97777727581E+03  0.00000000000E+00 0. -1.
<mgrwt>
<rscale>  0 0.17241193E+04</rscale>
<asrwt>0</asrwt>
<pdfrwt beam="1">  1        2 0.16181908E+00 0.17241193E+04</pdfrwt>
<pdfrwt beam="2">  1       -2 0.10869716E+00 0.17241193E+04</pdfrwt>
<totfact> 0.14997067E+01</totfact>
</mgrwt>
</event>
<event>
 6    1  0.1001928E-005  0.2183510E+04  0.7818608E-02  0.8525323E-01
         -1   -1    0    0    0  501 -0.00000000000E+00  0.00000000000E+00  0.61979870022E+03  0.61979870022E+03  0.00000000000E+00 0.  1.
          1   -1    0    0  501    0  0.00000000000E+00 -0.00000000000E+00 -0.19230901429E+04  0.19230901429E+04  0.00000000000E+00 0. -1.
         23    2    1    2    0    0  0.93758429910E+03 -0.55576504117E+03 -0.65765884175E+03  0.12760895085E+04  0.89163796677E+02 0.  0.
         11    1    3    3    0    0  0.48270099293E+03 -0.33693395986E+03 -0.34459674468E+03  0.68210824532E+03  0.00000000000E+00 0. -1.
        -11    1    3    3    0    0  0.45488330617E+03 -0.21883108131E+03 -0.31306209706E+03  0.59398126317E+03  0.00000000000E+00 0.  1.
         22    1    1    2    0    0 -0.93758429910E+03  0.55576504117E+03 -0.64563260097E+03  0.12667993347E+04  0.00000000000E+00 0. -1.
<mgrwt>
<rscale>  0 0.21835098E+04</rscale>
<asrwt>0</asrwt>
<pdfrwt beam="1">  1        1 0.29586002E+00 0.21835098E+04</pdfrwt>
<pdfrwt beam="2">  1       -1 0.95353648E-01 0.21835098E+04</pdfrwt>
<totfact> 0.32575829E+00</totfact>
</mgrwt>
</event>
<event>
 6    1  0.1001928E-005  0.1962489E+04  0.7818608E-02  0.8624362E-01
         -1   -1    0    0    0  501 -0.00000000000E+00  0.00000000000E+00  0.55351278041E+03  0.55351278041E+03  0.00000000000E+00 0.  1.
          1   -1    0    0  501    0  0.00000000000E+00 -0.00000000000E+00 -0.17395095248E+04  0.17395095248E+04  0.00000000000E+00 0. -1.
         23    2    1    2    0    0 -0.89698705083E+03 -0.20102312482E+03 -0.20034602439E+03  0.94524509515E+03  0.91398546717E+02 0.  0.
         13    1    3    3    0    0 -0.48399472718E+03 -0.15153402425E+03 -0.92278655323E+02  0.51548890063E+03  0.00000000000E+00 0.  1.
        -13    1    3    3    0    0 -0.41299232366E+03 -0.49489100564E+02 -0.10806736906E+03  0.42975619452E+03  0.00000000000E+00 0. -1.
         22    1    1    2    0    0  0.89698705083E+03  0.20102312482E+03 -0.98565071998E+03  0.13477772100E+04  0.00000000000E+00 0. -1.
<mgrwt>
<rscale>  0 0.19624890E+04</rscale>
<asrwt>0</asrwt>
<pdfrwt beam="1">  1        1 0.26761685E+00 0.19624890E+04</pdfrwt>
<pdfrwt beam="2">  1       -1 0.85155813E-01 0.19624890E+04</pdfrwt>
<totfact> 0.56838592E+00</totfact>
</mgrwt>
</event>
<event>
 6    1  0.1001928E-005  0.2568266E+04  0.7818608E-02  0.8379061E-01
          1   -1    0    0  501    0  0.00000000000E+00  0.00000000000E+00  0.16397976296E+04  0.16397976296E+04  0.00000000000E+00 0. -1.
         -1   -1    0    0    0  501 -0.00000000000E+00 -0.00000000000E+00 -0.10056104648E+04  0.10056104648E+04  0.00000000000E+00 0.  1.
         23    2    1    2    0    0  0.11982252112E+04 -0.20146764039E+02  0.78751362938E+03  0.14372447968E+04  0.96671302426E+02 0.  0.
         11    1    3    3    0    0  0.69233948161E+03  0.22475323050E+02  0.49421515186E+03  0.85093343704E+03  0.00000000000E+00 0. -1.
        -11    1    3    3    0    0  0.50588572959E+03 -0.42622087089E+02  0.29329847752E+03  0.58631135979E+03  0.00000000000E+00 0.  1.
         22    1    1    2    0    0 -0.11982252112E+04  0.20146764039E+02 -0.15332646456E+03  0.12081632976E+04  0.00000000000E+00 0.  1.
<mgrwt>
<rscale>  0 0.25682661E+04</rscale>
<asrwt>0</asrwt>
<pdfrwt beam="1">  1        1 0.25227656E+00 0.25682661E+04</pdfrwt>
<pdfrwt beam="2">  1       -1 0.15470930E+00 0.25682661E+04</pdfrwt>
<totfact> 0.14844935E+00</totfact>
</mgrwt>
</event>
<event>
 6    1  0.1001928E-005  0.2445163E+04  0.7818608E-02  0.8422786E-01
         -4   -1    0    0    0  501 -0.00000000000E+00  0.00000000000E+00  0.25704711685E+04  0.25704711685E+04  0.00000000000E+00 0.  1.
          4   -1    0    0  501    0  0.00000000000E+00 -0.00000000000E+00 -0.58149064077E+03  0.58149064077E+03  0.00000000000E+00 0. -1.
         23    2    1    2    0    0 -0.52337632712E+03 -0.76311211365E+03  0.20225782719E+04  0.22260073362E+04  0.89570739360E+02 0.  0.
         13    1    3    3    0    0 -0.38949572258E+03 -0.62349828873E+03  0.15563111828E+04  0.17212093225E+04  0.00000000000E+00 0.  1.
        -13    1    3    3    0    0 -0.13388060454E+03 -0.13961382493E+03  0.46626708905E+03  0.50479801377E+03  0.00000000000E+00 0. -1.
         22    1    1    2    0    0  0.52337632712E+03  0.76311211365E+03 -0.33597744097E+02  0.92595447307E+03  0.00000000000E+00 0. -1.
<mgrwt>
<rscale>  0 0.24451625E+04</rscale>
<asrwt>0</asrwt>
<pdfrwt beam="1">  1        4 0.89460100E-01 0.24451625E+04</pdfrwt>
<pdfrwt beam="2">  1       -4 0.39545710E+00 0.24451625E+04</pdfrwt>
<totfact> 0.14082504E-02</totfact>
</mgrwt>
</event>
<event>
 6    1  0.1001928E-005  0.1461021E+04  0.7818608E-02  0.8910795E-01
         -1   -1    0    0    0  501 -0.00000000000E+00  0.00000000000E+00  0.37829114997E+03  0.37829114997E+03  0.00000000000E+00 0.  1.
          1   -1    0    0  501    0  0.00000000000E+00 -0.00000000000E+00 -0.14106751349E+04  0.14106751349E+04  0.00000000000E+00 0. -1.
         23    2    1    2    0    0 -0.43172217066E+03 -0.63481456782E+02  0.19493631255E+03  0.48638076345E+03  0.90289274609E+02 0.  0.
         11    1    3    3    0    0 -0.15552402931E+03 -0.63672014526E+02  0.55493103123E+02  0.17697834223E+03  0.00000000000E+00 0. -1.
        -11    1    3    3    0    0 -0.27619814135E+03  0.19055774428E+00  0.13944320943E+03  0.30940242122E+03  0.00000000000E+00 0.  1.
         22    1    1    2    0    0  0.43172217066E+03  0.63481456782E+02 -0.12273202975E+04  0.13025855214E+04  0.00000000000E+00 0. -1.
<mgrwt>
<rscale>  0 0.14610214E+04</rscale>
<asrwt>0</asrwt>
<pdfrwt beam="1">  1        1 0.21702695E+00 0.14610214E+04</pdfrwt>
<pdfrwt beam="2">  1       -1 0.58198637E-01 0.14610214E+04</pdfrwt>
<totfact> 0.21918201E+01</totfact>
</mgrwt>
</event>
<event>
 6    1  0.1001928E-005  0.1421494E+04  0.7818608E-02  0.8938405E-01
         -2   -1    0    0    0  501 -0.00000000000E+00  0.00000000000E+00  0.16466956014E+03  0.16466956014E+03  0.00000000000E+00 0.  1.
          2   -1    0    0  501    0  0.00000000000E+00 -0.00000000000E+00 -0.30677275721E+04  0.30677275721E+04  0.00000000000E+00 0. -1.
         23    2    1    2    0    0  0.61122855778E+03 -0.22874449026E+03 -0.84019764779E+03  0.10687619334E+04  0.10195877216E+03 0.  0.
         13    1    3    3    0    0  0.17707177148E+03 -0.11694876997E+03 -0.27378199563E+03  0.34639285239E+03  0.00000000000E+00 0. -1.
        -13    1    3    3    0    0  0.43415678629E+03 -0.11179572029E+03 -0.56641565216E+03  0.72236908099E+03  0.00000000000E+00 0.  1.
         22    1    1    2    0    0 -0.61122855778E+03  0.22874449026E+03 -0.20628603642E+04  0.21636351988E+04  0.00000000000E+00 0. -1.
<mgrwt>
<rscale>  0 0.14214941E+04</rscale>
<asrwt>0</asrwt>
<pdfrwt beam="1">  1        2 0.47195806E+00 0.14214941E+04</pdfrwt>
<pdfrwt beam="2">  1       -2 0.25333780E-01 0.14214941E+04</pdfrwt>
<totfact> 0.21681901E+01</totfact>
</mgrwt>
</event>
<event>
 6    1  0.1001928E-005  0.4441285E+04  0.7818608E-02  0.7920997E-01
          2   -1    0    0  501    0  0.00000000000E+00  0.00000000000E+00  0.38546838532E+04  0.38546838532E+04  0.00000000000E+00 0.  1.
         -2   -1    0    0    0  501 -0.00000000000E+00 -0.00000000000E+00 -0.12792883220E+04  0.12792883220E+04  0.00000000000E+00 0. -1.
         23    2    1    2    0    0  0.19622263881E+04 -0.26373542266E+03  0.24482225554E+04  0.31500211331E+04  0.94608071880E+02 0.  0.
         13    1    3    3    0    0  0.29316871774E+03 -0.30819370995E+02  0.41816249212E+03  0.51162251759E+03  0.00000000000E+00 0. -1.
        -13    1    3    3    0    0  0.16690576704E+04 -0.23291605167E+03  0.20300600632E+04  0.26383986155E+04  0.00000000000E+00 0.  1.
         22    1    1    2    0    0 -0.19622263881E+04  0.26373542266E+03  0.12717297583E+03  0.19839510420E+04  0.00000000000E+00 0. -1.
<mgrwt>
<rscale>  0 0.44412845E+04</rscale>
<asrwt>0</asrwt>
<pdfrwt beam="1">  1        2 0.59302828E+00 0.44412845E+04</pdfrwt>
<pdfrwt beam="2">  1       -2 0.19681359E+00 0.44412845E+04</pdfrwt>
<totfact> 0.47226823E-02</totfact>
</mgrwt>
</event>
<event>
 6    1  0.1001928E-005  0.3092427E+04  0.7818608E-02  0.8217819E-01
         -1   -1    0    0    0  501 -0.00000000000E+00  0.00000000000E+00  0.24746516074E+04  0.24746516074E+04  0.00000000000E+00 0.  1.
          1   -1    0    0  501    0  0.00000000000E+00 -0.00000000000E+00 -0.96610626406E+03  0.96610626406E+03  0.00000000000E+00 0. -1.
         23    2    1    2    0    0  0.21347110510E+03  0.14177713179E+04  0.13950990935E+04  0.20025244153E+04  0.90316834592E+02 0.  0.
         11    1    3    3    0    0  0.11369967378E+03  0.46894421653E+03  0.46618617280E+03  0.67094399300E+03  0.00000000000E+00 0.  1.
        -11    1    3    3    0    0  0.99771431316E+02  0.94882710139E+03  0.92891292072E+03  0.13315804223E+04  0.00000000000E+00 0. -1.
         22    1    1    2    0    0 -0.21347110510E+03 -0.14177713179E+04  0.11344624979E+03  0.14382334561E+04  0.00000000000E+00 0. -1.
<mgrwt>
<rscale>  0 0.30924271E+04</rscale>
<asrwt>0</asrwt>
<pdfrwt beam="1">  1        1 0.14863173E+00 0.30924271E+04</pdfrwt>
<pdfrwt beam="2">  1       -1 0.38071563E+00 0.30924271E+04</pdfrwt>
<totfact> 0.13138902E-01</totfact>
</mgrwt>
</event>
<event>
 6    1  0.1001928E-005  0.3584790E+04  0.7818608E-02  0.8093985E-01
          2   -1    0    0  501    0  0.00000000000E+00  0.00000000000E+00  0.33513303161E+04  0.33513303161E+04  0.00000000000E+00 0. -1.
         -2   -1    0    0    0  501 -0.00000000000E+00 -0.00000000000E+00 -0.95862818824E+03  0.95862818824E+03  0.00000000000E+00 0.  1.
         23    2    1    2    0    0 -0.39795809447E+03  0.16270553429E+04  0.43432526259E+03  0.17329603126E+04  0.93985516952E+02 0.  0.
         13    1    3    3    0    0 -0.22838992047E+03  0.11117871010E+04  0.30622232786E+03  0.11755869291E+04  0.00000000000E+00 0. -1.
        -13    1    3    3    0    0 -0.16956817400E+03  0.51526824194E+03  0.12810293474E+03  0.55737338353E+03  0.00000000000E+00 0.  1.
         22    1    1    2    0    0  0.39795809447E+03 -0.16270553429E+04  0.19583768653E+04  0.25769981918E+04  0.00000000000E+00 0. -1.
<mgrwt>
<rscale>  0 0.35847899E+04</rscale>
<asrwt>0</asrwt>
<pdfrwt beam="1">  1        2 0.51558928E+00 0.35847899E+04</pdfrwt>
<pdfrwt beam="2">  1       -2 0.14748126E+00 0.35847899E+04</pdfrwt>
<totfact> 0.26273343E-01</totfact>
</mgrwt>
</event>
<event>
 6    1  0.1001928E-005  0.5441253E+04  0.7818608E-02  0.7763825E-01
          2   -1    0    0  501    0  0.00000000000E+00  0.00000000000E+00  0.26366181357E+04  0.26366181357E+04  0.00000000000E+00 0.  1.
         -2   -1    0    0    0  501 -0.00000000000E+00 -0.00000000000E+00 -0.28073119073E+04  0.28073119073E+04  0.00000000000E+00 0. -1.
         23    2    1    2    0    0 -0.45938431515E+03  0.11485479383E+03 -0.27650217062E+04  0.28067415771E+04  0.90706518942E+02 0.  0.
         11    1    3    3    0    0 -0.28208464769E+03  0.28426031861E+02 -0.17334587862E+04  0.17564905781E+04  0.00000000000E+00 0.  1.
        -11    1    3    3    0    0 -0.17729966746E+03  0.86428761966E+02 -0.10315629200E+04  0.10502509990E+04  0.00000000000E+00 0. -1.
         22    1    1    2    0    0  0.45938431515E+03 -0.11485479383E+03  0.25943279346E+04  0.26371884659E+04  0.00000000000E+00 0.  1.
<mgrwt>
<rscale>  0 0.54412533E+04</rscale>
<asrwt>0</asrwt>
<pdfrwt beam="1">  1        2 0.40563356E+00 0.54412533E+04</pdfrwt>
<pdfrwt beam="2">  1       -2 0.43189414E+00 0.54412533E+04</pdfrwt>
<totfact> 0.93359733E-03</totfact>
</mgrwt>
</event>
<event>
 6    1  0.1001928E-005  0.1812180E+04  0.7818608E-02  0.8699849E-01
         -2   -1    0    0    0  501 -0.00000000000E+00  0.00000000000E+00  0.13815333036E+04  0.13815333036E+04  0.00000000000E+00 0.  1.
          2   -1    0    0  501    0  0.00000000000E+00 -0.00000000000E+00 -0.59426639171E+03  0.59426639171E+03  0.00000000000E+00 0. -1.
         23    2    1    2    0    0 -0.65990117938E+03 -0.61354539389E+03  0.47090447774E+03  0.10208166029E+04  0.91695107795E+02 0.  0.
         11    1    3    3    0    0 -0.47289970747E+03 -0.38456177055E+03  0.30036941672E+03  0.67951723686E+03  0.00000000000E+00 0. -1.
        -11    1    3    3    0    0 -0.18700147191E+03 -0.22898362334E+03  0.17053506101E+03  0.34129936608E+03  0.00000000000E+00 0.  1.
         22    1    1    2    0    0  0.65990117938E+03  0.61354539389E+03  0.31636243412E+03  0.95498309232E+03  0.00000000000E+00 0. -1.
<mgrwt>
<rscale>  0 0.18121797E+04</rscale>
<asrwt>0</asrwt>
<pdfrwt beam="1">  1        2 0.91425599E-01 0.18121797E+04</pdfrwt>
<pdfrwt beam="2">  1       -2 0.21254358E+00 0.18121797E+04</pdfrwt>
<totfact> 0.52147360E+00</totfact>
</mgrwt>
</event>
<event>
 6    1  0.1001928E-005  0.3157647E+04  0.7818608E-02  0.8200093E-01
         -2   -1    0    0    0  501 -0.00000000000E+00  0.00000000000E+00  0.12973421864E+04  0.12973421864E+04  0.00000000000E+00 0.  1.
          2   -1    0    0  501    0  0.00000000000E+00 -0.00000000000E+00 -0.19213777113E+04  0.19213777113E+04  0.00000000000E+00 0. -1.
         23    2    1    2    0    0  0.11322743572E+04 -0.32499928693E+03 -0.13819559780E+04  0.18179653975E+04  0.86753125572E+02 0.  0.
         11    1    3    3    0    0  0.43223533310E+03 -0.16721308183E+03 -0.55555665542E+03  0.72348517282E+03  0.00000000000E+00 0. -1.
        -11    1    3    3    0    0  0.70003902413E+03 -0.15778620510E+03 -0.82639932259E+03  0.10944802247E+04  0.00000000000E+00 0.  1.
         22    1    1    2    0    0 -0.11322743572E+04  0.32499928693E+03  0.75792045309E+03  0.14007545002E+04  0.00000000000E+00 0.  1.
<mgrwt>
<rscale>  0 0.31576475E+04</rscale>
<asrwt>0</asrwt>
<pdfrwt beam="1">  1        2 0.29559657E+00 0.31576475E+04</pdfrwt>
<pdfrwt beam="2">  1       -2 0.19959111E+00 0.31576475E+04</pdfrwt>
<totfact> 0.83561224E-01</totfact>
</mgrwt>
</event>
<event>
 6    1  0.1001928E-005  0.2679862E+04  0.7818608E-02  0.8341569E-01
          2   -1    0    0  501    0  0.00000000000E+00  0.00000000000E+00  0.14221181698E+04  0.14221181698E+04  0.00000000000E+00 0. -1.
         -2   -1    0    0    0  501 -0.00000000000E+00 -0.00000000000E+00 -0.12624937755E+04  0.12624937755E+04  0.00000000000E+00 0.  1.
         23    2    1    2    0    0  0.83304833796E+02  0.43796139685E+03  0.13439414533E+04  0.14191646819E+04  0.95393312152E+02 0.  0.
         11    1    3    3    0    0  0.24080860253E+02  0.11046978247E+03  0.22547691504E+03  0.25223659506E+03  0.00000000000E+00 0. -1.
        -11    1    3    3    0    0  0.59223973542E+02  0.32749161438E+03  0.11184645382E+04  0.11669280868E+04  0.00000000000E+00 0.  1.
         22    1    1    2    0    0 -0.83304833796E+02 -0.43796139685E+03 -0.11843170589E+04  0.12654472635E+04  0.00000000000E+00 0.  1.
<mgrwt>
<rscale>  0 0.26798622E+04</rscale>
<asrwt>0</asrwt>
<pdfrwt beam="1">  1        2 0.21878741E+00 0.26798622E+04</pdfrwt>
<pdfrwt beam="2">  1       -2 0.19422981E+00 0.26798622E+04</pdfrwt>
<totfact> 0.17938037E+00</totfact>
</mgrwt>
</event>
<event>
 6    1  0.1001928E-005  0.4659852E+04  0.7818608E-02  0.7883234E-01
         -2   -1    0    0    0  501 -0.00000000000E+00  0.00000000000E+00  0.22429112335E+04  0.22429112335E+04  0.00000000000E+00 0.  1.
          2   -1    0    0  501    0  0.00000000000E+00 -0.00000000000E+00 -0.24203167980E+04  0.24203167980E+04  0.00000000000E+00 0. -1.
         23    2    1    2    0    0 -0.77493153307E+02  0.11821522766E+04 -0.20955196803E+04  0.24087544888E+04  0.86059646283E+02 0.  0.
         13    1    3    3    0    0 -0.92608344635E+02  0.10350851056E+04 -0.18618186657E+04  0.21322162707E+04  0.00000000000E+00 0. -1.
        -13    1    3    3    0    0  0.15115191327E+02  0.14706717091E+03 -0.23370101467E+03  0.27653821802E+03  0.00000000000E+00 0.  1.
         22    1    1    2    0    0  0.77493153307E+02 -0.11821522766E+04  0.19181141158E+04  0.22544735427E+04  0.00000000000E+00 0.  1.
<mgrwt>
<rscale>  0 0.46598522E+04</rscale>
<asrwt>0</asrwt>
<pdfrwt beam="1">  1        2 0.37235643E+00 0.46598522E+04</pdfrwt>
<pdfrwt beam="2">  1       -2 0.34506327E+00 0.46598522E+04</pdfrwt>
<totfact> 0.48381728E-02</totfact>
</mgrwt>
</event>
<event>
 6    1  0.1001928E-005  0.1360478E+04  0.7818608E-02  0.8982934E-01
          1   -1    0    0  501    0  0.00000000000E+00  0.00000000000E+00  0.59389752455E+03  0.59389752455E+03  0.00000000000E+00 0. -1.
         -1   -1    0    0    0  501 -0.00000000000E+00 -0.00000000000E+00 -0.77913285908E+03  0.77913285908E+03  0.00000000000E+00 0.  1.
         23    2    1    2    0    0  0.97659267549E+02 -0.27141330834E+03 -0.71126883386E+03  0.77310225551E+03  0.92634912301E+02 0.  0.
         11    1    3    3    0    0  0.71608063506E+02 -0.22719399371E+03 -0.65485710879E+03  0.69683761270E+03  0.00000000000E+00 0.  1.
        -11    1    3    3    0    0  0.26051204043E+02 -0.44219314631E+02 -0.56411725070E+02  0.76264642816E+02  0.00000000000E+00 0. -1.
         22    1    1    2    0    0 -0.97659267549E+02  0.27141330834E+03  0.52603349933E+03  0.59992812811E+03  0.00000000000E+00 0. -1.
<mgrwt>
<rscale>  0 0.13604780E+04</rscale>
<asrwt>0</asrwt>
<pdfrwt beam="1">  1        1 0.91368851E-01 0.13604780E+04</pdfrwt>
<pdfrwt beam="2">  1       -1 0.11986659E+00 0.13604780E+04</pdfrwt>
<totfact> 0.21111289E+01</totfact>
</mgrwt>
</event>
<event>
 6    1  0.1001928E-005  0.1438900E+04  0.7818608E-02  0.8926132E-01
         -1   -1    0    0    0  501 -0.00000000000E+00  0.00000000000E+00  0.15013885537E+04  0.15013885537E+04  0.00000000000E+00 0. -1.
          1   -1    0    0  501    0  0.00000000000E+00 -0.00000000000E+00 -0.34475328182E+03  0.34475328182E+03  0.00000000000E+00 0.  1.
         23    2    1    2    0    0 -0.98438686537E+02 -0.72298522900E+02  0.14865362860E+04  0.14943579096E+04  0.91641590241E+02 0.  0.
         13    1    3    3    0    0 -0.59774276076E+02 -0.56031311588E+00  0.92613519471E+03  0.92806232382E+03  0.00000000000E+00 0.  1.
        -13    1    3    3    0    0 -0.38664410461E+02 -0.71738209784E+02  0.56040109126E+03  0.56629558577E+03  0.00000000000E+00 0. -1.
         22    1    1    2    0    0  0.98438686537E+02  0.72298522900E+02 -0.32990101410E+03  0.35178392590E+03  0.00000000000E+00 0.  1.
<mgrwt>
<rscale>  0 0.14389005E+04</rscale>
<asrwt>0</asrwt>
<pdfrwt beam="1">  1        1 0.53038967E-01 0.14389005E+04</pdfrwt>
<pdfrwt beam="2">  1       -1 0.23098285E+00 0.14389005E+04</pdfrwt>
<totfact> 0.66059600E+00</totfact>
</mgrwt>
</event>
<event>
 6    1  0.1001928E-005  0.3514352E+04  0.7818608E-02  0.8110397E-01
          2   -1    0    0  501    0  0.00000000000E+00  0.00000000000E+00  0.21903579574E+04  0.21903579574E+04  0.00000000000E+00 0. -1.
         -2   -1    0    0    0  501 -0.00000000000E+00 -0.00000000000E+00 -0.14096633830E+04  0.14096633830E+04  0.00000000000E+00 0.  1.
         23    2    1    2    0    0 -0.23815853309E+03 -0.12590957671E+04  0.16203313463E+04  0.20680188775E+04  0.95847630489E+02 0.  0.
         13    1    3    3    0    0 -0.18828943324E+03 -0.10230704511E+04  0.13723851628E+04  0.17220821971E+04  0.00000000000E+00 0.  1.
        -13    1    3    3    0    0 -0.49869099854E+02 -0.23602531602E+03  0.24794618350E+03  0.34593668038E+03  0.00000000000E+00 0. -1.
         22    1    1    2    0    0  0.23815853309E+03  0.12590957671E+04 -0.83963677184E+03  0.15320024629E+04  0.00000000000E+00 0.  1.
<mgrwt>
<rscale>  0 0.35143520E+04</rscale>
<asrwt>0</asrwt>
<pdfrwt beam="1">  1        2 0.33697815E+00 0.35143520E+04</pdfrwt>
<pdfrwt beam="2">  1       -2 0.21687129E+00 0.35143520E+04</pdfrwt>
<totfact> 0.44403938E-01</totfact>
</mgrwt>
</event>
<event>
 6    1  0.1001928E-005  0.2023131E+04  0.7818608E-02  0.8595882E-01
          2   -1    0    0  501    0  0.00000000000E+00  0.00000000000E+00  0.24314289504E+04  0.24314289504E+04  0.00000000000E+00 0. -1.
         -2   -1    0    0    0  501 -0.00000000000E+00 -0.00000000000E+00 -0.42084928003E+03  0.42084928003E+03  0.00000000000E+00 0.  1.
         23    2    1    2    0    0  0.44748525960E+03 -0.59168421653E+03  0.41905887077E+02  0.74846984212E+03  0.90098454749E+02 0.  0.
         11    1    3    3    0    0  0.41077400578E+03 -0.51337752046E+03  0.59629567059E+02  0.66018743369E+03  0.00000000000E+00 0. -1.
        -11    1    3    3    0    0  0.36711253821E+02 -0.78306696068E+02 -0.17723679983E+02  0.88282408430E+02  0.00000000000E+00 0.  1.
         22    1    1    2    0    0 -0.44748525960E+03  0.59168421653E+03  0.19686737833E+04  0.21038083883E+04  0.00000000000E+00 0. -1.
<mgrwt>
<rscale>  0 0.20231314E+04</rscale>
<asrwt>0</asrwt>
<pdfrwt beam="1">  1        2 0.37406598E+00 0.20231314E+04</pdfrwt>
<pdfrwt beam="2">  1       -2 0.64746044E-01 0.20231314E+04</pdfrwt>
<totfact> 0.77885691E+00</totfact>
</mgrwt>
</event>
<event>
 6    1  0.1001928E-005  0.1883590E+04  0.7818608E-02  0.8663068E-01
          2   -1    0    0  501    0  0.00000000000E+00  0.00000000000E+00  0.13811669976E+04  0.13811669976E+04  0.00000000000E+00 0. -1.
         -2   -1    0    0    0  501 -0.00000000000E+00 -0.00000000000E+00 -0.64219416910E+03  0.64219416910E+03  0.00000000000E+00 0.  1.
         23    2    1    2    0    0  0.48269992095E+03 -0.77157491469E+03  0.11983217038E+03  0.92260587272E+03  0.92275590726E+02 0.  0.
         11    1    3    3    0    0  0.29348458369E+03 -0.42469736754E+03  0.10734709923E+03  0.52728024291E+03  0.00000000000E+00 0.  1.
        -11    1    3    3    0    0  0.18921533726E+03 -0.34687754716E+03  0.12485071148E+02  0.39532562980E+03  0.00000000000E+00 0. -1.
         22    1    1    2    0    0 -0.48269992095E+03  0.77157491469E+03  0.61914065810E+03  0.11007552940E+04  0.00000000000E+00 0. -1.
<mgrwt>
<rscale>  0 0.18835895E+04</rscale>
<asrwt>0</asrwt>
<pdfrwt beam="1">  1        2 0.21248723E+00 0.18835895E+04</pdfrwt>
<pdfrwt beam="2">  1       -2 0.98799103E-01 0.18835895E+04</pdfrwt>
<totfact> 0.11826603E+01</totfact>
</mgrwt>
</event>
<event>
 6    1  0.1001928E-005  0.1134684E+04  0.7818608E-02  0.9172031E-01
          2   -1    0    0  501    0  0.00000000000E+00  0.00000000000E+00  0.11522953820E+04  0.11522953820E+04  0.00000000000E+00 0. -1.
         -2   -1    0    0    0  501 -0.00000000000E+00 -0.00000000000E+00 -0.27933523069E+03  0.27933523069E+03  0.00000000000E+00 0.  1.
         23    2    1    2    0    0  0.30203840213E+03 -0.25587763846E+03  0.94544891312E+03  0.10291940552E+04  0.93092393808E+02 0.  0.
         11    1    3    3    0    0  0.79875269476E+02 -0.11893269924E+03  0.28317259705E+03  0.31735117038E+03  0.00000000000E+00 0. -1.
        -11    1    3    3    0    0  0.22216313265E+03 -0.13694493922E+03  0.66227631607E+03  0.71184288485E+03  0.00000000000E+00 0.  1.
         22    1    1    2    0    0 -0.30203840213E+03  0.25587763846E+03 -0.72488761775E+02  0.40243655750E+03  0.00000000000E+00 0.  1.
<mgrwt>
<rscale>  0 0.11346836E+04</rscale>
<asrwt>0</asrwt>
<pdfrwt beam="1">  1        2 0.17727621E+00 0.11346836E+04</pdfrwt>
<pdfrwt beam="2">  1       -2 0.42974652E-01 0.11346836E+04</pdfrwt>
<totfact> 0.10287510E+02</totfact>
</mgrwt>
</event>
<event>
 6    1  0.1001928E-005  0.2727867E+04  0.7818608E-02  0.8326019E-01
          1   -1    0    0  501    0  0.00000000000E+00  0.00000000000E+00  0.16793121366E+04  0.16793121366E+04  0.00000000000E+00 0. -1.
         -1   -1    0    0    0  501 -0.00000000000E+00 -0.00000000000E+00 -0.11077835045E+04  0.11077835045E+04  0.00000000000E+00 0.  1.
         23    2    1    2    0    0  0.35272972010E+03 -0.13144098379E+04  0.22155571238E+03  0.13819008069E+04  0.92040367027E+02 0.  0.
         11    1    3    3    0    0  0.18384618378E+03 -0.85399305191E+03  0.14774893580E+03  0.88596461556E+03  0.00000000000E+00 0. -1.
        -11    1    3    3    0    0  0.16888353632E+03 -0.46041678596E+03  0.73806776579E+02  0.49593619136E+03  0.00000000000E+00 0.  1.
         22    1    1    2    0    0 -0.35272972010E+03  0.13144098379E+04  0.34997291971E+03  0.14051948341E+04  0.00000000000E+00 0. -1.
<mgrwt>
<rscale>  0 0.27278668E+04</rscale>
<asrwt>0</asrwt>
<pdfrwt beam="1">  1        1 0.25835571E+00 0.27278668E+04</pdfrwt>
<pdfrwt beam="2">  1       -1 0.17042823E+00 0.27278668E+04</pdfrwt>
<totfact> 0.10477446E+00</totfact>
</mgrwt>
</event>
<event>
 6    1  0.1001928E-005  0.3068261E+04  0.7818608E-02  0.8224503E-01
         -1   -1    0    0    0  501 -0.00000000000E+00  0.00000000000E+00  0.11747494187E+04  0.11747494187E+04  0.00000000000E+00 0.  1.
          1   -1    0    0  501    0  0.00000000000E+00 -0.00000000000E+00 -0.20034536473E+04  0.20034536473E+04  0.00000000000E+00 0. -1.
         23    2    1    2    0    0 -0.92479454540E+03 -0.93200675684E+03  0.40445393707E+03  0.13769366761E+04  0.92141612938E+02 0.  0.
         13    1    3    3    0    0 -0.51611032699E+03 -0.57432673815E+03  0.21174663084E+03  0.80066079425E+03  0.00000000000E+00 0. -1.
        -13    1    3    3    0    0 -0.40868421841E+03 -0.35768001868E+03  0.19270730623E+03  0.57627588186E+03  0.00000000000E+00 0.  1.
         22    1    1    2    0    0  0.92479454540E+03  0.93200675684E+03 -0.12331581656E+04  0.18012663899E+04  0.00000000000E+00 0. -1.
<mgrwt>
<rscale>  0 0.30682608E+04</rscale>
<asrwt>0</asrwt>
<pdfrwt beam="1">  1        1 0.30822364E+00 0.30682608E+04</pdfrwt>
<pdfrwt beam="2">  1       -1 0.18073068E+00 0.30682608E+04</pdfrwt>
<totfact> 0.51563644E-01</totfact>
</mgrwt>
</event>
<event>
 6    1  0.1001928E-005  0.3267225E+04  0.7818608E-02  0.8171286E-01
          2   -1    0    0  501    0  0.00000000000E+00  0.00000000000E+00  0.31307662459E+04  0.31307662459E+04  0.00000000000E+00 0.  1.
         -2   -1    0    0    0  501 -0.00000000000E+00 -0.00000000000E+00 -0.85240761340E+03  0.85240761340E+03  0.00000000000E+00 0. -1.
         23    2    1    2    0    0 -0.14286714310E+04 -0.26425427239E+03  0.20471539898E+04  0.25119879550E+04  0.91168249977E+02 0.  0.
         13    1    3    3    0    0 -0.23235804891E+03 -0.77469725831E+02  0.33919756757E+03  0.41838595957E+03  0.00000000000E+00 0.  1.
        -13    1    3    3    0    0 -0.11963133821E+04 -0.18678454656E+03  0.17079564223E+04  0.20936019954E+04  0.00000000000E+00 0. -1.
         22    1    1    2    0    0  0.14286714310E+04  0.26425427239E+03  0.23120464270E+03  0.14711859043E+04  0.00000000000E+00 0. -1.
<mgrwt>
<rscale>  0 0.32672245E+04</rscale>
<asrwt>0</asrwt>
<pdfrwt beam="1">  1        2 0.48165634E+00 0.32672245E+04</pdfrwt>
<pdfrwt beam="2">  1       -2 0.13113963E+00 0.32672245E+04</pdfrwt>
<totfact> 0.51107735E-01</totfact>
</mgrwt>
</event>
<event>
 6    1  0.1001928E-005  0.1034524E+04  0.7818608E-02  0.9271469E-01
         -2   -1    0    0    0  501 -0.00000000000E+00  0.00000000000E+00  0.27093624693E+03  0.27093624693E+03  0.00000000000E+00 0.  1.
          2   -1    0    0  501    0  0.00000000000E+00 -0.00000000000E+00 -0.98753913718E+03  0.98753913718E+03  0.00000000000E+00 0. -1.
         23    2    1    2    0    0  0.48835912726E+03 -0.82782322141E+02 -0.20088309717E+03  0.54341283089E+03  0.97958848560E+02 0.  0.
         11    1    3    3    0    0  0.26977720848E+03 -0.56651160282E+02 -0.60191402516E+02  0.28215616441E+03  0.00000000000E+00 0.  1.
        -11    1    3    3    0    0  0.21858191878E+03 -0.26131161859E+02 -0.14069169465E+03  0.26125666648E+03  0.00000000000E+00 0. -1.
         22    1    1    2    0    0 -0.48835912726E+03  0.82782322141E+02 -0.51571979308E+03  0.71506255322E+03  0.00000000000E+00 0.  1.
<mgrwt>
<rscale>  0 0.10345243E+04</rscale>
<asrwt>0</asrwt>
<pdfrwt beam="1">  1        2 0.15192910E+00 0.10345243E+04</pdfrwt>
<pdfrwt beam="2">  1       -2 0.41682500E-01 0.10345243E+04</pdfrwt>
<totfact> 0.13935675E+02</totfact>
</mgrwt>
</event>
<event>
 6    1  0.1001928E-005  0.3978125E+04  0.7818608E-02  0.8008974E-01
          2   -1    0    0  501    0  0.00000000000E+00  0.00000000000E+00  0.20406331945E+04  0.20406331945E+04  0.00000000000E+00 0. -1.
         -2   -1    0    0    0  501 -0.00000000000E+00 -0.00000000000E+00 -0.19387949498E+04  0.19387949498E+04  0.00000000000E+00 0.  1.
         23    2    1    2    0    0 -0.69708271123E+03 -0.11450500625E+04 -0.14176118222E+04  0.19531526305E+04  0.90099763242E+02 0.  0.
         13    1    3    3    0    0 -0.20684235696E+03 -0.28087003876E+03 -0.33269520309E+03  0.48203509983E+03  0.00000000000E+00 0. -1.
        -13    1    3    3    0    0 -0.49024035427E+03 -0.86418002376E+03 -0.10849166192E+04  0.14711175306E+04  0.00000000000E+00 0.  1.
         22    1    1    2    0    0  0.69708271123E+03  0.11450500625E+04  0.15194500670E+04  0.20262755139E+04  0.00000000000E+00 0. -1.
<mgrwt>
<rscale>  0 0.39781249E+04</rscale>
<asrwt>0</asrwt>
<pdfrwt beam="1">  1        2 0.31394357E+00 0.39781249E+04</pdfrwt>
<pdfrwt beam="2">  1       -2 0.29827615E+00 0.39781249E+04</pdfrwt>
<totfact> 0.16321730E-01</totfact>
</mgrwt>
</event>
<event>
 6    1  0.1022604E-005  0.4178514E+04  0.7818608E-02  0.7969472E-01
         -1   -1    0    0    0  501 -0.00000000000E+00  0.00000000000E+00  0.13686111750E+04  0.13686111750E+04  0.00000000000E+00 0.  1.
          1   -1    0    0  501    0  0.00000000000E+00 -0.00000000000E+00 -0.31893602235E+04  0.31893602235E+04  0.00000000000E+00 0. -1.
         23    2    1    2    0    0 -0.12066875981E+04 -0.13187746036E+04  0.26697888449E+03  0.18095410579E+04  0.88880260289E+02 0.  0.
         13    1    3    3    0    0 -0.65102345845E+03 -0.71573436006E+03  0.18916384131E+03  0.98584490489E+03  0.00000000000E+00 0. -1.
        -13    1    3    3    0    0 -0.55566413969E+03 -0.60304024357E+03  0.77815043184E+02  0.82369615299E+03  0.00000000000E+00 0.  1.
         22    1    1    2    0    0  0.12066875981E+04  0.13187746036E+04 -0.20877279331E+04  0.27484303406E+04  0.00000000000E+00 0. -1.
<mgrwt>
<rscale>  0 0.41785136E+04</rscale>
<asrwt>0</asrwt>
<pdfrwt beam="1">  1        1 0.49067079E+00 0.41785136E+04</pdfrwt>
<pdfrwt beam="2">  1       -1 0.21055557E+00 0.41785136E+04</pdfrwt>
<totfact> 0.42530188E-02</totfact>
</mgrwt>
</event>
<event>
 6    1  0.1001928E-005  0.2673465E+04  0.7818608E-02  0.8343666E-01
          1   -1    0    0  501    0  0.00000000000E+00  0.00000000000E+00  0.21614425108E+04  0.21614425108E+04  0.00000000000E+00 0. -1.
         -1   -1    0    0    0  501 -0.00000000000E+00 -0.00000000000E+00 -0.82669518009E+03  0.82669518009E+03  0.00000000000E+00 0.  1.
         23    2    1    2    0    0 -0.62274275390E+03 -0.89343783245E+03 -0.19523098467E+03  0.11101405281E+04  0.90868898592E+02 0.  0.
         13    1    3    3    0    0 -0.26318783733E+03 -0.34843514343E+03 -0.12030670902E+03  0.45293331863E+03  0.00000000000E+00 0.  1.
        -13    1    3    3    0    0 -0.35955491657E+03 -0.54500268902E+03 -0.74924275652E+02  0.65720720945E+03  0.00000000000E+00 0. -1.
         22    1    1    2    0    0  0.62274275390E+03  0.89343783245E+03  0.15299783154E+04  0.18779971628E+04  0.00000000000E+00 0. -1.
<mgrwt>
<rscale>  0 0.26734652E+04</rscale>
<asrwt>0</asrwt>
<pdfrwt beam="1">  1        1 0.33252962E+00 0.26734652E+04</pdfrwt>
<pdfrwt beam="2">  1       -1 0.12718387E+00 0.26734652E+04</pdfrwt>
<totfact> 0.10852255E+00</totfact>
</mgrwt>
</event>
<event>
 6    1  0.1001928E-005  0.1842342E+04  0.7818608E-02  0.8684101E-01
          2   -1    0    0  501    0  0.00000000000E+00  0.00000000000E+00  0.85933992625E+03  0.85933992625E+03  0.00000000000E+00 0. -1.
         -2   -1    0    0    0  501 -0.00000000000E+00 -0.00000000000E+00 -0.98745108348E+03  0.98745108348E+03  0.00000000000E+00 0.  1.
         23    2    1    2    0    0 -0.88226449198E+03  0.14366956268E+02 -0.32144372895E+03  0.94347792639E+03  0.90705476542E+02 0.  0.
         11    1    3    3    0    0 -0.49459804747E+03 -0.19366851629E+02 -0.21782760501E+03  0.54078754517E+03  0.00000000000E+00 0. -1.
        -11    1    3    3    0    0 -0.38766644451E+03  0.33733807897E+02 -0.10361612394E+03  0.40269038123E+03  0.00000000000E+00 0.  1.
         22    1    1    2    0    0  0.88226449198E+03 -0.14366956268E+02  0.19333257171E+03  0.90331308333E+03  0.00000000000E+00 0.  1.
<mgrwt>
<rscale>  0 0.18423421E+04</rscale>
<asrwt>0</asrwt>
<pdfrwt beam="1">  1        2 0.13220614E+00 0.18423421E+04</pdfrwt>
<pdfrwt beam="2">  1       -2 0.15191555E+00 0.18423421E+04</pdfrwt>
<totfact> 0.85191519E+00</totfact>
</mgrwt>
</event>
<event>
 6    1  0.1001928E-005  0.1251883E+04  0.7818608E-02  0.9068617E-01
         -2   -1    0    0    0  501 -0.00000000000E+00  0.00000000000E+00  0.28879021804E+03  0.28879021804E+03  0.00000000000E+00 0.  1.
          2   -1    0    0  501    0  0.00000000000E+00 -0.00000000000E+00 -0.13567042957E+04  0.13567042957E+04  0.00000000000E+00 0. -1.
         23    2    1    2    0    0  0.42674467163E+03 -0.98640607376E+02 -0.11184478332E+04  0.12045924332E+04  0.90974667880E+02 0.  0.
         13    1    3    3    0    0  0.68626397681E+02 -0.21967285877E+02 -0.28974465776E+03  0.29857011037E+03  0.00000000000E+00 0.  1.
        -13    1    3    3    0    0  0.35811827395E+03 -0.76673321498E+02 -0.82870317546E+03  0.90602232278E+03  0.00000000000E+00 0. -1.
         22    1    1    2    0    0 -0.42674467163E+03  0.98640607376E+02  0.50533755595E+02  0.44090208056E+03  0.00000000000E+00 0.  1.
<mgrwt>
<rscale>  0 0.12518833E+04</rscale>
<asrwt>0</asrwt>
<pdfrwt beam="1">  1        2 0.20872374E+00 0.12518833E+04</pdfrwt>
<pdfrwt beam="2">  1       -2 0.44429265E-01 0.12518833E+04</pdfrwt>
<totfact> 0.72367843E+01</totfact>
</mgrwt>
</event>
<event>
 6    1  0.1001928E-005  0.2234398E+04  0.7818608E-02  0.8504246E-01
         -2   -1    0    0    0  501 -0.00000000000E+00  0.00000000000E+00  0.54327178667E+03  0.54327178667E+03  0.00000000000E+00 0.  1.
          2   -1    0    0  501    0  0.00000000000E+00 -0.00000000000E+00 -0.22974389812E+04  0.22974389812E+04  0.00000000000E+00 0. -1.
         23    2    1    2    0    0 -0.95592439435E+03 -0.28307780377E+03 -0.24211015932E+03  0.10295672152E+04  0.86410824671E+02 0.  0.
         13    1    3    3    0    0 -0.50203924439E+03 -0.17228676382E+03 -0.90973176442E+02  0.53851857046E+03  0.00000000000E+00 0.  1.
        -13    1    3    3    0    0 -0.45388514996E+03 -0.11079103995E+03 -0.15113698288E+03  0.49104864472E+03  0.00000000000E+00 0. -1.
         22    1    1    2    0    0  0.95592439435E+03  0.28307780377E+03 -0.15120570352E+04  0.18111435527E+04  0.00000000000E+00 0.  1.
<mgrwt>
<rscale>  0 0.22343982E+04</rscale>
<asrwt>0</asrwt>
<pdfrwt beam="1">  1        2 0.35345216E+00 0.22343982E+04</pdfrwt>
<pdfrwt beam="2">  1       -2 0.83580273E-01 0.22343982E+04</pdfrwt>
<totfact> 0.51902983E+00</totfact>
</mgrwt>
</event>
<event>
 6    1  0.1001928E-005  0.8965283E+03  0.7818608E-02  0.9429932E-01
          1   -1    0    0  501    0  0.00000000000E+00  0.00000000000E+00  0.46095613620E+03  0.46095613620E+03  0.00000000000E+00 0. -1.
         -1   -1    0    0    0  501 -0.00000000000E+00 -0.00000000000E+00 -0.43592165873E+03  0.43592165873E+03  0.00000000000E+00 0.  1.
         23    2    1    2    0    0 -0.20240770357E+03  0.37219117120E+03 -0.11847715579E+03  0.44956276582E+03  0.92599663011E+02 0.  0.
         13    1    3    3    0    0 -0.60132480121E+02  0.15748243234E+03 -0.64788806754E+01  0.16869679177E+03  0.00000000000E+00 0. -1.
        -13    1    3    3    0    0 -0.14227522345E+03  0.21470873886E+03 -0.11199827511E+03  0.28086597405E+03  0.00000000000E+00 0.  1.
         22    1    1    2    0    0  0.20240770357E+03 -0.37219117120E+03  0.14351163325E+03  0.44731502910E+03  0.00000000000E+00 0. -1.
<mgrwt>
<rscale>  0 0.89652833E+03</rscale>
<asrwt>0</asrwt>
<pdfrwt beam="1">  1        1 0.70916329E-01 0.89652833E+03</pdfrwt>
<pdfrwt beam="2">  1       -1 0.67064871E-01 0.89652833E+03</pdfrwt>
<totfact> 0.11255903E+02</totfact>
</mgrwt>
</event>
<event>
 6    1  0.1001928E-005  0.2669712E+04  0.7818608E-02  0.8344900E-01
         -1   -1    0    0    0  501 -0.00000000000E+00  0.00000000000E+00  0.10154168620E+04  0.10154168620E+04  0.00000000000E+00 0.  1.
          1   -1    0    0  501    0  0.00000000000E+00 -0.00000000000E+00 -0.17547871300E+04  0.17547871300E+04  0.00000000000E+00 0. -1.
         23    2    1    2    0    0 -0.21379602540E+02  0.43043720095E+03  0.93906234843E+03  0.10373250812E+04  0.92043242091E+02 0.  0.
         11    1    3    3    0    0  0.35443852320E+02  0.20563508678E+03  0.43142451689E+03  0.47923811342E+03  0.00000000000E+00 0.  1.
        -11    1    3    3    0    0 -0.56823454860E+02  0.22480211417E+03  0.50763783155E+03  0.55808696776E+03  0.00000000000E+00 0. -1.
         22    1    1    2    0    0  0.21379602540E+02 -0.43043720095E+03 -0.16784326164E+04  0.17328789107E+04  0.00000000000E+00 0. -1.
<mgrwt>
<rscale>  0 0.26697119E+04</rscale>
<asrwt>0</asrwt>
<pdfrwt beam="1">  1        1 0.26996725E+00 0.26697119E+04</pdfrwt>
<pdfrwt beam="2">  1       -1 0.15621798E+00 0.26697119E+04</pdfrwt>
<totfact> 0.11956662E+00</totfact>
</mgrwt>
</event>
<event>
 6    1  0.1001928E-005  0.2688070E+04  0.7818608E-02  0.8338886E-01
          1   -1    0    0  501    0  0.00000000000E+00  0.00000000000E+00  0.13885678370E+04  0.13885678370E+04  0.00000000000E+00 0. -1.
         -1   -1    0    0    0  501 -0.00000000000E+00 -0.00000000000E+00 -0.13009303725E+04  0.13009303725E+04  0.00000000000E+00 0.  1.
         23    2    1    2    0    0 -0.20978457025E+03 -0.12849893931E+04 -0.28351757278E+03  0.13356284344E+04  0.91180010318E+02 0.  0.
         13    1    3    3    0    0 -0.15423123213E+03 -0.74319561532E+03 -0.13317925881E+03  0.77062553200E+03  0.00000000000E+00 0. -1.
        -13    1    3    3    0    0 -0.55553338116E+02 -0.54179377779E+03 -0.15033831397E+03  0.56500290236E+03  0.00000000000E+00 0.  1.
         22    1    1    2    0    0  0.20978457025E+03  0.12849893931E+04  0.37115503732E+03  0.13538697751E+04  0.00000000000E+00 0. -1.
<mgrwt>
<rscale>  0 0.26880700E+04</rscale>
<asrwt>0</asrwt>
<pdfrwt beam="1">  1        1 0.21362582E+00 0.26880700E+04</pdfrwt>
<pdfrwt beam="2">  1       -1 0.20014313E+00 0.26880700E+04</pdfrwt>
<totfact> 0.10272660E+00</totfact>
</mgrwt>
</event>
<event>
 6    1  0.1001928E-005  0.1159638E+04  0.7818608E-02  0.9148938E-01
          2   -1    0    0  501    0  0.00000000000E+00  0.00000000000E+00  0.87665798049E+03  0.87665798049E+03  0.00000000000E+00 0. -1.
         -2   -1    0    0    0  501 -0.00000000000E+00 -0.00000000000E+00 -0.38349031532E+03  0.38349031532E+03  0.00000000000E+00 0.  1.
         23    2    1    2    0    0  0.16682296520E+03 -0.15109512309E+03  0.82469998669E+03  0.85943228895E+03  0.88510752431E+02 0.  0.
         13    1    3    3    0    0  0.54834518545E+02 -0.58970143600E+02  0.45937150130E+03  0.46637589825E+03  0.00000000000E+00 0. -1.
        -13    1    3    3    0    0  0.11198844666E+03 -0.92124979488E+02  0.36532848539E+03  0.39305639070E+03  0.00000000000E+00 0.  1.
         22    1    1    2    0    0 -0.16682296520E+03  0.15109512309E+03 -0.33153232153E+03  0.40071600686E+03  0.00000000000E+00 0.  1.
<mgrwt>
<rscale>  0 0.11596376E+04</rscale>
<asrwt>0</asrwt>
<pdfrwt beam="1">  1        2 0.13487046E+00 0.11596376E+04</pdfrwt>
<pdfrwt beam="2">  1       -2 0.58998510E-01 0.11596376E+04</pdfrwt>
<totfact> 0.80773739E+01</totfact>
</mgrwt>
</event>
<event>
 6    1  0.1001928E-005  0.3182307E+04  0.7818608E-02  0.8193506E-01
         -1   -1    0    0    0  501 -0.00000000000E+00  0.00000000000E+00  0.87064453661E+03  0.87064453661E+03  0.00000000000E+00 0.  1.
          1   -1    0    0  501    0  0.00000000000E+00 -0.00000000000E+00 -0.29079247221E+04  0.29079247221E+04  0.00000000000E+00 0. -1.
         23    2    1    2    0    0  0.10879382908E+04 -0.84508967295E+03 -0.19619213624E+04  0.23989079843E+04  0.88531377418E+02 0.  0.
         13    1    3    3    0    0  0.94049870471E+03 -0.69234708569E+03 -0.16777658750E+04  0.20442066020E+04  0.00000000000E+00 0. -1.
        -13    1    3    3    0    0  0.14743958605E+03 -0.15274258726E+03 -0.28415548749E+03  0.35470138224E+03  0.00000000000E+00 0.  1.
         22    1    1    2    0    0 -0.10879382908E+04  0.84508967295E+03 -0.75358822996E+02  0.13796612744E+04  0.00000000000E+00 0.  1.
<mgrwt>
<rscale>  0 0.31823066E+04</rscale>
<asrwt>0</asrwt>
<pdfrwt beam="1">  1        1 0.44737304E+00 0.31823066E+04</pdfrwt>
<pdfrwt beam="2">  1       -1 0.13394531E+00 0.31823066E+04</pdfrwt>
<totfact> 0.27438294E-01</totfact>
</mgrwt>
</event>
<event>
 6    1  0.1001928E-005  0.2633514E+04  0.7818608E-02  0.8356906E-01
          2   -1    0    0  501    0  0.00000000000E+00  0.00000000000E+00  0.90615252993E+03  0.90615252993E+03  0.00000000000E+00 0. -1.
         -2   -1    0    0    0  501 -0.00000000000E+00 -0.00000000000E+00 -0.19134186210E+04  0.19134186210E+04  0.00000000000E+00 0.  1.
         23    2    1    2    0    0 -0.16343379995E+01 -0.80360937595E+03 -0.16187606973E+04  0.18097610927E+04  0.95175193886E+02 0.  0.
         13    1    3    3    0    0  0.16115954705E+02 -0.17083649429E+03 -0.27125641619E+03  0.32097488235E+03  0.00000000000E+00 0.  1.
        -13    1    3    3    0    0 -0.17750292705E+02 -0.63277288165E+03 -0.13475042811E+04  0.14887862104E+04  0.00000000000E+00 0. -1.
         22    1    1    2    0    0  0.16343379995E+01  0.80360937595E+03  0.61149460622E+03  0.10098100582E+04  0.00000000000E+00 0. -1.
<mgrwt>
<rscale>  0 0.26335141E+04</rscale>
<asrwt>0</asrwt>
<pdfrwt beam="1">  1        2 0.13940808E+00 0.26335141E+04</pdfrwt>
<pdfrwt beam="2">  1       -2 0.29437209E+00 0.26335141E+04</pdfrwt>
<totfact> 0.88146914E-01</totfact>
</mgrwt>
</event>
<event>
 6    1  0.1001928E-005  0.4606649E+04  0.7818608E-02  0.7892227E-01
         -2   -1    0    0    0  501 -0.00000000000E+00  0.00000000000E+00  0.13432843276E+04  0.13432843276E+04  0.00000000000E+00 0.  1.
          2   -1    0    0  501    0  0.00000000000E+00 -0.00000000000E+00 -0.39495025298E+04  0.39495025298E+04  0.00000000000E+00 0. -1.
         23    2    1    2    0    0 -0.21025109125E+04  0.78767953904E+03 -0.18887385105E+04  0.29357191236E+04  0.10061023033E+03 0.  0.
         13    1    3    3    0    0 -0.18638760885E+04  0.67174281732E+03 -0.16923720304E+04  0.26056468631E+04  0.00000000000E+00 0.  1.
        -13    1    3    3    0    0 -0.23863482405E+03  0.11593672172E+03 -0.19636648006E+03  0.33007226055E+03  0.00000000000E+00 0. -1.
         22    1    1    2    0    0  0.21025109125E+04 -0.78767953904E+03 -0.71747969175E+03  0.23570677338E+04  0.00000000000E+00 0. -1.
<mgrwt>
<rscale>  0 0.46066495E+04</rscale>
<asrwt>0</asrwt>
<pdfrwt beam="1">  1        2 0.60761578E+00 0.46066495E+04</pdfrwt>
<pdfrwt beam="2">  1       -2 0.20665913E+00 0.46066495E+04</pdfrwt>
<totfact> 0.33821309E-02</totfact>
</mgrwt>
</event>
<event>
 6    1  0.1001928E-005  0.2932644E+04  0.7818608E-02  0.8263231E-01
         -2   -1    0    0    0  501 -0.00000000000E+00  0.00000000000E+00  0.88863471104E+03  0.88863471104E+03  0.00000000000E+00 0.  1.
          2   -1    0    0  501    0  0.00000000000E+00 -0.00000000000E+00 -0.24195542971E+04  0.24195542971E+04  0.00000000000E+00 0. -1.
         23    2    1    2    0    0  0.14276099194E+03 -0.13402193324E+04 -0.11896976225E+03  0.13562231107E+04  0.92837287114E+02 0.  0.
         13    1    3    3    0    0  0.43600231724E+02 -0.33991578328E+03 -0.70314801631E+02  0.34983980799E+03  0.00000000000E+00 0.  1.
        -13    1    3    3    0    0  0.99160760213E+02 -0.10003035491E+04 -0.48654960614E+02  0.10063833027E+04  0.00000000000E+00 0. -1.
         22    1    1    2    0    0 -0.14276099194E+03  0.13402193324E+04 -0.14119498238E+04  0.19519658974E+04  0.00000000000E+00 0.  1.
<mgrwt>
<rscale>  0 0.29326438E+04</rscale>
<asrwt>0</asrwt>
<pdfrwt beam="1">  1        2 0.37223912E+00 0.29326438E+04</pdfrwt>
<pdfrwt beam="2">  1       -2 0.13671303E+00 0.29326438E+04</pdfrwt>
<totfact> 0.12735288E+00</totfact>
</mgrwt>
</event>
<event>
 6    1  0.1001928E-005  0.2046259E+04  0.7818608E-02  0.8585293E-01
         -1   -1    0    0    0  501 -0.00000000000E+00  0.00000000000E+00  0.14110497050E+04  0.14110497050E+04  0.00000000000E+00 0.  1.
          1   -1    0    0  501    0  0.00000000000E+00 -0.00000000000E+00 -0.74185458461E+03  0.74185458461E+03  0.00000000000E+00 0. -1.
         23    2    1    2    0    0 -0.46735433504E+03 -0.64561410760E+03 -0.33637990842E+03  0.86977577345E+03  0.90115497423E+02 0.  0.
         13    1    3    3    0    0 -0.15080748206E+03 -0.26738160552E+03 -0.15834458348E+03  0.34541109816E+03  0.00000000000E+00 0.  1.
        -13    1    3    3    0    0 -0.31654685299E+03 -0.37823250208E+03 -0.17803532494E+03  0.52436467529E+03  0.00000000000E+00 0. -1.
         22    1    1    2    0    0  0.46735433504E+03  0.64561410760E+03  0.10055750288E+04  0.12831285161E+04  0.00000000000E+00 0.  1.
<mgrwt>
<rscale>  0 0.20462587E+04</rscale>
<asrwt>0</asrwt>
<pdfrwt beam="1">  1        1 0.11413147E+00 0.20462587E+04</pdfrwt>
<pdfrwt beam="2">  1       -1 0.21708457E+00 0.20462587E+04</pdfrwt>
<totfact> 0.26497796E+00</totfact>
</mgrwt>
</event>
<event>
 6    1  0.1001928E-005  0.1987509E+04  0.7818608E-02  0.8612483E-01
          1   -1    0    0  501    0  0.00000000000E+00  0.00000000000E+00  0.65862780756E+03  0.65862780756E+03  0.00000000000E+00 0. -1.
         -1   -1    0    0    0  501 -0.00000000000E+00 -0.00000000000E+00 -0.14994028883E+04  0.14994028883E+04  0.00000000000E+00 0.  1.
         23    2    1    2    0    0 -0.74972689426E+02 -0.82907528803E+02 -0.14912443336E+04  0.14980270509E+04  0.88208958149E+02 0.  0.
         13    1    3    3    0    0 -0.34349086505E+02 -0.77060561350E+02 -0.60754845222E+03  0.61337860384E+03  0.00000000000E+00 0. -1.
        -13    1    3    3    0    0 -0.40623602921E+02 -0.58469674531E+01 -0.88369588137E+03  0.88464844706E+03  0.00000000000E+00 0.  1.
         22    1    1    2    0    0  0.74972689426E+02  0.82907528803E+02  0.65046925283E+03  0.66000364497E+03  0.00000000000E+00 0. -1.
<mgrwt>
<rscale>  0 0.19875094E+04</rscale>
<asrwt>0</asrwt>
<pdfrwt beam="1">  1        1 0.10132735E+00 0.19875094E+04</pdfrwt>
<pdfrwt beam="2">  1       -1 0.23067737E+00 0.19875094E+04</pdfrwt>
<totfact> 0.25905799E+00</totfact>
</mgrwt>
</event>
<event>
 6    1  0.1001928E-005  0.1953377E+04  0.7818608E-02  0.8628734E-01
          2   -1    0    0  501    0  0.00000000000E+00  0.00000000000E+00  0.24736682640E+04  0.24736682640E+04  0.00000000000E+00 0. -1.
         -2   -1    0    0    0  501 -0.00000000000E+00 -0.00000000000E+00 -0.38563002206E+03  0.38563002206E+03  0.00000000000E+00 0.  1.
         23    2    1    2    0    0 -0.86843628393E+03 -0.21975918862E+03  0.48457469522E+03  0.10225699376E+04  0.91438295336E+02 0.  0.
         13    1    3    3    0    0 -0.50377686133E+03 -0.10899638531E+03  0.32540329539E+03  0.60955610297E+03  0.00000000000E+00 0.  1.
        -13    1    3    3    0    0 -0.36465942261E+03 -0.11076280331E+03  0.15917139983E+03  0.41301383465E+03  0.00000000000E+00 0. -1.
         22    1    1    2    0    0  0.86843628393E+03  0.21975918862E+03  0.16034635467E+04  0.18367283484E+04  0.00000000000E+00 0. -1.
<mgrwt>
<rscale>  0 0.19533773E+04</rscale>
<asrwt>0</asrwt>
<pdfrwt beam="1">  1        2 0.38056434E+00 0.19533773E+04</pdfrwt>
<pdfrwt beam="2">  1       -2 0.59327697E-01 0.19533773E+04</pdfrwt>
<totfact> 0.89238037E+00</totfact>
</mgrwt>
</event>
<event>
 6    1  0.1001928E-005  0.5934012E+04  0.7818608E-02  0.7698638E-01
          1   -1    0    0  501    0  0.00000000000E+00  0.00000000000E+00  0.53321561124E+04  0.53321561124E+04  0.00000000000E+00 0. -1.
         -1   -1    0    0    0  501 -0.00000000000E+00 -0.00000000000E+00 -0.16509500606E+04  0.16509500606E+04  0.00000000000E+00 0.  1.
         23    2    1    2    0    0 -0.10354856182E+04 -0.26913583222E+04  0.10218076120E+04  0.30603469215E+04  0.77410594851E+02 0.  0.
         11    1    3    3    0    0 -0.18151759216E+03 -0.53608813062E+03  0.17907541745E+03  0.59363888450E+03  0.00000000000E+00 0. -1.
        -11    1    3    3    0    0 -0.85396802603E+03 -0.21552701915E+04  0.84273219455E+03  0.24667080370E+04  0.00000000000E+00 0.  1.
         22    1    1    2    0    0  0.10354856182E+04  0.26913583222E+04  0.26593984398E+04  0.39227592515E+04  0.00000000000E+00 0.  1.
<mgrwt>
<rscale>  0 0.59340116E+04</rscale>
<asrwt>0</asrwt>
<pdfrwt beam="1">  1        1 0.82033171E+00 0.59340116E+04</pdfrwt>
<pdfrwt beam="2">  1       -1 0.25399232E+00 0.59340116E+04</pdfrwt>
<totfact> 0.12527636E-04</totfact>
</mgrwt>
</event>
<event>
 6    1  0.1001928E-005  0.3479555E+04  0.7818608E-02  0.8118652E-01
         -1   -1    0    0    0  501 -0.00000000000E+00  0.00000000000E+00  0.10953813497E+04  0.10953813497E+04  0.00000000000E+00 0.  1.
          1   -1    0    0  501    0  0.00000000000E+00 -0.00000000000E+00 -0.27632622511E+04  0.27632622511E+04  0.00000000000E+00 0. -1.
         23    2    1    2    0    0 -0.88065847841E+03 -0.10709206888E+04  0.32859086618E+03  0.14279379428E+04  0.92759549638E+02 0.  0.
         13    1    3    3    0    0 -0.38260798052E+03 -0.52762624121E+03  0.12959373986E+03  0.66450948419E+03  0.00000000000E+00 0. -1.
        -13    1    3    3    0    0 -0.49805049789E+03 -0.54329444757E+03  0.19899712632E+03  0.76342845866E+03  0.00000000000E+00 0.  1.
         22    1    1    2    0    0  0.88065847841E+03  0.10709206888E+04 -0.19964717675E+04  0.24307056580E+04  0.00000000000E+00 0.  1.
<mgrwt>
<rscale>  0 0.34795551E+04</rscale>
<asrwt>0</asrwt>
<pdfrwt beam="1">  1        1 0.42511726E+00 0.34795551E+04</pdfrwt>
<pdfrwt beam="2">  1       -1 0.16852021E+00 0.34795551E+04</pdfrwt>
<totfact> 0.18244110E-01</totfact>
</mgrwt>
</event>
<event>
 6    1  0.1001928E-005  0.2075854E+04  0.7818608E-02  0.8571955E-01
         -1   -1    0    0    0  501 -0.00000000000E+00  0.00000000000E+00  0.38644352485E+03  0.38644352485E+03  0.00000000000E+00 0.  1.
          1   -1    0    0  501    0  0.00000000000E+00 -0.00000000000E+00 -0.27877095844E+04  0.27877095844E+04  0.00000000000E+00 0. -1.
         23    2    1    2    0    0 -0.37101267873E+03  0.75120895168E+03 -0.26973852366E+03  0.88387475650E+03  0.80687156090E+02 0.  0.
         13    1    3    3    0    0 -0.21362502910E+03  0.51500093846E+03 -0.19024016722E+03  0.58911199351E+03  0.00000000000E+00 0. -1.
        -13    1    3    3    0    0 -0.15738764963E+03  0.23620801322E+03 -0.79498356437E+02  0.29476276298E+03  0.00000000000E+00 0.  1.
         22    1    1    2    0    0  0.37101267873E+03 -0.75120895168E+03 -0.21315275359E+04  0.22902783528E+04  0.00000000000E+00 0. -1.
<mgrwt>
<rscale>  0 0.20758539E+04</rscale>
<asrwt>0</asrwt>
<pdfrwt beam="1">  1        1 0.42887842E+00 0.20758539E+04</pdfrwt>
<pdfrwt beam="2">  1       -1 0.59452847E-01 0.20758539E+04</pdfrwt>
<totfact> 0.22497491E+00</totfact>
</mgrwt>
</event>
<event>
 6    1  0.1001928E-005  0.3162007E+04  0.7818608E-02  0.8198924E-01
         -2   -1    0    0    0  501 -0.00000000000E+00  0.00000000000E+00  0.86849248268E+03  0.86849248268E+03  0.00000000000E+00 0.  1.
          2   -1    0    0  501    0  0.00000000000E+00 -0.00000000000E+00 -0.28780591141E+04  0.28780591141E+04  0.00000000000E+00 0. -1.
         23    2    1    2    0    0 -0.15241064446E+04 -0.26565807201E+03 -0.62810364437E+03  0.16724458497E+04  0.95321909633E+02 0.  0.
         13    1    3    3    0    0 -0.40670083755E+03 -0.95929607546E+02 -0.20700530405E+03  0.46632526929E+03  0.00000000000E+00 0. -1.
        -13    1    3    3    0    0 -0.11174056070E+04 -0.16972846447E+03 -0.42109834032E+03  0.12061205804E+04  0.00000000000E+00 0.  1.
         22    1    1    2    0    0  0.15241064446E+04  0.26565807201E+03 -0.13814629870E+04  0.20741057471E+04  0.00000000000E+00 0. -1.
<mgrwt>
<rscale>  0 0.31620074E+04</rscale>
<asrwt>0</asrwt>
<pdfrwt beam="1">  1        2 0.44277832E+00 0.31620074E+04</pdfrwt>
<pdfrwt beam="2">  1       -2 0.13361423E+00 0.31620074E+04</pdfrwt>
<totfact> 0.70867879E-01</totfact>
</mgrwt>
</event>
<event>
 6    1  0.1001928E-005  0.3445532E+04  0.7818608E-02  0.8126821E-01
         -2   -1    0    0    0  501 -0.00000000000E+00  0.00000000000E+00  0.11155981772E+04  0.11155981772E+04  0.00000000000E+00 0.  1.
          2   -1    0    0  501    0  0.00000000000E+00 -0.00000000000E+00 -0.26603865822E+04  0.26603865822E+04  0.00000000000E+00 0. -1.
         23    2    1    2    0    0 -0.55192964321E+03 -0.11120539571E+04 -0.20799904318E+04  0.24240485390E+04  0.91437346892E+02 0.  0.
         11    1    3    3    0    0 -0.44710371907E+03 -0.81205907683E+03 -0.15594030905E+04  0.18141333133E+04  0.00000000000E+00 0. -1.
        -11    1    3    3    0    0 -0.10482592414E+03 -0.29999488030E+03 -0.52058734124E+03  0.60991522562E+03  0.00000000000E+00 0.  1.
         22    1    1    2    0    0  0.55192964321E+03  0.11120539571E+04  0.53520202677E+03  0.13519362204E+04  0.00000000000E+00 0.  1.
<mgrwt>
<rscale>  0 0.34455318E+04</rscale>
<asrwt>0</asrwt>
<pdfrwt beam="1">  1        2 0.40929024E+00 0.34455318E+04</pdfrwt>
<pdfrwt beam="2">  1       -2 0.17163049E+00 0.34455318E+04</pdfrwt>
<totfact> 0.48006316E-01</totfact>
</mgrwt>
</event>
<event>
 6    1  0.1226759E-005  0.4162511E+04  0.7818608E-02  0.7972542E-01
         -1   -1    0    0    0  501 -0.00000000000E+00  0.00000000000E+00  0.14766349006E+04  0.14766349006E+04  0.00000000000E+00 0.  1.
          1   -1    0    0  501    0  0.00000000000E+00 -0.00000000000E+00 -0.29334434543E+04  0.29334434543E+04  0.00000000000E+00 0. -1.
         23    2    1    2    0    0 -0.27953119446E+03 -0.42892078072E+03 -0.28649510941E+04  0.29117539112E+04  0.90858919376E+02 0.  0.
         13    1    3    3    0    0 -0.99469227641E+02 -0.16151187669E+03 -0.82799115989E+03  0.84944074215E+03  0.00000000000E+00 0.  1.
        -13    1    3    3    0    0 -0.18006196681E+03 -0.26740890403E+03 -0.20369599342E+04  0.20623131690E+04  0.00000000000E+00 0. -1.
         22    1    1    2    0    0  0.27953119446E+03  0.42892078072E+03  0.14081425403E+04  0.14983244437E+04  0.00000000000E+00 0.  1.
<mgrwt>
<rscale>  0 0.41625113E+04</rscale>
<asrwt>0</asrwt>
<pdfrwt beam="1">  1        1 0.45129899E+00 0.41625113E+04</pdfrwt>
<pdfrwt beam="2">  1       -1 0.22717460E+00 0.41625113E+04</pdfrwt>
<totfact> 0.50850359E-02</totfact>
</mgrwt>
</event>
<event>
 6    1  0.1001928E-005  0.1480711E+04  0.7818608E-02  0.8897382E-01
          2   -1    0    0  501    0  0.00000000000E+00  0.00000000000E+00  0.30481380034E+03  0.30481380034E+03  0.00000000000E+00 0.  1.
         -2   -1    0    0    0  501 -0.00000000000E+00 -0.00000000000E+00 -0.17982335317E+04  0.17982335317E+04  0.00000000000E+00 0. -1.
         23    2    1    2    0    0 -0.29206599992E+03 -0.50611311264E+03 -0.10990786294E+03  0.60119576775E+03  0.88902090690E+02 0.  0.
         11    1    3    3    0    0 -0.37826812217E+02 -0.51860556612E+02 -0.40822123262E+02  0.76071221906E+02  0.00000000000E+00 0. -1.
        -11    1    3    3    0    0 -0.25423918770E+03 -0.45425255603E+03 -0.69085739683E+02  0.52512454584E+03  0.00000000000E+00 0.  1.
         22    1    1    2    0    0  0.29206599992E+03  0.50611311264E+03 -0.13835118684E+04  0.15018515643E+04  0.00000000000E+00 0. -1.
<mgrwt>
<rscale>  0 0.14807112E+04</rscale>
<asrwt>0</asrwt>
<pdfrwt beam="1">  1        2 0.46894431E-01 0.14807112E+04</pdfrwt>
<pdfrwt beam="2">  1       -2 0.27665131E+00 0.14807112E+04</pdfrwt>
<totfact> 0.46171521E+00</totfact>
</mgrwt>
</event>
<event>
 6    1  0.1001928E-005  0.1707681E+04  0.7818608E-02  0.8756996E-01
          2   -1    0    0  501    0  0.00000000000E+00  0.00000000000E+00  0.57469854327E+03  0.57469854327E+03  0.00000000000E+00 0. -1.
         -2   -1    0    0    0  501 -0.00000000000E+00 -0.00000000000E+00 -0.12685663184E+04  0.12685663184E+04  0.00000000000E+00 0.  1.
         23    2    1    2    0    0 -0.36759701906E+03 -0.63550247869E+03  0.11736373608E+03  0.74914990716E+03  0.91980258825E+02 0.  0.
         13    1    3    3    0    0 -0.19037091440E+03 -0.36308143041E+03  0.22444168818E+02  0.41057636424E+03  0.00000000000E+00 0.  1.
        -13    1    3    3    0    0 -0.17722610466E+03 -0.27242104828E+03  0.94919567266E+02  0.33857354293E+03  0.00000000000E+00 0. -1.
         22    1    1    2    0    0  0.36759701906E+03  0.63550247869E+03 -0.81123151117E+03  0.10941149545E+04  0.00000000000E+00 0.  1.
<mgrwt>
<rscale>  0 0.17076805E+04</rscale>
<asrwt>0</asrwt>
<pdfrwt beam="1">  1        2 0.88415162E-01 0.17076805E+04</pdfrwt>
<pdfrwt beam="2">  1       -2 0.19516405E+00 0.17076805E+04</pdfrwt>
<totfact> 0.71054974E+00</totfact>
</mgrwt>
</event>
<event>
 6    1  0.1001928E-005  0.2258162E+04  0.7818608E-02  0.8494602E-01
         -2   -1    0    0    0  501 -0.00000000000E+00  0.00000000000E+00  0.65714423199E+03  0.65714423199E+03  0.00000000000E+00 0.  1.
          2   -1    0    0  501    0  0.00000000000E+00 -0.00000000000E+00 -0.19399457274E+04  0.19399457274E+04  0.00000000000E+00 0. -1.
         23    2    1    2    0    0  0.23042690244E+03 -0.16997331420E+03 -0.18963956594E+04  0.19199745459E+04  0.89433075095E+02 0.  0.
         13    1    3    3    0    0  0.15144228336E+03 -0.73415555905E+02 -0.87970720313E+03  0.89566141609E+03  0.00000000000E+00 0.  1.
        -13    1    3    3    0    0  0.78984619082E+02 -0.96557758300E+02 -0.10166884563E+04  0.10243131298E+04  0.00000000000E+00 0. -1.
         22    1    1    2    0    0 -0.23042690244E+03  0.16997331420E+03  0.61359416407E+03  0.67711541342E+03  0.00000000000E+00 0.  1.
<mgrwt>
<rscale>  0 0.22581622E+04</rscale>
<asrwt>0</asrwt>
<pdfrwt beam="1">  1        2 0.29845318E+00 0.22581622E+04</pdfrwt>
<pdfrwt beam="2">  1       -2 0.10109911E+00 0.22581622E+04</pdfrwt>
<totfact> 0.52823158E+00</totfact>
</mgrwt>
</event>
<event>
 6    1  0.1001928E-005  0.3995825E+04  0.7818608E-02  0.8005389E-01
          2   -1    0    0  501    0  0.00000000000E+00  0.00000000000E+00  0.23134521556E+04  0.23134521556E+04  0.00000000000E+00 0. -1.
         -2   -1    0    0    0  501 -0.00000000000E+00 -0.00000000000E+00 -0.17254105162E+04  0.17254105162E+04  0.00000000000E+00 0.  1.
         23    2    1    2    0    0  0.11822222447E+02  0.19518010845E+04 -0.13199090599E+03  0.19584506681E+04  0.91870462488E+02 0.  0.
         13    1    3    3    0    0  0.34794114629E+01  0.26717094273E+03  0.13460589308E+02  0.26753243992E+03  0.00000000000E+00 0.  1.
        -13    1    3    3    0    0  0.83428109838E+01  0.16846301418E+04 -0.14545149530E+03  0.16909182282E+04  0.00000000000E+00 0. -1.
         22    1    1    2    0    0 -0.11822222447E+02 -0.19518010845E+04  0.72003254537E+03  0.20804120036E+04  0.00000000000E+00 0.  1.
<mgrwt>
<rscale>  0 0.39958252E+04</rscale>
<asrwt>0</asrwt>
<pdfrwt beam="1">  1        2 0.35591572E+00 0.39958252E+04</pdfrwt>
<pdfrwt beam="2">  1       -2 0.26544777E+00 0.39958252E+04</pdfrwt>
<totfact> 0.18165882E-01</totfact>
</mgrwt>
</event>
<event>
 6    1  0.1001928E-005  0.1187379E+04  0.7818608E-02  0.9123976E-01
          3   -1    0    0  501    0  0.00000000000E+00  0.00000000000E+00  0.83446667078E+03  0.83446667078E+03  0.00000000000E+00 0. -1.
         -3   -1    0    0    0  501 -0.00000000000E+00 -0.00000000000E+00 -0.42238620214E+03  0.42238620214E+03  0.00000000000E+00 0.  1.
         23    2    1    2    0    0 -0.19601194383E+03  0.41314194299E+02  0.79495183337E+03  0.82474405942E+03  0.90148773671E+02 0.  0.
         11    1    3    3    0    0 -0.93398221188E+02  0.62363077966E+02  0.47436694504E+03  0.48747961984E+03  0.00000000000E+00 0.  1.
        -11    1    3    3    0    0 -0.10261372264E+03 -0.21048883667E+02  0.32058488833E+03  0.33726443958E+03  0.00000000000E+00 0. -1.
         22    1    1    2    0    0  0.19601194383E+03 -0.41314194299E+02 -0.38287136473E+03  0.43210881350E+03  0.00000000000E+00 0.  1.
<mgrwt>
<rscale>  0 0.11873790E+04</rscale>
<asrwt>0</asrwt>
<pdfrwt beam="1">  1        3 0.12837949E+00 0.11873790E+04</pdfrwt>
<pdfrwt beam="2">  1       -3 0.64982493E-01 0.11873790E+04</pdfrwt>
<totfact> 0.28459296E+00</totfact>
</mgrwt>
</event>
<event>
 6    1  0.1001928E-005  0.3070328E+04  0.7818608E-02  0.8223929E-01
         -2   -1    0    0    0  501 -0.00000000000E+00  0.00000000000E+00  0.10273546790E+04  0.10273546790E+04  0.00000000000E+00 0.  1.
          2   -1    0    0  501    0  0.00000000000E+00 -0.00000000000E+00 -0.22939779684E+04  0.22939779684E+04  0.00000000000E+00 0. -1.
         23    2    1    2    0    0  0.10410146379E+04  0.10914397771E+04 -0.93553265303E+03  0.17771262905E+04  0.89466440387E+02 0.  0.
         11    1    3    3    0    0  0.89647977859E+03  0.89936553675E+03 -0.76640600510E+03  0.14832102099E+04  0.00000000000E+00 0. -1.
        -11    1    3    3    0    0  0.14453485933E+03  0.19207424037E+03 -0.16912664794E+03  0.29391608057E+03  0.00000000000E+00 0.  1.
         22    1    1    2    0    0 -0.10410146379E+04 -0.10914397771E+04 -0.33109063640E+03  0.15442063570E+04  0.00000000000E+00 0.  1.
<mgrwt>
<rscale>  0 0.30703283E+04</rscale>
<asrwt>0</asrwt>
<pdfrwt beam="1">  1        2 0.35291969E+00 0.30703283E+04</pdfrwt>
<pdfrwt beam="2">  1       -2 0.15805457E+00 0.30703283E+04</pdfrwt>
<totfact> 0.10126822E+00</totfact>
</mgrwt>
</event>
<event>
 6    1  0.1001928E-005  0.2028352E+04  0.7818608E-02  0.8593479E-01
         -1   -1    0    0    0  501 -0.00000000000E+00  0.00000000000E+00  0.62853751681E+03  0.62853751681E+03  0.00000000000E+00 0.  1.
          1   -1    0    0  501    0  0.00000000000E+00 -0.00000000000E+00 -0.16364227240E+04  0.16364227240E+04  0.00000000000E+00 0. -1.
         23    2    1    2    0    0 -0.45542325397E+03  0.68626872087E+02 -0.15112720185E+04  0.15826712481E+04  0.93729278938E+02 0.  0.
         13    1    3    3    0    0 -0.19656686815E+03  0.25734670153E+02 -0.81036772685E+03  0.83426414259E+03  0.00000000000E+00 0. -1.
        -13    1    3    3    0    0 -0.25885638582E+03  0.42892201933E+02 -0.70090429165E+03  0.74840710547E+03  0.00000000000E+00 0.  1.
         22    1    1    2    0    0  0.45542325397E+03 -0.68626872087E+02  0.50338681130E+03  0.68228899274E+03  0.00000000000E+00 0.  1.
<mgrwt>
<rscale>  0 0.20283521E+04</rscale>
<asrwt>0</asrwt>
<pdfrwt beam="1">  1        1 0.25175734E+00 0.20283521E+04</pdfrwt>
<pdfrwt beam="2">  1       -1 0.96698080E-01 0.20283521E+04</pdfrwt>
<totfact> 0.50149529E+00</totfact>
</mgrwt>
</event>
<event>
 6    1  0.1001928E-005  0.4051425E+04  0.7818608E-02  0.7994252E-01
          1   -1    0    0  501    0  0.00000000000E+00  0.00000000000E+00  0.30420105337E+04  0.30420105337E+04  0.00000000000E+00 0. -1.
         -1   -1    0    0    0  501 -0.00000000000E+00 -0.00000000000E+00 -0.13489473423E+04  0.13489473423E+04  0.00000000000E+00 0.  1.
         23    2    1    2    0    0  0.11039046847E+04  0.16930600952E+04  0.97739270832E+03  0.22468398104E+04  0.89076308475E+02 0.  0.
         13    1    3    3    0    0  0.97198755899E+03  0.15272543643E+04  0.85396838521E+03  0.20016312625E+04  0.00000000000E+00 0. -1.
        -13    1    3    3    0    0  0.13191712569E+03  0.16580573089E+03  0.12342432311E+03  0.24520854794E+03  0.00000000000E+00 0.  1.
         22    1    1    2    0    0 -0.11039046847E+04 -0.16930600952E+04  0.71567048304E+03  0.21441180655E+04  0.00000000000E+00 0. -1.
<mgrwt>
<rscale>  0 0.40514254E+04</rscale>
<asrwt>0</asrwt>
<pdfrwt beam="1">  1        1 0.46800162E+00 0.40514254E+04</pdfrwt>
<pdfrwt beam="2">  1       -1 0.20753036E+00 0.40514254E+04</pdfrwt>
<totfact> 0.57963189E-02</totfact>
</mgrwt>
</event>
<event>
 6    1  0.1008312E-005  0.2481184E+04  0.7818608E-02  0.8409720E-01
         -2   -1    0    0    0  501 -0.00000000000E+00  0.00000000000E+00  0.79265799350E+03  0.79265799350E+03  0.00000000000E+00 0.  1.
          2   -1    0    0  501    0  0.00000000000E+00 -0.00000000000E+00 -0.19416544502E+04  0.19416544502E+04  0.00000000000E+00 0. -1.
         23    2    1    2    0    0  0.85159171319E+01  0.22276358767E+03 -0.19183069699E+04  0.19333537666E+04  0.90879145955E+02 0.  0.
         13    1    3    3    0    0  0.34144436076E+01  0.10113024427E+03 -0.51975532112E+03  0.52951353011E+03  0.00000000000E+00 0.  1.
        -13    1    3    3    0    0  0.51014735244E+01  0.12163334340E+03 -0.13985516488E+04  0.14038402365E+04  0.00000000000E+00 0. -1.
         22    1    1    2    0    0 -0.85159171319E+01 -0.22276358767E+03  0.76931051317E+03  0.80095867715E+03  0.00000000000E+00 0.  1.
<mgrwt>
<rscale>  0 0.24811835E+04</rscale>
<asrwt>0</asrwt>
<pdfrwt beam="1">  1        2 0.29871606E+00 0.24811835E+04</pdfrwt>
<pdfrwt beam="2">  1       -2 0.12194739E+00 0.24811835E+04</pdfrwt>
<totfact> 0.32806697E+00</totfact>
</mgrwt>
</event>
<event>
 6    1  0.1001928E-005  0.1623794E+04  0.7818608E-02  0.8806062E-01
          1   -1    0    0  501    0  0.00000000000E+00  0.00000000000E+00  0.41627570660E+04  0.41627570660E+04  0.00000000000E+00 0. -1.
         -1   -1    0    0    0  501 -0.00000000000E+00 -0.00000000000E+00 -0.15835096917E+03  0.15835096917E+03  0.00000000000E+00 0.  1.
         23    2    1    2    0    0 -0.23333591786E+01  0.65885863081E+03  0.32593314532E+04  0.33265044133E+04  0.91049164043E+02 0.  0.
         13    1    3    3    0    0 -0.35757588097E+02  0.25064234163E+03  0.11117056263E+04  0.11401708592E+04  0.00000000000E+00 0. -1.
        -13    1    3    3    0    0  0.33424228918E+02  0.40821628919E+03  0.21476258269E+04  0.21863335542E+04  0.00000000000E+00 0.  1.
         22    1    1    2    0    0  0.23333591786E+01 -0.65885863081E+03  0.74507464367E+03  0.99460362186E+03  0.00000000000E+00 0.  1.
<mgrwt>
<rscale>  0 0.16237938E+04</rscale>
<asrwt>0</asrwt>
<pdfrwt beam="1">  1        1 0.64042408E+00 0.16237938E+04</pdfrwt>
<pdfrwt beam="2">  1       -1 0.24361691E-01 0.16237938E+04</pdfrwt>
<totfact> 0.97797418E-01</totfact>
</mgrwt>
</event>
<event>
 6    1  0.1001928E-005  0.1646732E+04  0.7818608E-02  0.8792342E-01
          3   -1    0    0  501    0  0.00000000000E+00  0.00000000000E+00  0.17738206308E+04  0.17738206308E+04  0.00000000000E+00 0. -1.
         -3   -1    0    0    0  501 -0.00000000000E+00 -0.00000000000E+00 -0.38218720226E+03  0.38218720226E+03  0.00000000000E+00 0.  1.
         23    2    1    2    0    0 -0.73901086805E+02 -0.48255862365E+03  0.15619189787E+04  0.16389765337E+04  0.91263278922E+02 0.  0.
         13    1    3    3    0    0 -0.74879840074E+02 -0.27407960661E+03  0.10019894170E+04  0.10414938373E+04  0.00000000000E+00 0.  1.
        -13    1    3    3    0    0  0.97875326887E+00 -0.20847901705E+03  0.55992956167E+03  0.59748269644E+03  0.00000000000E+00 0. -1.
         22    1    1    2    0    0  0.73901086805E+02  0.48255862365E+03 -0.17028555018E+03  0.51703129934E+03  0.00000000000E+00 0.  1.
<mgrwt>
<rscale>  0 0.16467320E+04</rscale>
<asrwt>0</asrwt>
<pdfrwt beam="1">  1        3 0.27289548E+00 0.16467320E+04</pdfrwt>
<pdfrwt beam="2">  1       -3 0.58798032E-01 0.16467320E+04</pdfrwt>
<totfact> 0.38890132E-01</totfact>
</mgrwt>
</event>
<event>
 6    1  0.1001928E-005  0.6200963E+03  0.7818608E-02  0.9864568E-01
          1   -1    0    0  501    0  0.00000000000E+00  0.00000000000E+00  0.39712969214E+03  0.39712969214E+03  0.00000000000E+00 0. -1.
         -1   -1    0    0    0  501 -0.00000000000E+00 -0.00000000000E+00 -0.24206162922E+03  0.24206162922E+03  0.00000000000E+00 0.  1.
         23    2    1    2    0    0 -0.13931227437E+03 -0.16354233497E+03  0.29778766270E+03  0.38127100561E+03  0.10264542146E+03 0.  0.
         11    1    3    3    0    0 -0.47659803738E+02 -0.10248537061E+03  0.21706059543E+03  0.24472435549E+03  0.00000000000E+00 0. -1.
        -11    1    3    3    0    0 -0.91652470632E+02 -0.61056964354E+02  0.80727067271E+02  0.13654665012E+03  0.00000000000E+00 0.  1.
         22    1    1    2    0    0  0.13931227437E+03  0.16354233497E+03 -0.14271959977E+03  0.25792031575E+03  0.00000000000E+00 0.  1.
<mgrwt>
<rscale>  0 0.62009632E+03</rscale>
<asrwt>0</asrwt>
<pdfrwt beam="1">  1        1 0.61096876E-01 0.62009632E+03</pdfrwt>
<pdfrwt beam="2">  1       -1 0.37240251E-01 0.62009632E+03</pdfrwt>
<totfact> 0.42532623E+02</totfact>
</mgrwt>
</event>
<event>
 6    1  0.1001928E-005  0.2756898E+04  0.7818608E-02  0.8316776E-01
         -1   -1    0    0    0  501 -0.00000000000E+00  0.00000000000E+00  0.10301510401E+04  0.10301510401E+04  0.00000000000E+00 0.  1.
          1   -1    0    0  501    0  0.00000000000E+00 -0.00000000000E+00 -0.18445082019E+04  0.18445082019E+04  0.00000000000E+00 0. -1.
         23    2    1    2    0    0 -0.98271056804E+03 -0.69923886710E+03  0.28516642598E+03  0.12426031235E+04  0.89930963751E+02 0.  0.
         11    1    3    3    0    0 -0.70128613129E+03 -0.53613591208E+03  0.23492305008E+03  0.91347292988E+03  0.00000000000E+00 0. -1.
        -11    1    3    3    0    0 -0.28142443674E+03 -0.16310295502E+03  0.50243375899E+02  0.32913019362E+03  0.00000000000E+00 0.  1.
         22    1    1    2    0    0  0.98271056804E+03  0.69923886710E+03 -0.10995235878E+04  0.16320561185E+04  0.00000000000E+00 0. -1.
<mgrwt>
<rscale>  0 0.27568983E+04</rscale>
<asrwt>0</asrwt>
<pdfrwt beam="1">  1        1 0.28377049E+00 0.27568983E+04</pdfrwt>
<pdfrwt beam="2">  1       -1 0.15848478E+00 0.27568983E+04</pdfrwt>
<totfact> 0.99083300E-01</totfact>
</mgrwt>
</event>
<event>
 6    1  0.1001928E-005  0.5252222E+03  0.7818608E-02  0.1007397E+00
         -2   -1    0    0    0  501 -0.00000000000E+00  0.00000000000E+00  0.11623968174E+03  0.11623968174E+03  0.00000000000E+00 0.  1.
          2   -1    0    0  501    0  0.00000000000E+00 -0.00000000000E+00 -0.59329641961E+03  0.59329641961E+03  0.00000000000E+00 0. -1.
         23    2    1    2    0    0 -0.14026461311E+03  0.26264474638E+02 -0.53074165791E+03  0.55706953138E+03  0.90971264874E+02 0.  0.
         11    1    3    3    0    0 -0.71423152053E+02 -0.69316234437E+01 -0.39343492965E+03  0.39992544045E+03  0.00000000000E+00 0. -1.
        -11    1    3    3    0    0 -0.68841461054E+02  0.33196098082E+02 -0.13730672826E+03  0.15714409093E+03  0.00000000000E+00 0.  1.
         22    1    1    2    0    0  0.14026461311E+03 -0.26264474638E+02  0.53684920047E+02  0.15246656997E+03  0.00000000000E+00 0.  1.
<mgrwt>
<rscale>  0 0.52522219E+03</rscale>
<asrwt>0</asrwt>
<pdfrwt beam="1">  1        2 0.91276372E-01 0.52522219E+03</pdfrwt>
<pdfrwt beam="2">  1       -2 0.17883028E-01 0.52522219E+03</pdfrwt>
<totfact> 0.13055745E+03</totfact>
</mgrwt>
</event>
<event>
 6    1  0.1001928E-005  0.2433908E+04  0.7818608E-02  0.8426917E-01
          3   -1    0    0  501    0  0.00000000000E+00  0.00000000000E+00  0.12737829217E+04  0.12737829217E+04  0.00000000000E+00 0. -1.
         -3   -1    0    0    0  501 -0.00000000000E+00 -0.00000000000E+00 -0.11626604851E+04  0.11626604851E+04  0.00000000000E+00 0.  1.
         23    2    1    2    0    0  0.72065452663E+03  0.27732493617E+03 -0.88386151361E+03  0.11769811691E+04  0.88438850374E+02 0.  0.
         13    1    3    3    0    0  0.65432115749E+03  0.23515704938E+03 -0.75798978791E+03  0.10285832653E+04  0.00000000000E+00 0. -1.
        -13    1    3    3    0    0  0.66333369136E+02  0.42167886794E+02 -0.12587172570E+03  0.14839790386E+03  0.00000000000E+00 0.  1.
         22    1    1    2    0    0 -0.72065452663E+03 -0.27732493617E+03  0.99498395024E+03  0.12594622377E+04  0.00000000000E+00 0. -1.
<mgrwt>
<rscale>  0 0.24339080E+04</rscale>
<asrwt>0</asrwt>
<pdfrwt beam="1">  1        3 0.19596660E+00 0.24339080E+04</pdfrwt>
<pdfrwt beam="2">  1       -3 0.17887084E+00 0.24339080E+04</pdfrwt>
<totfact> 0.73421852E-02</totfact>
</mgrwt>
</event>
<event>
 6    1  0.1001928E-005  0.2122596E+04  0.7818608E-02  0.8551355E-01
         -1   -1    0    0    0  501 -0.00000000000E+00  0.00000000000E+00  0.41397040658E+03  0.41397040658E+03  0.00000000000E+00 0. -1.
          1   -1    0    0  501    0  0.00000000000E+00 -0.00000000000E+00 -0.27208547886E+04  0.27208547886E+04  0.00000000000E+00 0.  1.
         23    2    1    2    0    0  0.75716223064E+02 -0.79507143055E+03 -0.21834116551E+04  0.23266686260E+04  0.90713358739E+02 0.  0.
         13    1    3    3    0    0  0.77160492324E+02 -0.47826017060E+03 -0.12281959484E+04  0.13202847496E+04  0.00000000000E+00 0.  1.
        -13    1    3    3    0    0 -0.14442692609E+01 -0.31681125995E+03 -0.95521570667E+03  0.10063838764E+04  0.00000000000E+00 0. -1.
         22    1    1    2    0    0 -0.75716223064E+02  0.79507143055E+03 -0.12347272699E+03  0.80815656925E+03  0.00000000000E+00 0. -1.
<mgrwt>
<rscale>  0 0.21225959E+04</rscale>
<asrwt>0</asrwt>
<pdfrwt beam="1">  1        1 0.41859304E+00 0.21225959E+04</pdfrwt>
<pdfrwt beam="2">  1       -1 0.63687756E-01 0.21225959E+04</pdfrwt>
<totfact> 0.21783375E+00</totfact>
</mgrwt>
</event>
<event>
 6    1  0.1001928E-005  0.1668700E+04  0.7818608E-02  0.8779420E-01
         -2   -1    0    0    0  501 -0.00000000000E+00  0.00000000000E+00  0.23614953680E+03  0.23614953680E+03  0.00000000000E+00 0. -1.
          2   -1    0    0  501    0  0.00000000000E+00 -0.00000000000E+00 -0.29478761100E+04  0.29478761100E+04  0.00000000000E+00 0.  1.
         23    2    1    2    0    0  0.80489510540E+03  0.20083369214E+00 -0.95945943684E+03  0.12557372119E+04  0.91963924255E+02 0.  0.
         13    1    3    3    0    0  0.61034802838E+03  0.39276327107E+02 -0.73236949024E+03  0.95416582199E+03  0.00000000000E+00 0.  1.
        -13    1    3    3    0    0  0.19454707702E+03 -0.39075493414E+02 -0.22708994661E+03  0.30157138991E+03  0.00000000000E+00 0. -1.
         22    1    1    2    0    0 -0.80489510540E+03 -0.20083369214E+00 -0.17522671363E+04  0.19282884349E+04  0.00000000000E+00 0.  1.
<mgrwt>
<rscale>  0 0.16686996E+04</rscale>
<asrwt>0</asrwt>
<pdfrwt beam="1">  1        2 0.45351937E+00 0.16686996E+04</pdfrwt>
<pdfrwt beam="2">  1       -2 0.36330701E-01 0.16686996E+04</pdfrwt>
<totfact> 0.12825043E+01</totfact>
</mgrwt>
</event>
<event>
 6    1  0.1001928E-005  0.1315983E+04  0.7818608E-02  0.9016986E-01
          3   -1    0    0  501    0  0.00000000000E+00  0.00000000000E+00  0.11268496049E+04  0.11268496049E+04  0.00000000000E+00 0. -1.
         -3   -1    0    0    0  501 -0.00000000000E+00 -0.00000000000E+00 -0.38421536151E+03  0.38421536151E+03  0.00000000000E+00 0.  1.
         23    2    1    2    0    0 -0.45731498552E+03  0.37115044757E+03  0.44352488225E+02  0.59756233351E+03  0.90685988470E+02 0.  0.
         11    1    3    3    0    0 -0.10966888883E+03  0.43887883496E+02  0.16855760142E+02  0.11932111358E+03  0.00000000000E+00 0.  1.
        -11    1    3    3    0    0 -0.34764609669E+03  0.32726256407E+03  0.27496728083E+02  0.47824121993E+03  0.00000000000E+00 0. -1.
         22    1    1    2    0    0  0.45731498552E+03 -0.37115044757E+03  0.69828175511E+03  0.91350263286E+03  0.00000000000E+00 0. -1.
<mgrwt>
<rscale>  0 0.13159832E+04</rscale>
<asrwt>0</asrwt>
<pdfrwt beam="1">  1        3 0.17336148E+00 0.13159832E+04</pdfrwt>
<pdfrwt beam="2">  1       -3 0.59110056E-01 0.13159832E+04</pdfrwt>
<totfact> 0.15840821E+00</totfact>
</mgrwt>
</event>
<event>
 6    1  0.1001928E-005  0.2167647E+04  0.7818608E-02  0.8532016E-01
         -2   -1    0    0    0  501 -0.00000000000E+00  0.00000000000E+00  0.13328057768E+04  0.13328057768E+04  0.00000000000E+00 0.  1.
          2   -1    0    0  501    0  0.00000000000E+00 -0.00000000000E+00 -0.88135379115E+03  0.88135379115E+03  0.00000000000E+00 0. -1.
         23    2    1    2    0    0  0.47518245490E+03  0.10077286767E+03  0.12136045359E+04  0.13103730632E+04  0.91038777866E+02 0.  0.
         11    1    3    3    0    0  0.21185222620E+03  0.86547059480E+02  0.61741702274E+03  0.65846453148E+03  0.00000000000E+00 0. -1.
        -11    1    3    3    0    0  0.26333022870E+03  0.14225808186E+02  0.59618751313E+03  0.65190853175E+03  0.00000000000E+00 0.  1.
         22    1    1    2    0    0 -0.47518245490E+03 -0.10077286767E+03 -0.76215255022E+03  0.90378650472E+03  0.00000000000E+00 0. -1.
<mgrwt>
<rscale>  0 0.21676470E+04</rscale>
<asrwt>0</asrwt>
<pdfrwt beam="1">  1        2 0.13559289E+00 0.21676470E+04</pdfrwt>
<pdfrwt beam="2">  1       -2 0.20504704E+00 0.21676470E+04</pdfrwt>
<totfact> 0.34097174E+00</totfact>
</mgrwt>
</event>
<event>
 6    1  0.1001928E-005  0.2125709E+04  0.7818608E-02  0.8550002E-01
          1   -1    0    0  501    0  0.00000000000E+00  0.00000000000E+00  0.70144390060E+03  0.70144390060E+03  0.00000000000E+00 0. -1.
         -1   -1    0    0    0  501 -0.00000000000E+00 -0.00000000000E+00 -0.16104782151E+04  0.16104782151E+04  0.00000000000E+00 0.  1.
         23    2    1    2    0    0 -0.83711277606E+03  0.42548981424E+03  0.81859454577E+02  0.94675917910E+03  0.88614846566E+02 0.  0.
         13    1    3    3    0    0 -0.65288388790E+03  0.34222017599E+03  0.99476472106E+02  0.74381959401E+03  0.00000000000E+00 0. -1.
        -13    1    3    3    0    0 -0.18422888816E+03  0.83269638255E+02 -0.17617017529E+02  0.20293958508E+03  0.00000000000E+00 0.  1.
         22    1    1    2    0    0  0.83711277606E+03 -0.42548981424E+03 -0.99089376906E+03  0.13651629366E+04  0.00000000000E+00 0.  1.
<mgrwt>
<rscale>  0 0.21257094E+04</rscale>
<asrwt>0</asrwt>
<pdfrwt beam="1">  1        1 0.10791445E+00 0.21257094E+04</pdfrwt>
<pdfrwt beam="2">  1       -1 0.24776588E+00 0.21257094E+04</pdfrwt>
<totfact> 0.17968949E+00</totfact>
</mgrwt>
</event>
<event>
 6    1  0.1001928E-005  0.1460457E+04  0.7818608E-02  0.8911183E-01
          2   -1    0    0  501    0  0.00000000000E+00  0.00000000000E+00  0.15011618604E+04  0.15011618604E+04  0.00000000000E+00 0. -1.
         -2   -1    0    0    0  501 -0.00000000000E+00 -0.00000000000E+00 -0.35521389444E+03  0.35521389444E+03  0.00000000000E+00 0.  1.
         23    2    1    2    0    0  0.40015647616E+03  0.30794467915E+03  0.12403917873E+04  0.13426883341E+04  0.96358942801E+02 0.  0.
         11    1    3    3    0    0  0.20861060882E+03  0.12423720457E+03  0.69403354955E+03  0.73527942784E+03  0.00000000000E+00 0. -1.
        -11    1    3    3    0    0  0.19154586734E+03  0.18370747458E+03  0.54635823771E+03  0.60740890627E+03  0.00000000000E+00 0.  1.
         22    1    1    2    0    0 -0.40015647616E+03 -0.30794467915E+03 -0.94443821302E+02  0.51368742072E+03  0.00000000000E+00 0.  1.
<mgrwt>
<rscale>  0 0.14604568E+04</rscale>
<asrwt>0</asrwt>
<pdfrwt beam="1">  1        2 0.23094797E+00 0.14604568E+04</pdfrwt>
<pdfrwt beam="2">  1       -2 0.54648292E-01 0.14604568E+04</pdfrwt>
<totfact> 0.38691163E+01</totfact>
</mgrwt>
</event>
<event>
 6    1  0.1001928E-005  0.1095378E+04  0.7818608E-02  0.9209709E-01
          1   -1    0    0  501    0  0.00000000000E+00  0.00000000000E+00  0.38233876744E+03  0.38233876744E+03  0.00000000000E+00 0. -1.
         -1   -1    0    0    0  501 -0.00000000000E+00 -0.00000000000E+00 -0.78454808183E+03  0.78454808183E+03  0.00000000000E+00 0.  1.
         23    2    1    2    0    0  0.23773764084E+03  0.25763779006E+03  0.24063637130E+03  0.43466625931E+03  0.90180247573E+02 0.  0.
         11    1    3    3    0    0  0.14397379588E+03  0.20000154736E+03  0.19987242060E+03  0.31729805761E+03  0.00000000000E+00 0. -1.
        -11    1    3    3    0    0  0.93763844956E+02  0.57636242700E+02  0.40763950700E+02  0.11736820170E+03  0.00000000000E+00 0.  1.
         22    1    1    2    0    0 -0.23773764084E+03 -0.25763779006E+03 -0.64284568569E+03  0.73222058995E+03  0.00000000000E+00 0.  1.
<mgrwt>
<rscale>  0 0.10953778E+04</rscale>
<asrwt>0</asrwt>
<pdfrwt beam="1">  1        1 0.58821349E-01 0.10953778E+04</pdfrwt>
<pdfrwt beam="2">  1       -1 0.12069970E+00 0.10953778E+04</pdfrwt>
<totfact> 0.38774376E+01</totfact>
</mgrwt>
</event>
<event>
 6    1  0.1001928E-005  0.5879801E+03  0.7818608E-02  0.9930662E-01
          2   -1    0    0  501    0  0.00000000000E+00  0.00000000000E+00  0.12666917707E+04  0.12666917707E+04  0.00000000000E+00 0. -1.
         -2   -1    0    0    0  501 -0.00000000000E+00 -0.00000000000E+00 -0.68232964656E+02  0.68232964656E+02  0.00000000000E+00 0.  1.
         23    2    1    2    0    0  0.25476450542E+03  0.14502726324E+02  0.31553450614E+03  0.41586510636E+03  0.90920183836E+02 0.  0.
         11    1    3    3    0    0  0.15458709647E+03  0.48115311604E+02  0.22187734276E+03  0.27466672321E+03  0.00000000000E+00 0. -1.
        -11    1    3    3    0    0  0.10017740894E+03 -0.33612585279E+02  0.93657163381E+02  0.14119838315E+03  0.00000000000E+00 0.  1.
         22    1    1    2    0    0 -0.25476450542E+03 -0.14502726324E+02  0.88292429988E+03  0.91905962897E+03  0.00000000000E+00 0. -1.
<mgrwt>
<rscale>  0 0.58798005E+03</rscale>
<asrwt>0</asrwt>
<pdfrwt beam="1">  1        2 0.19487564E+00 0.58798005E+03</pdfrwt>
<pdfrwt beam="2">  1       -2 0.10497380E-01 0.58798005E+03</pdfrwt>
<totfact> 0.11111320E+03</totfact>
</mgrwt>
</event>
<event>
 6    1  0.1001928E-005  0.1921660E+04  0.7818608E-02  0.8644149E-01
         -2   -1    0    0    0  501 -0.00000000000E+00  0.00000000000E+00  0.10077976904E+04  0.10077976904E+04  0.00000000000E+00 0.  1.
          2   -1    0    0  501    0  0.00000000000E+00 -0.00000000000E+00 -0.91605106318E+03  0.91605106318E+03  0.00000000000E+00 0. -1.
         23    2    1    2    0    0  0.44040990549E+03  0.83787259779E+03  0.19645971032E+03  0.97150627062E+03  0.96107445514E+02 0.  0.
         11    1    3    3    0    0  0.14475988731E+03  0.25175727652E+03  0.10449125204E+03  0.30863501585E+03  0.00000000000E+00 0. -1.
        -11    1    3    3    0    0  0.29565001818E+03  0.58611532127E+03  0.91968458283E+02  0.66287125477E+03  0.00000000000E+00 0.  1.
         22    1    1    2    0    0 -0.44040990549E+03 -0.83787259779E+03 -0.10471308315E+03  0.95234248292E+03  0.00000000000E+00 0.  1.
<mgrwt>
<rscale>  0 0.19216599E+04</rscale>
<asrwt>0</asrwt>
<pdfrwt beam="1">  1        2 0.14093093E+00 0.19216599E+04</pdfrwt>
<pdfrwt beam="2">  1       -2 0.15504580E+00 0.19216599E+04</pdfrwt>
<totfact> 0.73328564E+00</totfact>
</mgrwt>
</event>
<event>
 6    1  0.1001928E-005  0.2435488E+04  0.7818608E-02  0.8426336E-01
         -2   -1    0    0    0  501 -0.00000000000E+00  0.00000000000E+00  0.11922815058E+04  0.11922815058E+04  0.00000000000E+00 0.  1.
          2   -1    0    0  501    0  0.00000000000E+00 -0.00000000000E+00 -0.12437504933E+04  0.12437504933E+04  0.00000000000E+00 0. -1.
         23    2    1    2    0    0 -0.10310110454E+04  0.36858718870E+03  0.50353024011E+03  0.12084879331E+04  0.89778006054E+02 0.  0.
         13    1    3    3    0    0 -0.34372407703E+03  0.79277339266E+02  0.15254121073E+03  0.38431752318E+03  0.00000000000E+00 0.  1.
        -13    1    3    3    0    0 -0.68728696836E+03  0.28930984943E+03  0.35098902938E+03  0.82417040993E+03  0.00000000000E+00 0. -1.
         22    1    1    2    0    0  0.10310110454E+04 -0.36858718870E+03 -0.55499922764E+03  0.12275440660E+04  0.00000000000E+00 0. -1.
<mgrwt>
<rscale>  0 0.24354882E+04</rscale>
<asrwt>0</asrwt>
<pdfrwt beam="1">  1        2 0.19134623E+00 0.24354882E+04</pdfrwt>
<pdfrwt beam="2">  1       -2 0.18342792E+00 0.24354882E+04</pdfrwt>
<totfact> 0.27470553E+00</totfact>
</mgrwt>
</event>
<event>
 6    1  0.1001928E-005  0.3998924E+04  0.7818608E-02  0.8004764E-01
          2   -1    0    0  501    0  0.00000000000E+00  0.00000000000E+00  0.51380076355E+04  0.51380076355E+04  0.00000000000E+00 0. -1.
         -2   -1    0    0    0  501 -0.00000000000E+00 -0.00000000000E+00 -0.77809300743E+03  0.77809300743E+03  0.00000000000E+00 0.  1.
         23    2    1    2    0    0  0.13982132518E+04  0.40765718909E+03  0.42055344173E+04  0.44515126699E+04  0.90888028356E+02 0.  0.
         11    1    3    3    0    0  0.74660271518E+03  0.24802562199E+03  0.23753199043E+04  0.25022144135E+04  0.00000000000E+00 0.  1.
        -11    1    3    3    0    0  0.65161053663E+03  0.15963156709E+03  0.18302145131E+04  0.19492982564E+04  0.00000000000E+00 0. -1.
         22    1    1    2    0    0 -0.13982132518E+04 -0.40765718909E+03  0.15438021077E+03  0.14645879731E+04  0.00000000000E+00 0.  1.
<mgrwt>
<rscale>  0 0.39989238E+04</rscale>
<asrwt>0</asrwt>
<pdfrwt beam="1">  1        2 0.79046269E+00 0.39989238E+04</pdfrwt>
<pdfrwt beam="2">  1       -2 0.11970662E+00 0.39989238E+04</pdfrwt>
<totfact> 0.93801119E-03</totfact>
</mgrwt>
</event>
<event>
 6    1  0.1001928E-005  0.1388151E+04  0.7818608E-02  0.8962440E-01
          2   -1    0    0  501    0  0.00000000000E+00  0.00000000000E+00  0.12931869578E+04  0.12931869578E+04  0.00000000000E+00 0. -1.
         -2   -1    0    0    0  501 -0.00000000000E+00 -0.00000000000E+00 -0.37252231363E+03  0.37252231363E+03  0.00000000000E+00 0.  1.
         23    2    1    2    0    0  0.10451743544E+03  0.41939674180E+03 -0.18473936139E+03  0.47880761718E+03  0.91162389617E+02 0.  0.
         13    1    3    3    0    0  0.98870030139E+02  0.26237495955E+03 -0.86179898986E+02  0.29333066196E+03  0.00000000000E+00 0.  1.
        -13    1    3    3    0    0  0.56474052990E+01  0.15702178225E+03 -0.98559462402E+02  0.18547695522E+03  0.00000000000E+00 0. -1.
         22    1    1    2    0    0 -0.10451743544E+03 -0.41939674180E+03  0.11054040056E+04  0.11869016543E+04  0.00000000000E+00 0. -1.
<mgrwt>
<rscale>  0 0.13881513E+04</rscale>
<asrwt>0</asrwt>
<pdfrwt beam="1">  1        2 0.19895184E+00 0.13881513E+04</pdfrwt>
<pdfrwt beam="2">  1       -2 0.57311126E-01 0.13881513E+04</pdfrwt>
<totfact> 0.46357450E+01</totfact>
</mgrwt>
</event>
<event>
 6    1  0.1001928E-005  0.1579816E+04  0.7818608E-02  0.8833045E-01
         -1   -1    0    0    0  501 -0.00000000000E+00  0.00000000000E+00  0.42167508584E+03  0.42167508584E+03  0.00000000000E+00 0.  1.
          1   -1    0    0  501    0  0.00000000000E+00 -0.00000000000E+00 -0.14797046788E+04  0.14797046788E+04  0.00000000000E+00 0. -1.
         23    2    1    2    0    0  0.10267950767E+03  0.75915098850E+03 -0.75226867666E+03  0.10765506656E+04  0.78739247991E+02 0.  0.
         13    1    3    3    0    0  0.95356496037E+02  0.46461098601E+03 -0.49263068473E+03  0.68384297992E+03  0.00000000000E+00 0. -1.
        -13    1    3    3    0    0  0.73230116291E+01  0.29454000249E+03 -0.25963799194E+03  0.39270768572E+03  0.00000000000E+00 0.  1.
         22    1    1    2    0    0 -0.10267950767E+03 -0.75915098850E+03 -0.30576091632E+03  0.82482909902E+03  0.00000000000E+00 0. -1.
<mgrwt>
<rscale>  0 0.15798159E+04</rscale>
<asrwt>0</asrwt>
<pdfrwt beam="1">  1        1 0.22764687E+00 0.15798159E+04</pdfrwt>
<pdfrwt beam="2">  1       -1 0.64873091E-01 0.15798159E+04</pdfrwt>
<totfact> 0.15646329E+01</totfact>
</mgrwt>
</event>
<event>
 6    1  0.1001928E-005  0.1667050E+04  0.7818608E-02  0.8780383E-01
         -2   -1    0    0    0  501 -0.00000000000E+00  0.00000000000E+00  0.94574781149E+03  0.94574781149E+03  0.00000000000E+00 0.  1.
          2   -1    0    0  501    0  0.00000000000E+00 -0.00000000000E+00 -0.73461836757E+03  0.73461836757E+03  0.00000000000E+00 0. -1.
         23    2    1    2    0    0  0.71740430550E+03  0.31978852897E+03 -0.16832287476E+03  0.80806021040E+03  0.87721563180E+02 0.  0.
         11    1    3    3    0    0  0.30222326703E+03  0.88566505589E+02 -0.58741806472E+02  0.32036468107E+03  0.00000000000E+00 0. -1.
        -11    1    3    3    0    0  0.41518103847E+03  0.23122202338E+03 -0.10958106829E+03  0.48769552933E+03  0.00000000000E+00 0.  1.
         22    1    1    2    0    0 -0.71740430550E+03 -0.31978852897E+03  0.37945231869E+03  0.87230596867E+03  0.00000000000E+00 0.  1.
<mgrwt>
<rscale>  0 0.16670497E+04</rscale>
<asrwt>0</asrwt>
<pdfrwt beam="1">  1        2 0.11301821E+00 0.16670497E+04</pdfrwt>
<pdfrwt beam="2">  1       -2 0.14549966E+00 0.16670497E+04</pdfrwt>
<totfact> 0.11927527E+01</totfact>
</mgrwt>
</event>
<event>
 6    1  0.1001928E-005  0.1532092E+04  0.7818608E-02  0.8863388E-01
         -2   -1    0    0    0  501 -0.00000000000E+00  0.00000000000E+00  0.61485254478E+03  0.61485254478E+03  0.00000000000E+00 0.  1.
          2   -1    0    0  501    0  0.00000000000E+00 -0.00000000000E+00 -0.95441882064E+03  0.95441882064E+03  0.00000000000E+00 0. -1.
         23    2    1    2    0    0  0.13650465116E+03  0.20601075486E+03  0.56944307624E+03  0.62726714403E+03  0.90137128857E+02 0.  0.
         13    1    3    3    0    0  0.27220039467E+02  0.10535539523E+03  0.30661431598E+03  0.32535062412E+03  0.00000000000E+00 0.  1.
        -13    1    3    3    0    0  0.10928461169E+03  0.10065535963E+03  0.26282876026E+03  0.30191651991E+03  0.00000000000E+00 0. -1.
         22    1    1    2    0    0 -0.13650465116E+03 -0.20601075486E+03 -0.90900935209E+03  0.94200422138E+03  0.00000000000E+00 0. -1.
<mgrwt>
<rscale>  0 0.15320925E+04</rscale>
<asrwt>0</asrwt>
<pdfrwt beam="1">  1        2 0.14683366E+00 0.15320925E+04</pdfrwt>
<pdfrwt beam="2">  1       -2 0.94592700E-01 0.15320925E+04</pdfrwt>
<totfact> 0.24477114E+01</totfact>
</mgrwt>
</event>
<event>
 6    1  0.1001928E-005  0.4318435E+03  0.7818608E-02  0.1033279E+00
         -1   -1    0    0    0  501 -0.00000000000E+00  0.00000000000E+00  0.41346240390E+03  0.41346240390E+03  0.00000000000E+00 0.  1.
          1   -1    0    0  501    0  0.00000000000E+00 -0.00000000000E+00 -0.11276044721E+03  0.11276044721E+03  0.00000000000E+00 0. -1.
         23    2    1    2    0    0 -0.39740188383E+02 -0.20204816978E+03  0.17327621093E+03  0.28406574061E+03  0.90917293371E+02 0.  0.
         11    1    3    3    0    0 -0.48172560856E+02 -0.17736534353E+03  0.10659702887E+03  0.21246643798E+03  0.00000000000E+00 0. -1.
        -11    1    3    3    0    0  0.84323724727E+01 -0.24682826245E+02  0.66679182062E+02  0.71599302632E+02  0.00000000000E+00 0.  1.
         22    1    1    2    0    0  0.39740188383E+02  0.20204816978E+03  0.12742574576E+03  0.24215711050E+03  0.00000000000E+00 0. -1.
<mgrwt>
<rscale>  0 0.43184352E+03</rscale>
<asrwt>0</asrwt>
<pdfrwt beam="1">  1        1 0.17347761E-01 0.43184352E+03</pdfrwt>
<pdfrwt beam="2">  1       -1 0.63609600E-01 0.43184352E+03</pdfrwt>
<totfact> 0.80002604E+02</totfact>
</mgrwt>
</event>
<event>
 6    1  0.1001928E-005  0.2201264E+04  0.7818608E-02  0.8517902E-01
          1   -1    0    0  501    0  0.00000000000E+00  0.00000000000E+00  0.19357681012E+04  0.19357681012E+04  0.00000000000E+00 0. -1.
         -1   -1    0    0    0  501 -0.00000000000E+00 -0.00000000000E+00 -0.62579308854E+03  0.62579308854E+03  0.00000000000E+00 0.  1.
         23    2    1    2    0    0 -0.10600906990E+04  0.24851000837E+03  0.82774599091E+03  0.13707235250E+04  0.90388286520E+02 0.  0.
         11    1    3    3    0    0 -0.10479552181E+04  0.24119413041E+03  0.82691363322E+03  0.13565289914E+04  0.00000000000E+00 0. -1.
        -11    1    3    3    0    0 -0.12135480815E+02  0.73158779601E+01  0.83235768432E+00  0.14194533604E+02  0.00000000000E+00 0.  1.
         22    1    1    2    0    0  0.10600906990E+04 -0.24851000837E+03  0.48222902176E+03  0.11908376647E+04  0.00000000000E+00 0. -1.
<mgrwt>
<rscale>  0 0.22012635E+04</rscale>
<asrwt>0</asrwt>
<pdfrwt beam="1">  1        1 0.29781047E+00 0.22012635E+04</pdfrwt>
<pdfrwt beam="2">  1       -1 0.96275861E-01 0.22012635E+04</pdfrwt>
<totfact> 0.31202367E+00</totfact>
</mgrwt>
</event>
<event>
 6    1  0.1001928E-005  0.1498800E+04  0.7818608E-02  0.8885251E-01
         -1   -1    0    0    0  501 -0.00000000000E+00  0.00000000000E+00  0.32373714768E+03  0.32373714768E+03  0.00000000000E+00 0.  1.
          1   -1    0    0  501    0  0.00000000000E+00 -0.00000000000E+00 -0.17347419153E+04  0.17347419153E+04  0.00000000000E+00 0. -1.
         23    2    1    2    0    0  0.10776338727E+03 -0.30006859904E+03  0.21907325999E+03  0.39751293213E+03  0.91484021584E+02 0.  0.
         11    1    3    3    0    0  0.30145743105E+02 -0.13703936081E+03  0.14665553143E+03  0.20296895610E+03  0.00000000000E+00 0.  1.
        -11    1    3    3    0    0  0.77617644162E+02 -0.16302923823E+03  0.72417728554E+02  0.19454397603E+03  0.00000000000E+00 0. -1.
         22    1    1    2    0    0 -0.10776338727E+03  0.30006859904E+03 -0.16300780276E+04  0.16609661309E+04  0.00000000000E+00 0. -1.
<mgrwt>
<rscale>  0 0.14988001E+04</rscale>
<asrwt>0</asrwt>
<pdfrwt beam="1">  1        1 0.26688337E+00 0.14988001E+04</pdfrwt>
<pdfrwt beam="2">  1       -1 0.49805716E-01 0.14988001E+04</pdfrwt>
<totfact> 0.17656821E+01</totfact>
</mgrwt>
</event>
<event>
 6    1  0.1001928E-005  0.1102606E+04  0.7818608E-02  0.9202655E-01
          2   -1    0    0  501    0  0.00000000000E+00  0.00000000000E+00  0.71466356093E+03  0.71466356093E+03  0.00000000000E+00 0. -1.
         -2   -1    0    0    0  501 -0.00000000000E+00 -0.00000000000E+00 -0.42528414981E+03  0.42528414981E+03  0.00000000000E+00 0.  1.
         23    2    1    2    0    0 -0.21658193560E+03  0.77363713759E+02 -0.36803103289E+03  0.44346987840E+03  0.91245892209E+02 0.  0.
         11    1    3    3    0    0 -0.17770916309E+03  0.81323208387E+02 -0.34903232472E+03  0.40002196761E+03  0.00000000000E+00 0.  1.
        -11    1    3    3    0    0 -0.38872772510E+02 -0.39594946280E+01 -0.18998708169E+02  0.43447910794E+02  0.00000000000E+00 0. -1.
         22    1    1    2    0    0  0.21658193560E+03 -0.77363713759E+02  0.65741044402E+03  0.69647783234E+03  0.00000000000E+00 0. -1.
<mgrwt>
<rscale>  0 0.11026062E+04</rscale>
<asrwt>0</asrwt>
<pdfrwt beam="1">  1        2 0.10994824E+00 0.11026062E+04</pdfrwt>
<pdfrwt beam="2">  1       -2 0.65428331E-01 0.11026062E+04</pdfrwt>
<totfact> 0.85315899E+01</totfact>
</mgrwt>
</event>
<event>
 6    1  0.1001928E-005  0.1886027E+04  0.7818608E-02  0.8661843E-01
         -2   -1    0    0    0  501 -0.00000000000E+00  0.00000000000E+00  0.15422034438E+04  0.15422034438E+04  0.00000000000E+00 0.  1.
          2   -1    0    0  501    0  0.00000000000E+00 -0.00000000000E+00 -0.57662564492E+03  0.57662564492E+03  0.00000000000E+00 0. -1.
         23    2    1    2    0    0  0.77375307121E+03 -0.43894646291E+03  0.82793374642E+03  0.12186548291E+04  0.90980721055E+02 0.  0.
         13    1    3    3    0    0  0.51490305032E+03 -0.31075156904E+03  0.61172226597E+03  0.85784370347E+03  0.00000000000E+00 0. -1.
        -13    1    3    3    0    0  0.25885002089E+03 -0.12819489386E+03  0.21621148045E+03  0.36081112567E+03  0.00000000000E+00 0.  1.
         22    1    1    2    0    0 -0.77375307121E+03  0.43894646291E+03  0.13764405248E+03  0.90017425962E+03  0.00000000000E+00 0. -1.
<mgrwt>
<rscale>  0 0.18860266E+04</rscale>
<asrwt>0</asrwt>
<pdfrwt beam="1">  1        2 0.88711638E-01 0.18860266E+04</pdfrwt>
<pdfrwt beam="2">  1       -2 0.23726207E+00 0.18860266E+04</pdfrwt>
<totfact> 0.37564250E+00</totfact>
</mgrwt>
</event>
<event>
 6    1  0.1001928E-005  0.2658857E+04  0.7818608E-02  0.8348479E-01
          2   -1    0    0  501    0  0.00000000000E+00  0.00000000000E+00  0.11858976476E+04  0.11858976476E+04  0.00000000000E+00 0. -1.
         -2   -1    0    0    0  501 -0.00000000000E+00 -0.00000000000E+00 -0.14903315033E+04  0.14903315033E+04  0.00000000000E+00 0.  1.
         23    2    1    2    0    0  0.95797381080E+03  0.91843234957E+03 -0.19757446260E+03  0.13448198476E+04  0.90955766393E+02 0.  0.
         11    1    3    3    0    0  0.72496332144E+03  0.67509250168E+03 -0.10993703542E+03  0.99669847749E+03  0.00000000000E+00 0.  1.
        -11    1    3    3    0    0  0.23301048936E+03  0.24333984788E+03 -0.87637427185E+02  0.34812137016E+03  0.00000000000E+00 0. -1.
         22    1    1    2    0    0 -0.95797381080E+03 -0.91843234957E+03 -0.10685939304E+03  0.13314093033E+04  0.00000000000E+00 0.  1.
<mgrwt>
<rscale>  0 0.26588574E+04</rscale>
<asrwt>0</asrwt>
<pdfrwt beam="1">  1        2 0.18244579E+00 0.26588574E+04</pdfrwt>
<pdfrwt beam="2">  1       -2 0.22928177E+00 0.26588574E+04</pdfrwt>
<totfact> 0.14686538E+00</totfact>
</mgrwt>
</event>
<event>
 6    1  0.1001928E-005  0.1306330E+04  0.7818608E-02  0.9024561E-01
          1   -1    0    0  501    0  0.00000000000E+00  0.00000000000E+00  0.10512527931E+04  0.10512527931E+04  0.00000000000E+00 0. -1.
         -1   -1    0    0    0  501 -0.00000000000E+00 -0.00000000000E+00 -0.40582459948E+03  0.40582459948E+03  0.00000000000E+00 0.  1.
         23    2    1    2    0    0  0.63861869708E+03  0.10109844765E+03  0.24665198982E+03  0.69742141974E+03  0.86629649935E+02 0.  0.
         13    1    3    3    0    0  0.14057743556E+03  0.38440552953E+02  0.21667230640E+02  0.14734028771E+03  0.00000000000E+00 0.  1.
        -13    1    3    3    0    0  0.49804126153E+03  0.62657894701E+02  0.22498475919E+03  0.55008113203E+03  0.00000000000E+00 0. -1.
         22    1    1    2    0    0 -0.63861869708E+03 -0.10109844765E+03  0.39877620383E+03  0.75965597288E+03  0.00000000000E+00 0.  1.
<mgrwt>
<rscale>  0 0.13063296E+04</rscale>
<asrwt>0</asrwt>
<pdfrwt beam="1">  1        1 0.16173120E+00 0.13063296E+04</pdfrwt>
<pdfrwt beam="2">  1       -1 0.62434554E-01 0.13063296E+04</pdfrwt>
<totfact> 0.35287146E+01</totfact>
</mgrwt>
</event>
<event>
 6    1  0.1001928E-005  0.2066573E+04  0.7818608E-02  0.8576113E-01
         -1   -1    0    0    0  501 -0.00000000000E+00  0.00000000000E+00  0.45244818689E+03  0.45244818689E+03  0.00000000000E+00 0.  1.
          1   -1    0    0  501    0  0.00000000000E+00 -0.00000000000E+00 -0.23597872723E+04  0.23597872723E+04  0.00000000000E+00 0. -1.
         23    2    1    2    0    0 -0.79806308648E+03 -0.64915176784E+03 -0.10509288955E+04  0.14736761138E+04  0.94694442468E+02 0.  0.
         11    1    3    3    0    0 -0.45191178216E+03 -0.32026630624E+03 -0.60662216160E+03  0.82145311048E+03  0.00000000000E+00 0. -1.
        -11    1    3    3    0    0 -0.34615130432E+03 -0.32888546160E+03 -0.44430673385E+03  0.65222300334E+03  0.00000000000E+00 0.  1.
         22    1    1    2    0    0  0.79806308648E+03  0.64915176784E+03 -0.85641018999E+03  0.13385593454E+04  0.00000000000E+00 0.  1.
<mgrwt>
<rscale>  0 0.20665735E+04</rscale>
<asrwt>0</asrwt>
<pdfrwt beam="1">  1        1 0.36304420E+00 0.20665735E+04</pdfrwt>
<pdfrwt beam="2">  1       -1 0.69607412E-01 0.20665735E+04</pdfrwt>
<totfact> 0.32602473E+00</totfact>
</mgrwt>
</event>
<event>
 6    1  0.1001928E-005  0.2587891E+04  0.7818608E-02  0.8372326E-01
          2   -1    0    0  501    0  0.00000000000E+00  0.00000000000E+00  0.14250073473E+04  0.14250073473E+04  0.00000000000E+00 0. -1.
         -2   -1    0    0    0  501 -0.00000000000E+00 -0.00000000000E+00 -0.11749374123E+04  0.11749374123E+04  0.00000000000E+00 0.  1.
         23    2    1    2    0    0  0.10204024239E+04  0.35930687362E+03  0.83549812105E+03  0.13698843150E+04  0.90572568865E+02 0.  0.
         11    1    3    3    0    0  0.49015007564E+03  0.17129501631E+03  0.34403616667E+03  0.62285629422E+03  0.00000000000E+00 0. -1.
        -11    1    3    3    0    0  0.53025234824E+03  0.18801185730E+03  0.49146195438E+03  0.74702802083E+03  0.00000000000E+00 0.  1.
         22    1    1    2    0    0 -0.10204024239E+04 -0.35930687362E+03 -0.58542818604E+03  0.12300604445E+04  0.00000000000E+00 0.  1.
<mgrwt>
<rscale>  0 0.25878906E+04</rscale>
<asrwt>0</asrwt>
<pdfrwt beam="1">  1        2 0.21923190E+00 0.25878906E+04</pdfrwt>
<pdfrwt beam="2">  1       -2 0.18075960E+00 0.25878906E+04</pdfrwt>
<totfact> 0.22213428E+00</totfact>
</mgrwt>
</event>
<event>
 6    1  0.1001928E-005  0.3359270E+04  0.7818608E-02  0.8147976E-01
          1   -1    0    0  501    0  0.00000000000E+00  0.00000000000E+00  0.29567565599E+04  0.29567565599E+04  0.00000000000E+00 0. -1.
         -1   -1    0    0    0  501 -0.00000000000E+00 -0.00000000000E+00 -0.95414487291E+03  0.95414487291E+03  0.00000000000E+00 0.  1.
         23    2    1    2    0    0 -0.77813890464E+03 -0.78947592133E+02 -0.72684020187E+03  0.10715986151E+04  0.91071595639E+02 0.  0.
         13    1    3    3    0    0 -0.46722900814E+03 -0.24530409648E+01 -0.43195984209E+03  0.63631617034E+03  0.00000000000E+00 0. -1.
        -13    1    3    3    0    0 -0.31090989650E+03 -0.76494551169E+02 -0.29488035978E+03  0.43528244472E+03  0.00000000000E+00 0.  1.
         22    1    1    2    0    0  0.77813890464E+03  0.78947592133E+02  0.27294518889E+04  0.28393028178E+04  0.00000000000E+00 0. -1.
<mgrwt>
<rscale>  0 0.33592702E+04</rscale>
<asrwt>0</asrwt>
<pdfrwt beam="1">  1        1 0.45488562E+00 0.33592702E+04</pdfrwt>
<pdfrwt beam="2">  1       -1 0.14679152E+00 0.33592702E+04</pdfrwt>
<totfact> 0.19603644E-01</totfact>
</mgrwt>
</event>
<event>
 6    1  0.1001928E-005  0.1047576E+04  0.7818608E-02  0.9257850E-01
          1   -1    0    0  501    0  0.00000000000E+00  0.00000000000E+00  0.81803795066E+03  0.81803795066E+03  0.00000000000E+00 0. -1.
         -1   -1    0    0    0  501 -0.00000000000E+00 -0.00000000000E+00 -0.33538057895E+03  0.33538057895E+03  0.00000000000E+00 0.  1.
         23    2    1    2    0    0 -0.48755592016E+03  0.43499834606E+02  0.43481057534E+03  0.66159302517E+03  0.95089871364E+02 0.  0.
         11    1    3    3    0    0 -0.16678544147E+03 -0.19671106843E+02  0.18709292798E+03  0.25141221059E+03  0.00000000000E+00 0. -1.
        -11    1    3    3    0    0 -0.32077047869E+03  0.63170941449E+02  0.24771764735E+03  0.41018081458E+03  0.00000000000E+00 0.  1.
         22    1    1    2    0    0  0.48755592016E+03 -0.43499834606E+02  0.47846796369E+02  0.49182550444E+03  0.00000000000E+00 0.  1.
<mgrwt>
<rscale>  0 0.10475763E+04</rscale>
<asrwt>0</asrwt>
<pdfrwt beam="1">  1        1 0.12585199E+00 0.10475763E+04</pdfrwt>
<pdfrwt beam="2">  1       -1 0.51597012E-01 0.10475763E+04</pdfrwt>
<totfact> 0.80567262E+01</totfact>
</mgrwt>
</event>
<event>
 6    1  0.1001928E-005  0.3056011E+04  0.7818608E-02  0.8227915E-01
         -2   -1    0    0    0  501 -0.00000000000E+00  0.00000000000E+00  0.10072956043E+04  0.10072956043E+04  0.00000000000E+00 0.  1.
          2   -1    0    0  501    0  0.00000000000E+00 -0.00000000000E+00 -0.23178900470E+04  0.23178900470E+04  0.00000000000E+00 0. -1.
         23    2    1    2    0    0 -0.66009721216E+03  0.84386665753E+03 -0.18392853429E+04  0.21304667165E+04  0.89880989847E+02 0.  0.
         11    1    3    3    0    0 -0.29652562891E+03  0.31148378066E+03 -0.70780526203E+03  0.82821367000E+03  0.00000000000E+00 0. -1.
        -11    1    3    3    0    0 -0.36357158325E+03  0.53238287686E+03 -0.11314800809E+04  0.13022530465E+04  0.00000000000E+00 0.  1.
         22    1    1    2    0    0  0.66009721216E+03 -0.84386665753E+03  0.52869090017E+03  0.11947189348E+04  0.00000000000E+00 0.  1.
<mgrwt>
<rscale>  0 0.30560108E+04</rscale>
<asrwt>0</asrwt>
<pdfrwt beam="1">  1        2 0.35659847E+00 0.30560108E+04</pdfrwt>
<pdfrwt beam="2">  1       -2 0.15496856E+00 0.30560108E+04</pdfrwt>
<totfact> 0.10364443E+00</totfact>
</mgrwt>
</event>
<event>
 6    1  0.1001928E-005  0.2212986E+04  0.7818608E-02  0.8513043E-01
         -1   -1    0    0    0  501 -0.00000000000E+00  0.00000000000E+00  0.73311806048E+03  0.73311806048E+03  0.00000000000E+00 0.  1.
          1   -1    0    0  501    0  0.00000000000E+00 -0.00000000000E+00 -0.16700264224E+04  0.16700264224E+04  0.00000000000E+00 0. -1.
         23    2    1    2    0    0  0.63061656999E+03 -0.82182476789E+03 -0.88564579712E+03  0.13659843901E+04  0.92041667477E+02 0.  0.
         13    1    3    3    0    0  0.38571457480E+03 -0.43872968350E+03 -0.46654347376E+03  0.74761104948E+03  0.00000000000E+00 0.  1.
        -13    1    3    3    0    0  0.24490199519E+03 -0.38309508439E+03 -0.41910232336E+03  0.61837334061E+03  0.00000000000E+00 0. -1.
         22    1    1    2    0    0 -0.63061656999E+03  0.82182476789E+03 -0.51262564769E+02  0.10371600928E+04  0.00000000000E+00 0.  1.
<mgrwt>
<rscale>  0 0.22129858E+04</rscale>
<asrwt>0</asrwt>
<pdfrwt beam="1">  1        1 0.25692714E+00 0.22129858E+04</pdfrwt>
<pdfrwt beam="2">  1       -1 0.11278740E+00 0.22129858E+04</pdfrwt>
<totfact> 0.32716013E+00</totfact>
</mgrwt>
</event>
<event>
 6    1  0.1001928E-005  0.1742449E+04  0.7818608E-02  0.8737518E-01
          2   -1    0    0  501    0  0.00000000000E+00  0.00000000000E+00  0.28191980213E+04  0.28191980213E+04  0.00000000000E+00 0. -1.
         -2   -1    0    0    0  501 -0.00000000000E+00 -0.00000000000E+00 -0.26923684307E+03  0.26923684307E+03  0.00000000000E+00 0.  1.
         23    2    1    2    0    0  0.53615304643E+02 -0.36688621267E+03  0.26710102693E+04  0.26983925893E+04  0.97706771189E+02 0.  0.
         11    1    3    3    0    0 -0.22615808422E+02 -0.58266692457E+02  0.32649270361E+03  0.33242137078E+03  0.00000000000E+00 0. -1.
        -11    1    3    3    0    0  0.76231113066E+02 -0.30861952022E+03  0.23445175657E+04  0.23659712185E+04  0.00000000000E+00 0.  1.
         22    1    1    2    0    0 -0.53615304643E+02  0.36688621267E+03 -0.12104909105E+03  0.39004227512E+03  0.00000000000E+00 0.  1.
<mgrwt>
<rscale>  0 0.17424488E+04</rscale>
<asrwt>0</asrwt>
<pdfrwt beam="1">  1        2 0.43372275E+00 0.17424488E+04</pdfrwt>
<pdfrwt beam="2">  1       -2 0.41421055E-01 0.17424488E+04</pdfrwt>
<totfact> 0.11826418E+01</totfact>
</mgrwt>
</event>
<event>
 6    1  0.1001928E-005  0.2567487E+04  0.7818608E-02  0.8379330E-01
          2   -1    0    0  501    0  0.00000000000E+00  0.00000000000E+00  0.47496540073E+04  0.47496540073E+04  0.00000000000E+00 0. -1.
         -2   -1    0    0    0  501 -0.00000000000E+00 -0.00000000000E+00 -0.34697211404E+03  0.34697211404E+03  0.00000000000E+00 0.  1.
         23    2    1    2    0    0 -0.27853819473E+03 -0.10938707550E+04  0.34111649469E+04  0.35942138579E+04  0.90499760754E+02 0.  0.
         13    1    3    3    0    0 -0.25504760833E+03 -0.10223701529E+04  0.32452255491E+04  0.34120051109E+04  0.00000000000E+00 0. -1.
        -13    1    3    3    0    0 -0.23490586393E+02 -0.71500602046E+02  0.16593939782E+03  0.18220874702E+03  0.00000000000E+00 0.  1.
         22    1    1    2    0    0  0.27853819473E+03  0.10938707550E+04  0.99151694632E+03  0.15024122634E+04  0.00000000000E+00 0.  1.
<mgrwt>
<rscale>  0 0.25674871E+04</rscale>
<asrwt>0</asrwt>
<pdfrwt beam="1">  1        2 0.73071596E+00 0.25674871E+04</pdfrwt>
<pdfrwt beam="2">  1       -2 0.53380329E-01 0.25674871E+04</pdfrwt>
<totfact> 0.20003266E-01</totfact>
</mgrwt>
</event>
<event>
 6    1  0.1001928E-005  0.1158645E+04  0.7818608E-02  0.9149845E-01
          2   -1    0    0  501    0  0.00000000000E+00  0.00000000000E+00  0.16593963985E+04  0.16593963985E+04  0.00000000000E+00 0. -1.
         -2   -1    0    0    0  501 -0.00000000000E+00 -0.00000000000E+00 -0.20225093727E+03  0.20225093727E+03  0.00000000000E+00 0.  1.
         23    2    1    2    0    0 -0.49341369692E+03 -0.32147885836E+02  0.25886419710E+03  0.56535703231E+03  0.90151753031E+02 0.  0.
         13    1    3    3    0    0 -0.28028372203E+03 -0.41096498776E+02  0.19040282397E+03  0.34132260754E+03  0.00000000000E+00 0. -1.
        -13    1    3    3    0    0 -0.21312997489E+03  0.89486129399E+01  0.68461373134E+02  0.22403442477E+03  0.00000000000E+00 0.  1.
         22    1    1    2    0    0  0.49341369692E+03  0.32147885836E+02  0.11982812642E+04  0.12962903035E+04  0.00000000000E+00 0. -1.
<mgrwt>
<rscale>  0 0.11586449E+04</rscale>
<asrwt>0</asrwt>
<pdfrwt beam="1">  1        2 0.25529174E+00 0.11586449E+04</pdfrwt>
<pdfrwt beam="2">  1       -2 0.31115530E-01 0.11586449E+04</pdfrwt>
<totfact> 0.97856757E+01</totfact>
</mgrwt>
</event>
<event>
 6    1  0.1001928E-005  0.1302076E+04  0.7818608E-02  0.9027921E-01
          1   -1    0    0  501    0  0.00000000000E+00  0.00000000000E+00  0.14568529026E+04  0.14568529026E+04  0.00000000000E+00 0. -1.
         -1   -1    0    0    0  501 -0.00000000000E+00 -0.00000000000E+00 -0.29093558116E+03  0.29093558116E+03  0.00000000000E+00 0.  1.
         23    2    1    2    0    0  0.92227089804E+02 -0.39784488988E+03 -0.88464031719E+02  0.42859972864E+03  0.95317626840E+02 0.  0.
         11    1    3    3    0    0  0.17241240004E+02 -0.76259085969E+01 -0.15916615034E+02  0.24672929962E+02  0.00000000000E+00 0. -1.
        -11    1    3    3    0    0  0.74985849800E+02 -0.39021898128E+03 -0.72547416685E+02  0.40392679868E+03  0.00000000000E+00 0.  1.
         22    1    1    2    0    0 -0.92227089804E+02  0.39784488988E+03  0.12543813532E+04  0.13191887552E+04  0.00000000000E+00 0. -1.
<mgrwt>
<rscale>  0 0.13020758E+04</rscale>
<asrwt>0</asrwt>
<pdfrwt beam="1">  1        1 0.22413121E+00 0.13020758E+04</pdfrwt>
<pdfrwt beam="2">  1       -1 0.44759321E-01 0.13020758E+04</pdfrwt>
<totfact> 0.34058672E+01</totfact>
</mgrwt>
</event>
<event>
 6    1  0.1001928E-005  0.2354582E+04  0.7818608E-02  0.8456706E-01
          2   -1    0    0  501    0  0.00000000000E+00  0.00000000000E+00  0.10861800255E+04  0.10861800255E+04  0.00000000000E+00 0. -1.
         -2   -1    0    0    0  501 -0.00000000000E+00 -0.00000000000E+00 -0.12760445227E+04  0.12760445227E+04  0.00000000000E+00 0.  1.
         23    2    1    2    0    0 -0.15280777653E+03  0.73504084043E+03 -0.10023690850E+04  0.12559700752E+04  0.95298445150E+02 0.  0.
         13    1    3    3    0    0 -0.21484469621E+02  0.24936790933E+03 -0.27866116602E+03  0.37456372233E+03  0.00000000000E+00 0.  1.
        -13    1    3    3    0    0 -0.13132330691E+03  0.48567293110E+03 -0.72370791897E+03  0.88140635290E+03  0.00000000000E+00 0. -1.
         22    1    1    2    0    0  0.15280777653E+03 -0.73504084043E+03  0.81250458782E+03  0.11062544729E+04  0.00000000000E+00 0. -1.
<mgrwt>
<rscale>  0 0.23545820E+04</rscale>
<asrwt>0</asrwt>
<pdfrwt beam="1">  1        2 0.16710462E+00 0.23545820E+04</pdfrwt>
<pdfrwt beam="2">  1       -2 0.19631454E+00 0.23545820E+04</pdfrwt>
<totfact> 0.28206563E+00</totfact>
</mgrwt>
</event>
<event>
 6    1  0.1001928E-005  0.1091603E+04  0.7818608E-02  0.9213415E-01
          1   -1    0    0  501    0  0.00000000000E+00  0.00000000000E+00  0.48317455020E+03  0.48317455020E+03  0.00000000000E+00 0. -1.
         -1   -1    0    0    0  501 -0.00000000000E+00 -0.00000000000E+00 -0.61654585104E+03  0.61654585104E+03  0.00000000000E+00 0.  1.
         23    2    1    2    0    0 -0.76081434830E+02 -0.14670716237E+03 -0.58713451468E+03  0.61679967230E+03  0.91670721632E+02 0.  0.
         13    1    3    3    0    0 -0.93502484431E+02 -0.10288919476E+03 -0.48040040745E+03  0.50011343960E+03  0.00000000000E+00 0.  1.
        -13    1    3    3    0    0  0.17421049601E+02 -0.43817967615E+02 -0.10673410722E+03  0.11668623269E+03  0.00000000000E+00 0. -1.
         22    1    1    2    0    0  0.76081434830E+02  0.14670716237E+03  0.45376321383E+03  0.48292072894E+03  0.00000000000E+00 0. -1.
<mgrwt>
<rscale>  0 0.10916030E+04</rscale>
<asrwt>0</asrwt>
<pdfrwt beam="1">  1        1 0.74334546E-01 0.10916030E+04</pdfrwt>
<pdfrwt beam="2">  1       -1 0.94853208E-01 0.10916030E+04</pdfrwt>
<totfact> 0.49806887E+01</totfact>
</mgrwt>
</event>
<event>
 6    1  0.1001928E-005  0.3034519E+04  0.7818608E-02  0.8233942E-01
         -2   -1    0    0    0  501 -0.00000000000E+00  0.00000000000E+00  0.12365574958E+04  0.12365574958E+04  0.00000000000E+00 0.  1.
          2   -1    0    0  501    0  0.00000000000E+00 -0.00000000000E+00 -0.18616811339E+04  0.18616811339E+04  0.00000000000E+00 0. -1.
         23    2    1    2    0    0  0.96448278575E+03  0.87175689313E+03 -0.11089010996E+04  0.17110732622E+04  0.89010871034E+02 0.  0.
         11    1    3    3    0    0  0.54808622632E+03  0.43556995261E+03 -0.59600834423E+03  0.91942680050E+03  0.00000000000E+00 0.  1.
        -11    1    3    3    0    0  0.41639655943E+03  0.43618694052E+03 -0.51289275536E+03  0.79164646168E+03  0.00000000000E+00 0. -1.
         22    1    1    2    0    0 -0.96448278575E+03 -0.87175689313E+03  0.48377746153E+03  0.13871653676E+04  0.00000000000E+00 0.  1.
<mgrwt>
<rscale>  0 0.30345186E+04</rscale>
<asrwt>0</asrwt>
<pdfrwt beam="1">  1        2 0.28641248E+00 0.30345186E+04</pdfrwt>
<pdfrwt beam="2">  1       -2 0.19023962E+00 0.30345186E+04</pdfrwt>
<totfact> 0.10513246E+00</totfact>
</mgrwt>
</event>
<event>
 6    1  0.1001928E-005  0.2864851E+04  0.7818608E-02  0.8283413E-01
         -1   -1    0    0    0  501 -0.00000000000E+00  0.00000000000E+00  0.11420972580E+04  0.11420972580E+04  0.00000000000E+00 0.  1.
          1   -1    0    0  501    0  0.00000000000E+00 -0.00000000000E+00 -0.17965567788E+04  0.17965567788E+04  0.00000000000E+00 0. -1.
         23    2    1    2    0    0 -0.54575429594E+02 -0.59222479930E+03  0.10074055479E+04  0.11735749460E+04  0.93292687401E+02 0.  0.
         13    1    3    3    0    0 -0.65939909752E+02 -0.38979323557E+03  0.72716909852E+03  0.82768456313E+03  0.00000000000E+00 0. -1.
        -13    1    3    3    0    0  0.11364480158E+02 -0.20243156373E+03  0.28023644933E+03  0.34589038284E+03  0.00000000000E+00 0.  1.
         22    1    1    2    0    0  0.54575429594E+02  0.59222479930E+03 -0.16618650686E+04  0.17650790908E+04  0.00000000000E+00 0. -1.
<mgrwt>
<rscale>  0 0.28648508E+04</rscale>
<asrwt>0</asrwt>
<pdfrwt beam="1">  1        1 0.27639335E+00 0.28648508E+04</pdfrwt>
<pdfrwt beam="2">  1       -1 0.17570727E+00 0.28648508E+04</pdfrwt>
<totfact> 0.78826854E-01</totfact>
</mgrwt>
</event>
<event>
 6    1  0.1001928E-005  0.1107837E+04  0.7818608E-02  0.9197587E-01
         -1   -1    0    0    0  501 -0.00000000000E+00  0.00000000000E+00  0.27060141160E+03  0.27060141160E+03  0.00000000000E+00 0.  1.
          1   -1    0    0  501    0  0.00000000000E+00 -0.00000000000E+00 -0.11338663425E+04  0.11338663425E+04  0.00000000000E+00 0. -1.
         23    2    1    2    0    0  0.72564892424E+02 -0.52136948048E+03 -0.63719687206E+03  0.83158158217E+03  0.91740259714E+02 0.  0.
         11    1    3    3    0    0  0.80361634156E+02 -0.24830813965E+03 -0.30089520734E+03  0.39831250327E+03  0.00000000000E+00 0.  1.
        -11    1    3    3    0    0 -0.77967417323E+01 -0.27306134083E+03 -0.33630166472E+03  0.43326907890E+03  0.00000000000E+00 0. -1.
         22    1    1    2    0    0 -0.72564892424E+02  0.52136948048E+03 -0.22606805889E+03  0.57288617197E+03  0.00000000000E+00 0.  1.
<mgrwt>
<rscale>  0 0.11078372E+04</rscale>
<asrwt>0</asrwt>
<pdfrwt beam="1">  1        1 0.17444098E+00 0.11078372E+04</pdfrwt>
<pdfrwt beam="2">  1       -1 0.41630986E-01 0.11078372E+04</pdfrwt>
<totfact> 0.67358228E+01</totfact>
</mgrwt>
</event>
<event>
 6    1  0.1145429E-005  0.4499515E+04  0.7818608E-02  0.7910722E-01
         -2   -1    0    0    0  501 -0.00000000000E+00  0.00000000000E+00  0.15653642593E+04  0.15653642593E+04  0.00000000000E+00 0.  1.
          2   -1    0    0  501    0  0.00000000000E+00 -0.00000000000E+00 -0.32333738001E+04  0.32333738001E+04  0.00000000000E+00 0. -1.
         23    2    1    2    0    0 -0.11955952357E+04 -0.16429778926E+04  0.19324865298E+03  0.20431788808E+04  0.91709180294E+02 0.  0.
         11    1    3    3    0    0 -0.22350380915E+03 -0.29154264882E+03  0.69306777682E+02  0.37383752917E+03  0.00000000000E+00 0.  1.
        -11    1    3    3    0    0 -0.97209142656E+03 -0.13514352438E+04  0.12394187529E+03  0.16693413516E+04  0.00000000000E+00 0. -1.
         22    1    1    2    0    0  0.11955952357E+04  0.16429778926E+04 -0.18612581937E+04  0.27555591786E+04  0.00000000000E+00 0. -1.
<mgrwt>
<rscale>  0 0.44995145E+04</rscale>
<asrwt>0</asrwt>
<pdfrwt beam="1">  1        2 0.49744212E+00 0.44995145E+04</pdfrwt>
<pdfrwt beam="2">  1       -2 0.24082527E+00 0.44995145E+04</pdfrwt>
<totfact> 0.68328659E-02</totfact>
</mgrwt>
</event>
<event>
 6    1  0.1001928E-005  0.2219725E+04  0.7818608E-02  0.8510263E-01
          2   -1    0    0  501    0  0.00000000000E+00  0.00000000000E+00  0.12194133824E+04  0.12194133824E+04  0.00000000000E+00 0. -1.
         -2   -1    0    0    0  501 -0.00000000000E+00 -0.00000000000E+00 -0.10101539940E+04  0.10101539940E+04  0.00000000000E+00 0.  1.
         23    2    1    2    0    0  0.60789933395E+03 -0.63258572667E+03 -0.57502784249E+03  0.10527866991E+04  0.89423220420E+02 0.  0.
         13    1    3    3    0    0  0.28901957257E+03 -0.23826549794E+03 -0.25489380507E+03  0.45307131084E+03  0.00000000000E+00 0. -1.
        -13    1    3    3    0    0  0.31887976138E+03 -0.39432022873E+03 -0.32013403742E+03  0.59971538826E+03  0.00000000000E+00 0.  1.
         22    1    1    2    0    0 -0.60789933395E+03  0.63258572667E+03  0.78428723096E+03  0.11767806773E+04  0.00000000000E+00 0. -1.
<mgrwt>
<rscale>  0 0.22197255E+04</rscale>
<asrwt>0</asrwt>
<pdfrwt beam="1">  1        2 0.18760206E+00 0.22197255E+04</pdfrwt>
<pdfrwt beam="2">  1       -2 0.15540831E+00 0.22197255E+04</pdfrwt>
<totfact> 0.45878749E+00</totfact>
</mgrwt>
</event>
<event>
 6    1  0.1001928E-005  0.1643282E+04  0.7818608E-02  0.8794391E-01
          1   -1    0    0  501    0  0.00000000000E+00  0.00000000000E+00  0.27654157403E+04  0.27654157403E+04  0.00000000000E+00 0.  1.
         -1   -1    0    0    0  501 -0.00000000000E+00 -0.00000000000E+00 -0.24412029918E+03  0.24412029918E+03  0.00000000000E+00 0. -1.
         23    2    1    2    0    0  0.35412481447E+03  0.68835693481E+03  0.77406862577E+03  0.10985045907E+04  0.91051877838E+02 0.  0.
         11    1    3    3    0    0  0.11824914660E+03  0.25513150559E+03  0.34194841967E+03  0.44272301446E+03  0.00000000000E+00 0. -1.
        -11    1    3    3    0    0  0.23587566787E+03  0.43322542922E+03  0.43212020611E+03  0.65578157624E+03  0.00000000000E+00 0.  1.
         22    1    1    2    0    0 -0.35412481447E+03 -0.68835693481E+03  0.17472268154E+04  0.19110314488E+04  0.00000000000E+00 0. -1.
<mgrwt>
<rscale>  0 0.16432822E+04</rscale>
<asrwt>0</asrwt>
<pdfrwt beam="1">  1        1 0.42544856E+00 0.16432822E+04</pdfrwt>
<pdfrwt beam="2">  1       -1 0.37556971E-01 0.16432822E+04</pdfrwt>
<totfact> 0.57798938E+00</totfact>
</mgrwt>
</event>
<event>
 6    1  0.1001928E-005  0.1339083E+04  0.7818608E-02  0.8999134E-01
          2   -1    0    0  501    0  0.00000000000E+00  0.00000000000E+00  0.39344671509E+04  0.39344671509E+04  0.00000000000E+00 0. -1.
         -2   -1    0    0    0  501 -0.00000000000E+00 -0.00000000000E+00 -0.11393811821E+03  0.11393811821E+03  0.00000000000E+00 0.  1.
         23    2    1    2    0    0  0.54747898083E+03  0.21250025404E+03  0.28718164792E+04  0.29326341897E+04  0.90132170335E+02 0.  0.
         13    1    3    3    0    0  0.44020779821E+03  0.13093665635E+03  0.22450005888E+04  0.22914962267E+04  0.00000000000E+00 0.  1.
        -13    1    3    3    0    0  0.10727118262E+03  0.81563597682E+02  0.62681589044E+03  0.64113796300E+03  0.00000000000E+00 0. -1.
         22    1    1    2    0    0 -0.54747898083E+03 -0.21250025404E+03  0.94871255348E+03  0.11157710794E+04  0.00000000000E+00 0.  1.
<mgrwt>
<rscale>  0 0.13390829E+04</rscale>
<asrwt>0</asrwt>
<pdfrwt beam="1">  1        2 0.60530254E+00 0.13390829E+04</pdfrwt>
<pdfrwt beam="2">  1       -2 0.17528944E-01 0.13390829E+04</pdfrwt>
<totfact> 0.10457914E+01</totfact>
</mgrwt>
</event>
<event>
 6    1  0.1001928E-005  0.2529099E+04  0.7818608E-02  0.8392692E-01
         -2   -1    0    0    0  501 -0.00000000000E+00  0.00000000000E+00  0.65624022901E+03  0.65624022901E+03  0.00000000000E+00 0.  1.
          2   -1    0    0  501    0  0.00000000000E+00 -0.00000000000E+00 -0.24367376335E+04  0.24367376335E+04  0.00000000000E+00 0. -1.
         23    2    1    2    0    0  0.32835873375E+03 -0.76174013227E+03 -0.20560064731E+04  0.22189225244E+04  0.91580920137E+02 0.  0.
         11    1    3    3    0    0  0.20969407468E+03 -0.56708359640E+03 -0.14231917319E+04  0.15462956108E+04  0.00000000000E+00 0.  1.
        -11    1    3    3    0    0  0.11866465908E+03 -0.19465653587E+03 -0.63281474122E+03  0.67262691365E+03  0.00000000000E+00 0. -1.
         22    1    1    2    0    0 -0.32835873375E+03  0.76174013227E+03  0.27550906860E+03  0.87405533808E+03  0.00000000000E+00 0.  1.
<mgrwt>
<rscale>  0 0.25290989E+04</rscale>
<asrwt>0</asrwt>
<pdfrwt beam="1">  1        2 0.37488272E+00 0.25290989E+04</pdfrwt>
<pdfrwt beam="2">  1       -2 0.10096003E+00 0.25290989E+04</pdfrwt>
<totfact> 0.27200640E+00</totfact>
</mgrwt>
</event>
<event>
 6    1  0.1001928E-005  0.2801168E+03  0.7818608E-02  0.1095625E+00
         -1   -1    0    0    0  501 -0.00000000000E+00  0.00000000000E+00  0.40037545363E+02  0.40037545363E+02  0.00000000000E+00 0.  1.
          1   -1    0    0  501    0  0.00000000000E+00 -0.00000000000E+00 -0.48994902460E+03  0.48994902460E+03  0.00000000000E+00 0. -1.
         23    2    1    2    0    0 -0.59237277060E+02 -0.86956665699E+02 -0.12038225309E+03  0.18406746441E+03  0.91205415912E+02 0.  0.
         13    1    3    3    0    0  0.22336361704E+02 -0.13144922240E+02 -0.87924847611E+01  0.27368043831E+02  0.00000000000E+00 0.  1.
        -13    1    3    3    0    0 -0.81573638763E+02 -0.73811743459E+02 -0.11158976833E+03  0.15669942058E+03  0.00000000000E+00 0. -1.
         22    1    1    2    0    0  0.59237277060E+02  0.86956665699E+02 -0.32952922614E+03  0.34591910555E+03  0.00000000000E+00 0. -1.
<mgrwt>
<rscale>  0 0.28011681E+03</rscale>
<asrwt>0</asrwt>
<pdfrwt beam="1">  1        1 0.75376772E-01 0.28011681E+03</pdfrwt>
<pdfrwt beam="2">  1       -1 0.61596224E-02 0.28011681E+03</pdfrwt>
<totfact> 0.59338164E+03</totfact>
</mgrwt>
</event>
<event>
 6    1  0.1001928E-005  0.3089979E+04  0.7818608E-02  0.8218493E-01
          1   -1    0    0  501    0  0.00000000000E+00  0.00000000000E+00  0.16378459251E+04  0.16378459251E+04  0.00000000000E+00 0. -1.
         -1   -1    0    0    0  501 -0.00000000000E+00 -0.00000000000E+00 -0.14573977495E+04  0.14573977495E+04  0.00000000000E+00 0.  1.
         23    2    1    2    0    0 -0.35355904086E+03 -0.33369240008E+03 -0.13772747912E+04  0.14634178706E+04  0.91385995427E+02 0.  0.
         13    1    3    3    0    0 -0.20656214938E+03 -0.16754125047E+03 -0.87023419888E+03  0.90997008361E+03  0.00000000000E+00 0. -1.
        -13    1    3    3    0    0 -0.14699689148E+03 -0.16615114961E+03 -0.50704059232E+03  0.55344778695E+03  0.00000000000E+00 0.  1.
         22    1    1    2    0    0  0.35355904086E+03  0.33369240008E+03  0.15577229669E+04  0.16318258040E+04  0.00000000000E+00 0. -1.
<mgrwt>
<rscale>  0 0.30899793E+04</rscale>
<asrwt>0</asrwt>
<pdfrwt beam="1">  1        1 0.25197630E+00 0.30899793E+04</pdfrwt>
<pdfrwt beam="2">  1       -1 0.22421504E+00 0.30899793E+04</pdfrwt>
<totfact> 0.45784647E-01</totfact>
</mgrwt>
</event>
<event>
 6    1  0.1001928E-005  0.2623179E+04  0.7818608E-02  0.8360370E-01
          1   -1    0    0  501    0  0.00000000000E+00  0.00000000000E+00  0.17727849198E+04  0.17727849198E+04  0.00000000000E+00 0. -1.
         -1   -1    0    0    0  501 -0.00000000000E+00 -0.00000000000E+00 -0.97037536186E+03  0.97037536186E+03  0.00000000000E+00 0.  1.
         23    2    1    2    0    0  0.44448212909E+03 -0.11456795822E+04 -0.72899459111E+02  0.12344151264E+04  0.91215705338E+02 0.  0.
         13    1    3    3    0    0  0.36885984291E+03 -0.84927872937E+03 -0.40486451885E+02  0.92680693602E+03  0.00000000000E+00 0. -1.
        -13    1    3    3    0    0  0.75622286174E+02 -0.29640085285E+03 -0.32413007226E+02  0.30760819036E+03  0.00000000000E+00 0.  1.
         22    1    1    2    0    0 -0.44448212909E+03  0.11456795822E+04  0.87530901702E+03  0.15087451552E+04  0.00000000000E+00 0. -1.
<mgrwt>
<rscale>  0 0.26231788E+04</rscale>
<asrwt>0</asrwt>
<pdfrwt beam="1">  1        1 0.27273614E+00 0.26231788E+04</pdfrwt>
<pdfrwt beam="2">  1       -1 0.14928852E+00 0.26231788E+04</pdfrwt>
<totfact> 0.13206060E+00</totfact>
</mgrwt>
</event>
<event>
 6    1  0.1001928E-005  0.3058383E+04  0.7818608E-02  0.8227253E-01
         -2   -1    0    0    0  501 -0.00000000000E+00  0.00000000000E+00  0.17678848712E+04  0.17678848712E+04  0.00000000000E+00 0.  1.
          2   -1    0    0  501    0  0.00000000000E+00 -0.00000000000E+00 -0.13227258461E+04  0.13227258461E+04  0.00000000000E+00 0. -1.
         23    2    1    2    0    0 -0.28424037539E+03 -0.26787665830E+03 -0.12698778477E+04  0.13316616077E+04  0.90456587279E+02 0.  0.
         13    1    3    3    0    0 -0.24983694236E+03 -0.25928938387E+03 -0.10782777196E+04  0.11368079534E+04  0.00000000000E+00 0. -1.
        -13    1    3    3    0    0 -0.34403433028E+02 -0.85872744238E+01 -0.19160012813E+03  0.19485365428E+03  0.00000000000E+00 0.  1.
         22    1    1    2    0    0  0.28424037539E+03  0.26787665830E+03  0.17150368729E+04  0.17589491096E+04  0.00000000000E+00 0.  1.
<mgrwt>
<rscale>  0 0.30583832E+04</rscale>
<asrwt>0</asrwt>
<pdfrwt beam="1">  1        2 0.20349628E+00 0.30583832E+04</pdfrwt>
<pdfrwt beam="2">  1       -2 0.27198229E+00 0.30583832E+04</pdfrwt>
<totfact> 0.64387487E-01</totfact>
</mgrwt>
</event>
<event>
 6    1  0.1001928E-005  0.3618650E+03  0.7818608E-02  0.1057848E+00
         -3   -1    0    0    0  501 -0.00000000000E+00  0.00000000000E+00  0.77279382302E+02  0.77279382302E+02  0.00000000000E+00 0.  1.
          3   -1    0    0  501    0  0.00000000000E+00 -0.00000000000E+00 -0.42361326066E+03  0.42361326066E+03  0.00000000000E+00 0. -1.
         23    2    1    2    0    0  0.10084079194E+03  0.89391546001E+02 -0.32644552198E+03  0.36467494758E+03  0.90892380106E+02 0.  0.
         13    1    3    3    0    0  0.44188950431E+02  0.95801848766E+02 -0.20853209309E+03  0.23370128672E+03  0.00000000000E+00 0. -1.
        -13    1    3    3    0    0  0.56651841504E+02 -0.64103027651E+01 -0.11791342889E+03  0.13097366086E+03  0.00000000000E+00 0.  1.
         22    1    1    2    0    0 -0.10084079194E+03 -0.89391546001E+02 -0.19888356379E+02  0.13621769538E+03  0.00000000000E+00 0.  1.
<mgrwt>
<rscale>  0 0.36186501E+03</rscale>
<asrwt>0</asrwt>
<pdfrwt beam="1">  1        3 0.65171271E-01 0.36186501E+03</pdfrwt>
<pdfrwt beam="2">  1       -3 0.11889136E-01 0.36186501E+03</pdfrwt>
<totfact> 0.33148155E+02</totfact>
</mgrwt>
</event>
<event>
 6    1  0.1001928E-005  0.2642659E+04  0.7818608E-02  0.8353854E-01
          3   -1    0    0  501    0  0.00000000000E+00  0.00000000000E+00  0.87451932291E+03  0.87451932291E+03  0.00000000000E+00 0. -1.
         -3   -1    0    0    0  501 -0.00000000000E+00 -0.00000000000E+00 -0.19964247994E+04  0.19964247994E+04  0.00000000000E+00 0.  1.
         23    2    1    2    0    0 -0.74331654297E+03  0.93577023134E+03 -0.11700054800E+04  0.16749094157E+04  0.90682517113E+02 0.  0.
         13    1    3    3    0    0 -0.18709900301E+03  0.26370352907E+03 -0.36834666551E+03  0.49012738566E+03  0.00000000000E+00 0. -1.
        -13    1    3    3    0    0 -0.55621753995E+03  0.67206670227E+03 -0.80165881444E+03  0.11847820301E+04  0.00000000000E+00 0.  1.
         22    1    1    2    0    0  0.74331654297E+03 -0.93577023134E+03  0.48100003494E+02  0.11960347065E+04  0.00000000000E+00 0. -1.
<mgrwt>
<rscale>  0 0.26426593E+04</rscale>
<asrwt>0</asrwt>
<pdfrwt beam="1">  1        3 0.13454143E+00 0.26426593E+04</pdfrwt>
<pdfrwt beam="2">  1       -3 0.30714228E+00 0.26426593E+04</pdfrwt>
<totfact> 0.33936761E-02</totfact>
</mgrwt>
</event>
<event>
 6    1  0.1001928E-005  0.2355334E+04  0.7818608E-02  0.8456418E-01
          2   -1    0    0  501    0  0.00000000000E+00  0.00000000000E+00  0.46803696768E+04  0.46803696768E+04  0.00000000000E+00 0. -1.
         -2   -1    0    0    0  501 -0.00000000000E+00 -0.00000000000E+00 -0.29632264355E+03  0.29632264355E+03  0.00000000000E+00 0.  1.
         23    2    1    2    0    0  0.10257422089E+04 -0.20975400702E+03  0.33264434807E+04  0.34885158870E+04  0.91504319480E+02 0.  0.
         13    1    3    3    0    0  0.21648579314E+03 -0.10202615340E+02  0.74071127540E+03  0.77176640604E+03  0.00000000000E+00 0. -1.
        -13    1    3    3    0    0  0.80925641577E+03 -0.19955139168E+03  0.25857322053E+04  0.27167494809E+04  0.00000000000E+00 0.  1.
         22    1    1    2    0    0 -0.10257422089E+04  0.20975400702E+03  0.10576035525E+04  0.14881764334E+04  0.00000000000E+00 0.  1.
<mgrwt>
<rscale>  0 0.23553340E+04</rscale>
<asrwt>0</asrwt>
<pdfrwt beam="1">  1        2 0.72005682E+00 0.23553340E+04</pdfrwt>
<pdfrwt beam="2">  1       -2 0.45588102E-01 0.23553340E+04</pdfrwt>
<totfact> 0.33504502E-01</totfact>
</mgrwt>
</event>
<event>
 6    1  0.1001928E-005  0.4583474E+04  0.7818608E-02  0.7896184E-01
          1   -1    0    0  501    0  0.00000000000E+00  0.00000000000E+00  0.43578097951E+04  0.43578097951E+04  0.00000000000E+00 0. -1.
         -1   -1    0    0    0  501 -0.00000000000E+00 -0.00000000000E+00 -0.12052060221E+04  0.12052060221E+04  0.00000000000E+00 0.  1.
         23    2    1    2    0    0 -0.15670218850E+03  0.67441796755E+03  0.42272942581E+04  0.42845969464E+04  0.91427991204E+02 0.  0.
         11    1    3    3    0    0 -0.75595680874E+02  0.21223110212E+03  0.15899401579E+04  0.16058226718E+04  0.00000000000E+00 0.  1.
        -11    1    3    3    0    0 -0.81106507623E+02  0.46218686543E+03  0.26373541002E+04  0.26787742745E+04  0.00000000000E+00 0. -1.
         22    1    1    2    0    0  0.15670218850E+03 -0.67441796755E+03 -0.10746904851E+04  0.12784188709E+04  0.00000000000E+00 0.  1.
<mgrwt>
<rscale>  0 0.45834741E+04</rscale>
<asrwt>0</asrwt>
<pdfrwt beam="1">  1        1 0.67043227E+00 0.45834741E+04</pdfrwt>
<pdfrwt beam="2">  1       -1 0.18541631E+00 0.45834741E+04</pdfrwt>
<totfact> 0.63172860E-03</totfact>
</mgrwt>
</event>
<event>
 6    1  0.1001928E-005  0.1913246E+04  0.7818608E-02  0.8648291E-01
          1   -1    0    0  501    0  0.00000000000E+00  0.00000000000E+00  0.13585885164E+04  0.13585885164E+04  0.00000000000E+00 0. -1.
         -1   -1    0    0    0  501 -0.00000000000E+00 -0.00000000000E+00 -0.67358722583E+03  0.67358722583E+03  0.00000000000E+00 0.  1.
         23    2    1    2    0    0  0.34496508884E+03  0.82773303094E+03 -0.38110890149E+01  0.90142140229E+03  0.91668626502E+02 0.  0.
         11    1    3    3    0    0  0.14966553102E+03  0.36034199714E+03  0.43787933394E+02  0.39263661214E+03  0.00000000000E+00 0. -1.
        -11    1    3    3    0    0  0.19529955782E+03  0.46739103379E+03 -0.47599022409E+02  0.50878479015E+03  0.00000000000E+00 0.  1.
         22    1    1    2    0    0 -0.34496508884E+03 -0.82773303094E+03  0.68881237959E+03  0.11307543399E+04  0.00000000000E+00 0. -1.
<mgrwt>
<rscale>  0 0.19132463E+04</rscale>
<asrwt>0</asrwt>
<pdfrwt beam="1">  1        1 0.20901362E+00 0.19132463E+04</pdfrwt>
<pdfrwt beam="2">  1       -1 0.10362880E+00 0.19132463E+04</pdfrwt>
<totfact> 0.67415922E+00</totfact>
</mgrwt>
</event>
<event>
 6    1  0.1001928E-005  0.2452702E+04  0.7818608E-02  0.8420032E-01
         -1   -1    0    0    0  501 -0.00000000000E+00  0.00000000000E+00  0.21004126794E+04  0.21004126794E+04  0.00000000000E+00 0.  1.
          1   -1    0    0  501    0  0.00000000000E+00 -0.00000000000E+00 -0.71601990442E+03  0.71601990442E+03  0.00000000000E+00 0. -1.
         23    2    1    2    0    0 -0.74091433189E+03  0.94619023467E+03  0.42330168849E+03  0.12776258760E+04  0.94411610910E+02 0.  0.
         11    1    3    3    0    0 -0.28491151573E+03  0.42807642349E+03  0.20701333305E+03  0.55432708413E+03  0.00000000000E+00 0.  1.
        -11    1    3    3    0    0 -0.45600281616E+03  0.51811381118E+03  0.21628835544E+03  0.72329879192E+03  0.00000000000E+00 0. -1.
         22    1    1    2    0    0  0.74091433189E+03 -0.94619023467E+03  0.96109108654E+03  0.15388067078E+04  0.00000000000E+00 0. -1.
<mgrwt>
<rscale>  0 0.24527024E+04</rscale>
<asrwt>0</asrwt>
<pdfrwt beam="1">  1        1 0.11015691E+00 0.24527024E+04</pdfrwt>
<pdfrwt beam="2">  1       -1 0.32314041E+00 0.24527024E+04</pdfrwt>
<totfact> 0.54820945E-01</totfact>
</mgrwt>
</event>
<event>
 6    1  0.1001928E-005  0.2586145E+04  0.7818608E-02  0.8372923E-01
         -1   -1    0    0    0  501 -0.00000000000E+00  0.00000000000E+00  0.55955233027E+03  0.55955233027E+03  0.00000000000E+00 0.  1.
          1   -1    0    0  501    0  0.00000000000E+00 -0.00000000000E+00 -0.29881690729E+04  0.29881690729E+04  0.00000000000E+00 0. -1.
         23    2    1    2    0    0 -0.10550954760E+04 -0.47448689329E+03 -0.20030208304E+04  0.23150429553E+04  0.94695103325E+02 0.  0.
         13    1    3    3    0    0 -0.60217863364E+03 -0.22936682563E+03 -0.11689154059E+04  0.13347627031E+04  0.00000000000E+00 0. -1.
        -13    1    3    3    0    0 -0.45291684234E+03 -0.24512006766E+03 -0.83410542450E+03  0.98028025219E+03  0.00000000000E+00 0.  1.
         22    1    1    2    0    0  0.10550954760E+04  0.47448689329E+03 -0.42559591226E+03  0.12326784479E+04  0.00000000000E+00 0.  1.
<mgrwt>
<rscale>  0 0.25861454E+04</rscale>
<asrwt>0</asrwt>
<pdfrwt beam="1">  1        1 0.45971833E+00 0.25861454E+04</pdfrwt>
<pdfrwt beam="2">  1       -1 0.86084972E-01 0.25861454E+04</pdfrwt>
<totfact> 0.71591276E-01</totfact>
</mgrwt>
</event>
<event>
 6    1  0.1001928E-005  0.5747801E+04  0.7818608E-02  0.7722483E-01
         -2   -1    0    0    0  501 -0.00000000000E+00  0.00000000000E+00  0.32645095232E+04  0.32645095232E+04  0.00000000000E+00 0.  1.
          2   -1    0    0  501    0  0.00000000000E+00 -0.00000000000E+00 -0.25300287865E+04  0.25300287865E+04  0.00000000000E+00 0. -1.
         23    2    1    2    0    0 -0.61583080805E+03 -0.47732736536E+03  0.31553630455E+04  0.32513591672E+04  0.89058899224E+02 0.  0.
         13    1    3    3    0    0 -0.21633602855E+03 -0.18874401569E+03  0.13303071265E+04  0.13609344700E+04  0.00000000000E+00 0. -1.
        -13    1    3    3    0    0 -0.39949477950E+03 -0.28858334967E+03  0.18250559189E+04  0.18904246972E+04  0.00000000000E+00 0.  1.
         22    1    1    2    0    0  0.61583080805E+03  0.47732736536E+03 -0.24208823088E+04  0.25431791425E+04  0.00000000000E+00 0. -1.
<mgrwt>
<rscale>  0 0.57478006E+04</rscale>
<asrwt>0</asrwt>
<pdfrwt beam="1">  1        2 0.38923520E+00 0.57478006E+04</pdfrwt>
<pdfrwt beam="2">  1       -2 0.50223224E+00 0.57478006E+04</pdfrwt>
<totfact> 0.37071584E-03</totfact>
</mgrwt>
</event>
<event>
 6    1  0.1001928E-005  0.3938360E+04  0.7818608E-02  0.8017098E-01
          2   -1    0    0  501    0  0.00000000000E+00  0.00000000000E+00  0.46085285472E+04  0.46085285472E+04  0.00000000000E+00 0. -1.
         -2   -1    0    0    0  501 -0.00000000000E+00 -0.00000000000E+00 -0.84141187932E+03  0.84141187932E+03  0.00000000000E+00 0.  1.
         23    2    1    2    0    0  0.81285713415E+03 -0.15232103451E+04  0.57705537246E+03  0.18226277098E+04  0.89846478389E+02 0.  0.
         11    1    3    3    0    0  0.71070994110E+03 -0.12864006322E+04  0.46546660188E+03  0.15416206940E+04  0.00000000000E+00 0. -1.
        -11    1    3    3    0    0  0.10214719305E+03 -0.23680971297E+03  0.11158877057E+03  0.28100701579E+03  0.00000000000E+00 0.  1.
         22    1    1    2    0    0 -0.81285713415E+03  0.15232103451E+04  0.31900612954E+04  0.36273127166E+04  0.00000000000E+00 0. -1.
<mgrwt>
<rscale>  0 0.39383604E+04</rscale>
<asrwt>0</asrwt>
<pdfrwt beam="1">  1        2 0.70900438E+00 0.39383604E+04</pdfrwt>
<pdfrwt beam="2">  1       -2 0.12944798E+00 0.39383604E+04</pdfrwt>
<totfact> 0.33073553E-02</totfact>
</mgrwt>
</event>
<event>
 6    1  0.1001928E-005  0.1067500E+04  0.7818608E-02  0.9237461E-01
          1   -1    0    0  501    0  0.00000000000E+00  0.00000000000E+00  0.61213169922E+03  0.61213169922E+03  0.00000000000E+00 0. -1.
         -1   -1    0    0    0  501 -0.00000000000E+00 -0.00000000000E+00 -0.46540472726E+03  0.46540472726E+03  0.00000000000E+00 0.  1.
         23    2    1    2    0    0  0.24281028765E+03  0.26244795310E+03  0.46875404199E+03  0.59635330364E+03  0.89839562594E+02 0.  0.
         11    1    3    3    0    0  0.19254093806E+03  0.22959771137E+03  0.43265666189E+03  0.52628785752E+03  0.00000000000E+00 0. -1.
        -11    1    3    3    0    0  0.50269349597E+02  0.32850241730E+02  0.36097380104E+02  0.70065446127E+02  0.00000000000E+00 0.  1.
         22    1    1    2    0    0 -0.24281028765E+03 -0.26244795310E+03 -0.32202707002E+03  0.48118312284E+03  0.00000000000E+00 0.  1.
<mgrwt>
<rscale>  0 0.10674999E+04</rscale>
<asrwt>0</asrwt>
<pdfrwt beam="1">  1        1 0.94174108E-01 0.10674999E+04</pdfrwt>
<pdfrwt beam="2">  1       -1 0.71600727E-01 0.10674999E+04</pdfrwt>
<totfact> 0.65443188E+01</totfact>
</mgrwt>
</event>
<event>
 6    1  0.1001928E-005  0.6034425E+04  0.7818608E-02  0.7686148E-01
          2   -1    0    0  501    0  0.00000000000E+00  0.00000000000E+00  0.34778508028E+04  0.34778508028E+04  0.00000000000E+00 0. -1.
         -2   -1    0    0    0  501 -0.00000000000E+00 -0.00000000000E+00 -0.26175854452E+04  0.26175854452E+04  0.00000000000E+00 0.  1.
         23    2    1    2    0    0 -0.22936570300E+04  0.77234569509E+03 -0.13885130020E+04  0.27917436844E+04  0.92108622468E+02 0.  0.
         13    1    3    3    0    0 -0.71320210078E+03  0.27871880509E+03 -0.46492312686E+03  0.89582080951E+03  0.00000000000E+00 0. -1.
        -13    1    3    3    0    0 -0.15804549293E+04  0.49362689000E+03 -0.92358987518E+03  0.18959228749E+04  0.00000000000E+00 0.  1.
         22    1    1    2    0    0  0.22936570300E+04 -0.77234569509E+03  0.22487783596E+04  0.33036925636E+04  0.00000000000E+00 0. -1.
<mgrwt>
<rscale>  0 0.60344251E+04</rscale>
<asrwt>0</asrwt>
<pdfrwt beam="1">  1        2 0.53505397E+00 0.60344251E+04</pdfrwt>
<pdfrwt beam="2">  1       -2 0.40270545E+00 0.60344251E+04</pdfrwt>
<totfact> 0.40276558E-03</totfact>
</mgrwt>
</event>
<event>
 6    1  0.1001928E-005  0.1515778E+04  0.7818608E-02  0.8874028E-01
         -2   -1    0    0    0  501 -0.00000000000E+00  0.00000000000E+00  0.29628359572E+03  0.29628359572E+03  0.00000000000E+00 0.  1.
          2   -1    0    0  501    0  0.00000000000E+00 -0.00000000000E+00 -0.19386689398E+04  0.19386689398E+04  0.00000000000E+00 0. -1.
         23    2    1    2    0    0 -0.18402738751E+03  0.37123587299E+03  0.10685634920E+03  0.43730722728E+03  0.90206313036E+02 0.  0.
         13    1    3    3    0    0 -0.12755939045E+03  0.27061571557E+03  0.11753413781E+03  0.32143201016E+03  0.00000000000E+00 0. -1.
        -13    1    3    3    0    0 -0.56467997059E+02  0.10062015742E+03 -0.10677788608E+02  0.11587521711E+03  0.00000000000E+00 0.  1.
         22    1    1    2    0    0  0.18402738751E+03 -0.37123587299E+03 -0.17492416933E+04  0.17976453082E+04  0.00000000000E+00 0. -1.
<mgrwt>
<rscale>  0 0.15157781E+04</rscale>
<asrwt>0</asrwt>
<pdfrwt beam="1">  1        2 0.29825677E+00 0.15157781E+04</pdfrwt>
<pdfrwt beam="2">  1       -2 0.45582090E-01 0.15157781E+04</pdfrwt>
<totfact> 0.31837990E+01</totfact>
</mgrwt>
</event>
<event>
 6    1  0.1001928E-005  0.2116679E+04  0.7818608E-02  0.8553931E-01
          1   -1    0    0  501    0  0.00000000000E+00  0.00000000000E+00  0.99049126919E+03  0.99049126919E+03  0.00000000000E+00 0. -1.
         -1   -1    0    0    0  501 -0.00000000000E+00 -0.00000000000E+00 -0.11308354111E+04  0.11308354111E+04  0.00000000000E+00 0.  1.
         23    2    1    2    0    0  0.75460284353E+03 -0.57318139003E+03  0.39746858466E+03  0.10317373603E+04  0.92403179476E+02 0.  0.
         13    1    3    3    0    0  0.27042998015E+03 -0.21763472044E+03  0.19313440971E+03  0.39723814762E+03  0.00000000000E+00 0. -1.
        -13    1    3    3    0    0  0.48417286338E+03 -0.35554666959E+03  0.20433417494E+03  0.63449921272E+03  0.00000000000E+00 0.  1.
         22    1    1    2    0    0 -0.75460284353E+03  0.57318139003E+03 -0.53781272658E+03  0.10895893200E+04  0.00000000000E+00 0.  1.
<mgrwt>
<rscale>  0 0.21166791E+04</rscale>
<asrwt>0</asrwt>
<pdfrwt beam="1">  1        1 0.15238327E+00 0.21166791E+04</pdfrwt>
<pdfrwt beam="2">  1       -1 0.17397468E+00 0.21166791E+04</pdfrwt>
<totfact> 0.32530312E+00</totfact>
</mgrwt>
</event>
<event>
 6    1  0.1001928E-005  0.3458513E+04  0.7818608E-02  0.8123693E-01
         -2   -1    0    0    0  501 -0.00000000000E+00  0.00000000000E+00  0.14323528437E+04  0.14323528437E+04  0.00000000000E+00 0. -1.
          2   -1    0    0  501    0  0.00000000000E+00 -0.00000000000E+00 -0.20877028978E+04  0.20877028978E+04  0.00000000000E+00 0.  1.
         23    2    1    2    0    0  0.12637686602E+04 -0.11055051033E+04  0.87849173133E+02  0.16838646155E+04  0.91813976021E+02 0.  0.
         11    1    3    3    0    0  0.79414542140E+03 -0.73014910541E+03  0.21338650793E+02  0.10789995387E+04  0.00000000000E+00 0. -1.
        -11    1    3    3    0    0  0.46962323876E+03 -0.37535599788E+03  0.66510522340E+02  0.60486507678E+03  0.00000000000E+00 0.  1.
         22    1    1    2    0    0 -0.12637686602E+04  0.11055051033E+04 -0.74319922727E+03  0.18361911260E+04  0.00000000000E+00 0.  1.
<mgrwt>
<rscale>  0 0.34585125E+04</rscale>
<asrwt>0</asrwt>
<pdfrwt beam="1">  1        2 0.32118506E+00 0.34585125E+04</pdfrwt>
<pdfrwt beam="2">  1       -2 0.22036198E+00 0.34585125E+04</pdfrwt>
<totfact> 0.48392393E-01</totfact>
</mgrwt>
</event>
<event>
 6    1  0.1001928E-005  0.1491460E+04  0.7818608E-02  0.8890152E-01
          1   -1    0    0  501    0  0.00000000000E+00  0.00000000000E+00  0.17914516772E+04  0.17914516772E+04  0.00000000000E+00 0. -1.
         -1   -1    0    0    0  501 -0.00000000000E+00 -0.00000000000E+00 -0.31042605504E+03  0.31042605504E+03  0.00000000000E+00 0.  1.
         23    2    1    2    0    0  0.12172227930E+03 -0.73235345233E+03  0.78435623754E+03  0.10837882844E+04  0.90688728824E+02 0.  0.
         13    1    3    3    0    0  0.98295086008E+01 -0.22756117149E+03  0.28658047179E+03  0.36607249668E+03  0.00000000000E+00 0.  1.
        -13    1    3    3    0    0  0.11189277070E+03 -0.50479228084E+03  0.49777576575E+03  0.71771578769E+03  0.00000000000E+00 0. -1.
         22    1    1    2    0    0 -0.12172227930E+03  0.73235345233E+03  0.69666938464E+03  0.10180894479E+04  0.00000000000E+00 0.  1.
<mgrwt>
<rscale>  0 0.14914601E+04</rscale>
<asrwt>0</asrwt>
<pdfrwt beam="1">  1        1 0.27560794E+00 0.14914601E+04</pdfrwt>
<pdfrwt beam="2">  1       -1 0.47757856E-01 0.14914601E+04</pdfrwt>
<totfact> 0.17506636E+01</totfact>
</mgrwt>
</event>
<event>
 6    1  0.1001928E-005  0.3050665E+04  0.7818608E-02  0.8229409E-01
         -1   -1    0    0    0  501 -0.00000000000E+00  0.00000000000E+00  0.16444442375E+04  0.16444442375E+04  0.00000000000E+00 0.  1.
          1   -1    0    0  501    0  0.00000000000E+00 -0.00000000000E+00 -0.14148480682E+04  0.14148480682E+04  0.00000000000E+00 0. -1.
         23    2    1    2    0    0 -0.13084074546E+04  0.65718419996E+03 -0.30904308149E+03  0.14991790462E+04  0.90603788264E+02 0.  0.
         11    1    3    3    0    0 -0.12264896496E+04  0.59557500045E+03 -0.30162478363E+03  0.13964110970E+04  0.00000000000E+00 0. -1.
        -11    1    3    3    0    0 -0.81917804974E+02  0.61609199511E+02 -0.74182978583E+01  0.10276794918E+03  0.00000000000E+00 0.  1.
         22    1    1    2    0    0  0.13084074546E+04 -0.65718419996E+03  0.53863925081E+03  0.15601132595E+04  0.00000000000E+00 0.  1.
<mgrwt>
<rscale>  0 0.30506647E+04</rscale>
<asrwt>0</asrwt>
<pdfrwt beam="1">  1        1 0.21766893E+00 0.30506647E+04</pdfrwt>
<pdfrwt beam="2">  1       -1 0.25299142E+00 0.30506647E+04</pdfrwt>
<totfact> 0.42362228E-01</totfact>
</mgrwt>
</event>
<event>
 6    1  0.1001928E-005  0.2510137E+04  0.7818608E-02  0.8399383E-01
         -2   -1    0    0    0  501 -0.00000000000E+00  0.00000000000E+00  0.35943572914E+03  0.35943572914E+03  0.00000000000E+00 0.  1.
          2   -1    0    0  501    0  0.00000000000E+00 -0.00000000000E+00 -0.43824177754E+04  0.43824177754E+04  0.00000000000E+00 0. -1.
         23    2    1    2    0    0 -0.92461480933E+03 -0.34194519295E+02 -0.36115048224E+04  0.37292354539E+04  0.90267255494E+02 0.  0.
         11    1    3    3    0    0 -0.81261923698E+03 -0.58905954515E+02 -0.31399043574E+04  0.32438895341E+04  0.00000000000E+00 0. -1.
        -11    1    3    3    0    0 -0.11199557235E+03  0.24711435219E+02 -0.47160046498E+03  0.48534591976E+03  0.00000000000E+00 0.  1.
         22    1    1    2    0    0  0.92461480933E+03  0.34194519295E+02 -0.41147722385E+03  0.10126180507E+04  0.00000000000E+00 0.  1.
<mgrwt>
<rscale>  0 0.25101375E+04</rscale>
<asrwt>0</asrwt>
<pdfrwt beam="1">  1        2 0.67421811E+00 0.25101375E+04</pdfrwt>
<pdfrwt beam="2">  1       -2 0.55297805E-01 0.25101375E+04</pdfrwt>
<totfact> 0.43892962E-01</totfact>
</mgrwt>
</event>
<event>
 6    1  0.1001928E-005  0.6739539E+03  0.7818608E-02  0.9762841E-01
         -1   -1    0    0    0  501 -0.00000000000E+00  0.00000000000E+00  0.12272739714E+03  0.12272739714E+03  0.00000000000E+00 0.  1.
          1   -1    0    0  501    0  0.00000000000E+00 -0.00000000000E+00 -0.92524964749E+03  0.92524964749E+03  0.00000000000E+00 0. -1.
         23    2    1    2    0    0  0.23571864532E+03  0.46166989882E+02 -0.76237376612E+03  0.80444763883E+03  0.90705973551E+02 0.  0.
         13    1    3    3    0    0  0.89735671842E+02  0.61987384357E+02 -0.35767067477E+03  0.37392945619E+03  0.00000000000E+00 0.  1.
        -13    1    3    3    0    0  0.14598297348E+03 -0.15820394475E+02 -0.40470309136E+03  0.43051818264E+03  0.00000000000E+00 0. -1.
         22    1    1    2    0    0 -0.23571864532E+03 -0.46166989882E+02 -0.40148484224E+02  0.24352940580E+03  0.00000000000E+00 0.  1.
<mgrwt>
<rscale>  0 0.67395395E+03</rscale>
<asrwt>0</asrwt>
<pdfrwt beam="1">  1        1 0.14234610E+00 0.67395395E+03</pdfrwt>
<pdfrwt beam="2">  1       -1 0.18881138E-01 0.67395395E+03</pdfrwt>
<totfact> 0.39554806E+02</totfact>
</mgrwt>
</event>
<event>
 6    1  0.1001928E-005  0.2184180E+04  0.7818608E-02  0.8525042E-01
          2   -1    0    0  501    0  0.00000000000E+00  0.00000000000E+00  0.22548058958E+04  0.22548058958E+04  0.00000000000E+00 0. -1.
         -2   -1    0    0    0  501 -0.00000000000E+00 -0.00000000000E+00 -0.52894175559E+03  0.52894175559E+03  0.00000000000E+00 0.  1.
         23    2    1    2    0    0 -0.60973291200E+03 -0.54458311078E+03 -0.52423066300E+02  0.82654291572E+03  0.10990916758E+03 0.  0.
         11    1    3    3    0    0 -0.13527375377E+03 -0.15896928571E+03  0.25138948620E+02  0.21024316635E+03  0.00000000000E+00 0. -1.
        -11    1    3    3    0    0 -0.47445915822E+03 -0.38561382507E+03 -0.77562014920E+02  0.61629974936E+03  0.00000000000E+00 0.  1.
         22    1    1    2    0    0  0.60973291200E+03  0.54458311078E+03  0.17782872065E+04  0.19572047356E+04  0.00000000000E+00 0. -1.
<mgrwt>
<rscale>  0 0.21841804E+04</rscale>
<asrwt>0</asrwt>
<pdfrwt beam="1">  1        2 0.34689321E+00 0.21841804E+04</pdfrwt>
<pdfrwt beam="2">  1       -2 0.81375656E-01 0.21841804E+04</pdfrwt>
<totfact> 0.58538611E+00</totfact>
</mgrwt>
</event>
<event>
 6    1  0.1001928E-005  0.3420761E+04  0.7818608E-02  0.8132829E-01
          2   -1    0    0  501    0  0.00000000000E+00  0.00000000000E+00  0.30539572894E+04  0.30539572894E+04  0.00000000000E+00 0. -1.
         -2   -1    0    0    0  501 -0.00000000000E+00 -0.00000000000E+00 -0.95790543677E+03  0.95790543677E+03  0.00000000000E+00 0.  1.
         23    2    1    2    0    0  0.56963192379E+03 -0.79573778870E+03  0.26924039905E+04  0.28658631497E+04  0.80331735610E+02 0.  0.
         13    1    3    3    0    0  0.32358606803E+03 -0.45192423601E+03  0.16441443456E+04  0.17355558440E+04  0.00000000000E+00 0. -1.
        -13    1    3    3    0    0  0.24604585576E+03 -0.34381355269E+03  0.10482596449E+04  0.11303073057E+04  0.00000000000E+00 0.  1.
         22    1    1    2    0    0 -0.56963192379E+03  0.79573778870E+03 -0.59635213786E+03  0.11459995765E+04  0.00000000000E+00 0.  1.
<mgrwt>
<rscale>  0 0.34207615E+04</rscale>
<asrwt>0</asrwt>
<pdfrwt beam="1">  1        2 0.46983958E+00 0.34207615E+04</pdfrwt>
<pdfrwt beam="2">  1       -2 0.14737007E+00 0.34207615E+04</pdfrwt>
<totfact> 0.41772354E-01</totfact>
</mgrwt>
</event>
<event>
 6    1  0.1001928E-005  0.2380358E+04  0.7818608E-02  0.8446894E-01
         -2   -1    0    0    0  501 -0.00000000000E+00  0.00000000000E+00  0.41494453023E+03  0.41494453023E+03  0.00000000000E+00 0.  1.
          2   -1    0    0  501    0  0.00000000000E+00 -0.00000000000E+00 -0.34137734026E+04  0.34137734026E+04  0.00000000000E+00 0. -1.
         23    2    1    2    0    0  0.37449409365E+03  0.65986253274E+03 -0.29730990405E+04  0.30695562817E+04  0.84814345817E+02 0.  0.
         13    1    3    3    0    0  0.15929954301E+03  0.23623777560E+03 -0.12573679592E+04  0.12892473835E+04  0.00000000000E+00 0. -1.
        -13    1    3    3    0    0  0.21519455064E+03  0.42362475714E+03 -0.17157310813E+04  0.17803088982E+04  0.00000000000E+00 0.  1.
         22    1    1    2    0    0 -0.37449409365E+03 -0.65986253274E+03 -0.25729831821E+02  0.75916165113E+03  0.00000000000E+00 0.  1.
<mgrwt>
<rscale>  0 0.23803585E+04</rscale>
<asrwt>0</asrwt>
<pdfrwt beam="1">  1        2 0.52519590E+00 0.23803585E+04</pdfrwt>
<pdfrwt beam="2">  1       -2 0.63837621E-01 0.23803585E+04</pdfrwt>
<totfact> 0.19102789E+00</totfact>
</mgrwt>
</event>
<event>
 6    1  0.1001928E-005  0.3978359E+04  0.7818608E-02  0.8008926E-01
         -2   -1    0    0    0  501 -0.00000000000E+00  0.00000000000E+00  0.17831631214E+04  0.17831631214E+04  0.00000000000E+00 0.  1.
          2   -1    0    0  501    0  0.00000000000E+00 -0.00000000000E+00 -0.22189980246E+04  0.22189980246E+04  0.00000000000E+00 0. -1.
         23    2    1    2    0    0  0.19353406946E+04 -0.69032461183E+02 -0.67037116077E+03  0.20514391409E+04  0.93252188719E+02 0.  0.
         13    1    3    3    0    0  0.33648268594E+03  0.21611431927E+02 -0.12819807955E+03  0.36072482521E+03  0.00000000000E+00 0. -1.
        -13    1    3    3    0    0  0.15988580087E+04 -0.90643893110E+02 -0.54217308122E+03  0.16907143157E+04  0.00000000000E+00 0.  1.
         22    1    1    2    0    0 -0.19353406946E+04  0.69032461183E+02  0.23453625763E+03  0.19507220051E+04  0.00000000000E+00 0.  1.
<mgrwt>
<rscale>  0 0.39783592E+04</rscale>
<asrwt>0</asrwt>
<pdfrwt beam="1">  1        2 0.34138431E+00 0.39783592E+04</pdfrwt>
<pdfrwt beam="2">  1       -2 0.27433279E+00 0.39783592E+04</pdfrwt>
<totfact> 0.18157538E-01</totfact>
</mgrwt>
</event>
<event>
 6    1  0.1001928E-005  0.1203526E+04  0.7818608E-02  0.9109776E-01
         -1   -1    0    0    0  501 -0.00000000000E+00  0.00000000000E+00  0.15906297562E+03  0.15906297562E+03  0.00000000000E+00 0.  1.
          1   -1    0    0  501    0  0.00000000000E+00 -0.00000000000E+00 -0.22765734685E+04  0.22765734685E+04  0.00000000000E+00 0. -1.
         23    2    1    2    0    0 -0.16009668603E+03 -0.44163219166E+03 -0.31501273303E+03  0.57293192761E+03  0.91367555066E+02 0.  0.
         11    1    3    3    0    0 -0.10576026115E+03 -0.20062621094E+03 -0.11085774175E+03  0.25243919715E+03  0.00000000000E+00 0.  1.
        -11    1    3    3    0    0 -0.54336424883E+02 -0.24100598072E+03 -0.20415499128E+03  0.32049273046E+03  0.00000000000E+00 0. -1.
         22    1    1    2    0    0  0.16009668603E+03  0.44163219166E+03 -0.18024977599E+04  0.18627045165E+04  0.00000000000E+00 0. -1.
<mgrwt>
<rscale>  0 0.12035257E+04</rscale>
<asrwt>0</asrwt>
<pdfrwt beam="1">  1        1 0.35024207E+00 0.12035257E+04</pdfrwt>
<pdfrwt beam="2">  1       -1 0.24471227E-01 0.12035257E+04</pdfrwt>
<totfact> 0.27878387E+01</totfact>
</mgrwt>
</event>
<event>
 6    1  0.1001928E-005  0.3158609E+04  0.7818608E-02  0.8199835E-01
          1   -1    0    0  501    0  0.00000000000E+00  0.00000000000E+00  0.22285989317E+04  0.22285989317E+04  0.00000000000E+00 0. -1.
         -1   -1    0    0    0  501 -0.00000000000E+00 -0.00000000000E+00 -0.11191799097E+04  0.11191799097E+04  0.00000000000E+00 0.  1.
         23    2    1    2    0    0 -0.84925274616E+03  0.11371327956E+04  0.12860814800E+04  0.19175652749E+04  0.93540305159E+02 0.  0.
         13    1    3    3    0    0 -0.79510280611E+03  0.10222354416E+04  0.11817083400E+04  0.17531652435E+04  0.00000000000E+00 0. -1.
        -13    1    3    3    0    0 -0.54149940055E+02  0.11489735397E+03  0.10437313997E+03  0.16440003134E+03  0.00000000000E+00 0.  1.
         22    1    1    2    0    0  0.84925274616E+03 -0.11371327956E+04 -0.17666245799E+03  0.14302135665E+04  0.00000000000E+00 0.  1.
<mgrwt>
<rscale>  0 0.31586093E+04</rscale>
<asrwt>0</asrwt>
<pdfrwt beam="1">  1        1 0.34286137E+00 0.31586093E+04</pdfrwt>
<pdfrwt beam="2">  1       -1 0.17218153E+00 0.31586093E+04</pdfrwt>
<totfact> 0.41468131E-01</totfact>
</mgrwt>
</event>
<event>
 6    1  0.1001928E-005  0.4377944E+04  0.7818608E-02  0.7932361E-01
         -2   -1    0    0    0  501 -0.00000000000E+00  0.00000000000E+00  0.19016012008E+04  0.19016012008E+04  0.00000000000E+00 0.  1.
          2   -1    0    0  501    0  0.00000000000E+00 -0.00000000000E+00 -0.25197708602E+04  0.25197708602E+04  0.00000000000E+00 0. -1.
         23    2    1    2    0    0  0.20541940871E+04 -0.50464238015E+03  0.25592410891E+03  0.21326131844E+04  0.90357985589E+02 0.  0.
         13    1    3    3    0    0  0.59721666798E+03 -0.18755779930E+03  0.64346759218E+02  0.62927432969E+03  0.00000000000E+00 0. -1.
        -13    1    3    3    0    0  0.14569774191E+04 -0.31708458085E+03  0.19157734969E+03  0.15033388547E+04  0.00000000000E+00 0.  1.
         22    1    1    2    0    0 -0.20541940871E+04  0.50464238015E+03 -0.87409376837E+03  0.22887588766E+04  0.00000000000E+00 0. -1.
<mgrwt>
<rscale>  0 0.43779444E+04</rscale>
<asrwt>0</asrwt>
<pdfrwt beam="1">  1        2 0.38765705E+00 0.43779444E+04</pdfrwt>
<pdfrwt beam="2">  1       -2 0.29255403E+00 0.43779444E+04</pdfrwt>
<totfact> 0.91572625E-02</totfact>
</mgrwt>
</event>
<event>
 6    1  0.1001928E-005  0.2529436E+04  0.7818608E-02  0.8392573E-01
         -2   -1    0    0    0  501 -0.00000000000E+00  0.00000000000E+00  0.54372508461E+03  0.54372508461E+03  0.00000000000E+00 0. -1.
          2   -1    0    0  501    0  0.00000000000E+00 -0.00000000000E+00 -0.29417642080E+04  0.29417642080E+04  0.00000000000E+00 0.  1.
         23    2    1    2    0    0 -0.71556273691E+03  0.75599873450E+03 -0.21862684559E+04  0.24232224087E+04  0.93128748354E+02 0.  0.
         11    1    3    3    0    0 -0.65099795329E+03  0.72153278663E+03 -0.20241152542E+04  0.22453174519E+04  0.00000000000E+00 0.  1.
        -11    1    3    3    0    0 -0.64564783618E+02  0.34465947867E+02 -0.16215320167E+03  0.17790495681E+03  0.00000000000E+00 0. -1.
         22    1    1    2    0    0  0.71556273691E+03 -0.75599873450E+03 -0.21177066749E+03  0.10622668839E+04  0.00000000000E+00 0. -1.
<mgrwt>
<rscale>  0 0.25294355E+04</rscale>
<asrwt>0</asrwt>
<pdfrwt beam="1">  1        2 0.45257911E+00 0.25294355E+04</pdfrwt>
<pdfrwt beam="2">  1       -2 0.83650013E-01 0.25294355E+04</pdfrwt>
<totfact> 0.21048041E+00</totfact>
</mgrwt>
</event>
<event>
 6    1  0.1001928E-005  0.1552112E+04  0.7818608E-02  0.8850520E-01
          1   -1    0    0  501    0  0.00000000000E+00  0.00000000000E+00  0.97462250211E+03  0.97462250211E+03  0.00000000000E+00 0. -1.
         -1   -1    0    0    0  501 -0.00000000000E+00 -0.00000000000E+00 -0.61794456949E+03  0.61794456949E+03  0.00000000000E+00 0.  1.
         23    2    1    2    0    0  0.74047950713E+03  0.18490295479E+03  0.30756811136E+03  0.82777247322E+03  0.90056211004E+02 0.  0.
         11    1    3    3    0    0  0.12616387735E+02 -0.61322514704E+01  0.14579309041E+02  0.20232004342E+02  0.00000000000E+00 0. -1.
        -11    1    3    3    0    0  0.72786311939E+03  0.19103520626E+03  0.29298880232E+03  0.80754046888E+03  0.00000000000E+00 0.  1.
         22    1    1    2    0    0 -0.74047950713E+03 -0.18490295479E+03  0.49109821258E+02  0.76479459838E+03  0.00000000000E+00 0. -1.
<mgrwt>
<rscale>  0 0.15521117E+04</rscale>
<asrwt>0</asrwt>
<pdfrwt beam="1">  1        1 0.14994192E+00 0.15521117E+04</pdfrwt>
<pdfrwt beam="2">  1       -1 0.95068396E-01 0.15521117E+04</pdfrwt>
<totfact> 0.16319256E+01</totfact>
</mgrwt>
</event>
<event>
 6    1  0.1070650E-005  0.2423841E+04  0.7818608E-02  0.8430631E-01
          3   -1    0    0  501    0  0.00000000000E+00  0.00000000000E+00  0.14943444927E+04  0.14943444927E+04  0.00000000000E+00 0. -1.
         -3   -1    0    0    0  501 -0.00000000000E+00 -0.00000000000E+00 -0.98287336117E+03  0.98287336117E+03  0.00000000000E+00 0.  1.
         23    2    1    2    0    0  0.18936789450E+03 -0.29125585393E+03  0.14411176667E+04  0.14847800208E+04  0.84032190639E+02 0.  0.
         13    1    3    3    0    0  0.40077896419E+02 -0.13018672527E+03  0.62124498236E+03  0.63600326204E+03  0.00000000000E+00 0.  1.
        -13    1    3    3    0    0  0.14928999808E+03 -0.16106912866E+03  0.81987268434E+03  0.84877675879E+03  0.00000000000E+00 0. -1.
         22    1    1    2    0    0 -0.18936789450E+03  0.29125585393E+03 -0.92964653521E+03  0.99243783299E+03  0.00000000000E+00 0.  1.
<mgrwt>
<rscale>  0 0.24238411E+04</rscale>
<asrwt>0</asrwt>
<pdfrwt beam="1">  1        3 0.22989915E+00 0.24238411E+04</pdfrwt>
<pdfrwt beam="2">  1       -3 0.15121129E+00 0.24238411E+04</pdfrwt>
<totfact> 0.71489433E-02</totfact>
</mgrwt>
</event>
<event>
 6    1  0.1001928E-005  0.3626919E+04  0.7818608E-02  0.8084353E-01
          2   -1    0    0  501    0  0.00000000000E+00  0.00000000000E+00  0.17786050193E+04  0.17786050193E+04  0.00000000000E+00 0. -1.
         -2   -1    0    0    0  501 -0.00000000000E+00 -0.00000000000E+00 -0.18489968252E+04  0.18489968252E+04  0.00000000000E+00 0.  1.
         23    2    1    2    0    0  0.11909288742E+04  0.12851983155E+04 -0.49849779098E+03  0.18239053546E+04  0.89913298656E+02 0.  0.
         13    1    3    3    0    0  0.10715812487E+04  0.11761943883E+04 -0.42895054483E+03  0.16479436220E+04  0.00000000000E+00 0. -1.
        -13    1    3    3    0    0  0.11934762550E+03  0.10900392721E+03 -0.69547246152E+02  0.17596173250E+03  0.00000000000E+00 0.  1.
         22    1    1    2    0    0 -0.11909288742E+04 -0.12851983155E+04  0.42810598506E+03  0.18036964900E+04  0.00000000000E+00 0.  1.
<mgrwt>
<rscale>  0 0.36269188E+04</rscale>
<asrwt>0</asrwt>
<pdfrwt beam="1">  1        2 0.27363154E+00 0.36269188E+04</pdfrwt>
<pdfrwt beam="2">  1       -2 0.28446105E+00 0.36269188E+04</pdfrwt>
<totfact> 0.28526151E-01</totfact>
</mgrwt>
</event>
<event>
 6    1  0.1001928E-005  0.1397155E+04  0.7818608E-02  0.8955880E-01
          1   -1    0    0  501    0  0.00000000000E+00  0.00000000000E+00  0.69111947801E+03  0.69111947801E+03  0.00000000000E+00 0. -1.
         -1   -1    0    0    0  501 -0.00000000000E+00 -0.00000000000E+00 -0.70611639990E+03  0.70611639990E+03  0.00000000000E+00 0.  1.
         23    2    1    2    0    0 -0.28567238683E+03 -0.32059136645E+03  0.53985358763E+03  0.69563298114E+03  0.89865519145E+02 0.  0.
         13    1    3    3    0    0 -0.15045324546E+03 -0.12174217023E+03  0.29183925680E+03  0.35018207677E+03  0.00000000000E+00 0.  1.
        -13    1    3    3    0    0 -0.13521914137E+03 -0.19884919623E+03  0.24801433082E+03  0.34545090436E+03  0.00000000000E+00 0. -1.
         22    1    1    2    0    0  0.28567238683E+03  0.32059136645E+03 -0.55485050952E+03  0.70160289677E+03  0.00000000000E+00 0.  1.
<mgrwt>
<rscale>  0 0.13971554E+04</rscale>
<asrwt>0</asrwt>
<pdfrwt beam="1">  1        1 0.10632607E+00 0.13971554E+04</pdfrwt>
<pdfrwt beam="2">  1       -1 0.10863329E+00 0.13971554E+04</pdfrwt>
<totfact> 0.21304644E+01</totfact>
</mgrwt>
</event>
<event>
 6    1  0.1082509E-005  0.2441485E+04  0.7818608E-02  0.8424134E-01
         -1   -1    0    0    0  501 -0.00000000000E+00  0.00000000000E+00  0.98664999383E+03  0.98664999383E+03  0.00000000000E+00 0.  1.
          1   -1    0    0  501    0  0.00000000000E+00 -0.00000000000E+00 -0.15103756489E+04  0.15103756489E+04  0.00000000000E+00 0. -1.
         23    2    1    2    0    0  0.87546982550E+03 -0.69934419706E+03 -0.75318559349E+03  0.13532679828E+04  0.92282034022E+02 0.  0.
         13    1    3    3    0    0  0.36748814387E+03 -0.25491641509E+03 -0.26000336202E+03  0.51733128924E+03  0.00000000000E+00 0. -1.
        -13    1    3    3    0    0  0.50798168163E+03 -0.44442778196E+03 -0.49318223147E+03  0.83593669359E+03  0.00000000000E+00 0.  1.
         22    1    1    2    0    0 -0.87546982550E+03  0.69934419706E+03  0.22945993839E+03  0.11437576599E+04  0.00000000000E+00 0.  1.
<mgrwt>
<rscale>  0 0.24414849E+04</rscale>
<asrwt>0</asrwt>
<pdfrwt beam="1">  1        1 0.23236548E+00 0.24414849E+04</pdfrwt>
<pdfrwt beam="2">  1       -1 0.15179231E+00 0.24414849E+04</pdfrwt>
<totfact> 0.19411317E+00</totfact>
</mgrwt>
</event>
<event>
 6    1  0.1001928E-005  0.1400025E+04  0.7818608E-02  0.8953801E-01
         -1   -1    0    0    0  501 -0.00000000000E+00  0.00000000000E+00  0.18932628374E+03  0.18932628374E+03  0.00000000000E+00 0.  1.
          1   -1    0    0  501    0  0.00000000000E+00 -0.00000000000E+00 -0.25882159878E+04  0.25882159878E+04  0.00000000000E+00 0. -1.
         23    2    1    2    0    0  0.48300639685E+03 -0.21363700586E+03 -0.30173740621E+03  0.61490875890E+03  0.90174108210E+02 0.  0.
         13    1    3    3    0    0  0.30595527226E+03 -0.17915885827E+03 -0.18338152546E+03  0.39916827153E+03  0.00000000000E+00 0. -1.
        -13    1    3    3    0    0  0.17705112459E+03 -0.34478147598E+02 -0.11835588076E+03  0.21574048737E+03  0.00000000000E+00 0.  1.
         22    1    1    2    0    0 -0.48300639685E+03  0.21363700586E+03 -0.20971522978E+04  0.21626335126E+04  0.00000000000E+00 0. -1.
<mgrwt>
<rscale>  0 0.14000247E+04</rscale>
<asrwt>0</asrwt>
<pdfrwt beam="1">  1        1 0.39818704E+00 0.14000247E+04</pdfrwt>
<pdfrwt beam="2">  1       -1 0.29127123E-01 0.14000247E+04</pdfrwt>
<totfact> 0.12373537E+01</totfact>
</mgrwt>
</event>
<event>
 6    1  0.1001928E-005  0.2020206E+04  0.7818608E-02  0.8597232E-01
         -4   -1    0    0    0  501 -0.00000000000E+00  0.00000000000E+00  0.60734810958E+03  0.60734810958E+03  0.00000000000E+00 0.  1.
          4   -1    0    0  501    0  0.00000000000E+00 -0.00000000000E+00 -0.16799393694E+04  0.16799393694E+04  0.00000000000E+00 0. -1.
         23    2    1    2    0    0  0.45822703009E+03 -0.90576741820E+02  0.47404903903E+03  0.67165374224E+03  0.90664771547E+02 0.  0.
         11    1    3    3    0    0  0.14024942699E+03 -0.59700973773E+02  0.19472775496E+03  0.24729133950E+03  0.00000000000E+00 0.  1.
        -11    1    3    3    0    0  0.31797760310E+03 -0.30875768047E+02  0.27932128406E+03  0.42436240274E+03  0.00000000000E+00 0. -1.
         22    1    1    2    0    0 -0.45822703009E+03  0.90576741820E+02 -0.15466402988E+04  0.16156337367E+04  0.00000000000E+00 0. -1.
<mgrwt>
<rscale>  0 0.20202059E+04</rscale>
<asrwt>0</asrwt>
<pdfrwt beam="1">  1        4 0.25845221E+00 0.20202059E+04</pdfrwt>
<pdfrwt beam="2">  1       -4 0.93438171E-01 0.20202059E+04</pdfrwt>
<totfact> 0.10069052E-01</totfact>
</mgrwt>
</event>
<event>
 6    1  0.1001928E-005  0.1295756E+04  0.7818608E-02  0.9032937E-01
         -2   -1    0    0    0  501 -0.00000000000E+00  0.00000000000E+00  0.23589668465E+03  0.23589668465E+03  0.00000000000E+00 0.  1.
          2   -1    0    0  501    0  0.00000000000E+00 -0.00000000000E+00 -0.17793633672E+04  0.17793633672E+04  0.00000000000E+00 0. -1.
         23    2    1    2    0    0  0.73753234733E+02  0.95097356256E+02 -0.17605815529E+04  0.17670224364E+04  0.90762543478E+02 0.  0.
         13    1    3    3    0    0  0.57915717064E+02  0.11277021709E+03 -0.14454706489E+04  0.14510192104E+04  0.00000000000E+00 0.  1.
        -13    1    3    3    0    0  0.15837517669E+02 -0.17672860830E+02 -0.31511090405E+03  0.31600322598E+03  0.00000000000E+00 0. -1.
         22    1    1    2    0    0 -0.73753234733E+02 -0.95097356256E+02  0.21711487039E+03  0.24823761549E+03  0.00000000000E+00 0.  1.
<mgrwt>
<rscale>  0 0.12957560E+04</rscale>
<asrwt>0</asrwt>
<pdfrwt beam="1">  1        2 0.27374822E+00 0.12957560E+04</pdfrwt>
<pdfrwt beam="2">  1       -2 0.36291796E-01 0.12957560E+04</pdfrwt>
<totfact> 0.62070106E+01</totfact>
</mgrwt>
</event>
<event>
 6    1  0.1001928E-005  0.1166410E+04  0.7818608E-02  0.9142777E-01
          2   -1    0    0  501    0  0.00000000000E+00  0.00000000000E+00  0.17064749049E+03  0.17064749049E+03  0.00000000000E+00 0. -1.
         -2   -1    0    0    0  501 -0.00000000000E+00 -0.00000000000E+00 -0.19931613140E+04  0.19931613140E+04  0.00000000000E+00 0.  1.
         23    2    1    2    0    0  0.15369735280E+03  0.27223742230E+03 -0.18221283415E+04  0.18511808483E+04  0.94777370890E+02 0.  0.
         11    1    3    3    0    0 -0.81908761332E+01  0.36136589117E+02 -0.30868984757E+03  0.31090571806E+03  0.00000000000E+00 0.  1.
        -11    1    3    3    0    0  0.16188822893E+03  0.23610083318E+03 -0.15134384939E+04  0.15402751303E+04  0.00000000000E+00 0. -1.
         22    1    1    2    0    0 -0.15369735280E+03 -0.27223742230E+03 -0.38548200194E+00  0.31262795613E+03  0.00000000000E+00 0. -1.
<mgrwt>
<rscale>  0 0.11664098E+04</rscale>
<asrwt>0</asrwt>
<pdfrwt beam="1">  1        2 0.26253459E-01 0.11664098E+04</pdfrwt>
<pdfrwt beam="2">  1       -2 0.30664021E+00 0.11664098E+04</pdfrwt>
<totfact> 0.59946228E+00</totfact>
</mgrwt>
</event>
<event>
 6    1  0.1001928E-005  0.4710335E+03  0.7818608E-02  0.1021629E+00
         -2   -1    0    0    0  501 -0.00000000000E+00  0.00000000000E+00  0.79276363622E+02  0.79276363622E+02  0.00000000000E+00 0.  1.
          2   -1    0    0  501    0  0.00000000000E+00 -0.00000000000E+00 -0.69968064784E+03  0.69968064784E+03  0.00000000000E+00 0. -1.
         23    2    1    2    0    0 -0.26021952857E+02  0.12266628068E+02 -0.69353027147E+03  0.70037570194E+03  0.93350277045E+02 0.  0.
         11    1    3    3    0    0 -0.85929743693E+01  0.52766423573E+02 -0.36199412269E+03  0.36592059183E+03  0.00000000000E+00 0. -1.
        -11    1    3    3    0    0 -0.17428978488E+02 -0.40499795506E+02 -0.33153614879E+03  0.33445511011E+03  0.00000000000E+00 0.  1.
         22    1    1    2    0    0  0.26021952857E+02 -0.12266628068E+02  0.73125987253E+02  0.78581309523E+02  0.00000000000E+00 0.  1.
<mgrwt>
<rscale>  0 0.47103349E+03</rscale>
<asrwt>0</asrwt>
<pdfrwt beam="1">  1        2 0.10764317E+00 0.47103349E+03</pdfrwt>
<pdfrwt beam="2">  1       -2 0.12196364E-01 0.47103349E+03</pdfrwt>
<totfact> 0.20290593E+03</totfact>
</mgrwt>
</event>
<event>
 6    1  0.1001928E-005  0.2193451E+04  0.7818608E-02  0.8521159E-01
          1   -1    0    0  501    0  0.00000000000E+00  0.00000000000E+00  0.12230946972E+04  0.12230946972E+04  0.00000000000E+00 0. -1.
         -1   -1    0    0    0  501 -0.00000000000E+00 -0.00000000000E+00 -0.98341309290E+03  0.98341309290E+03  0.00000000000E+00 0.  1.
         23    2    1    2    0    0 -0.86297220013E+03 -0.10838176750E+03 -0.54897781241E+03  0.10324331326E+04  0.89854933880E+02 0.  0.
         11    1    3    3    0    0 -0.89060968106E+02 -0.28002985918E+02 -0.86600746200E+02  0.12734093019E+03  0.00000000000E+00 0.  1.
        -11    1    3    3    0    0 -0.77391123203E+03 -0.80378781578E+02 -0.46237706621E+03  0.90509220245E+03  0.00000000000E+00 0. -1.
         22    1    1    2    0    0  0.86297220013E+03  0.10838176750E+03  0.78865941672E+03  0.11740746575E+04  0.00000000000E+00 0. -1.
<mgrwt>
<rscale>  0 0.21934515E+04</rscale>
<asrwt>0</asrwt>
<pdfrwt beam="1">  1        1 0.18816841E+00 0.21934515E+04</pdfrwt>
<pdfrwt beam="2">  1       -1 0.15129432E+00 0.21934515E+04</pdfrwt>
<totfact> 0.31966293E+00</totfact>
</mgrwt>
</event>
<event>
 6    1  0.1001928E-005  0.2606341E+04  0.7818608E-02  0.8366051E-01
          2   -1    0    0  501    0  0.00000000000E+00  0.00000000000E+00  0.10163901642E+04  0.10163901642E+04  0.00000000000E+00 0. -1.
         -2   -1    0    0    0  501 -0.00000000000E+00 -0.00000000000E+00 -0.16708674925E+04  0.16708674925E+04  0.00000000000E+00 0.  1.
         23    2    1    2    0    0  0.80175634073E+03  0.97628548702E+03 -0.52155284119E+01  0.12668747974E+04  0.94857621675E+02 0.  0.
         11    1    3    3    0    0  0.49177012024E+03  0.66770975403E+03 -0.14443055839E+02  0.82938698365E+03  0.00000000000E+00 0. -1.
        -11    1    3    3    0    0  0.30998622049E+03  0.30857573299E+03  0.92275274272E+01  0.43748781372E+03  0.00000000000E+00 0.  1.
         22    1    1    2    0    0 -0.80175634073E+03 -0.97628548702E+03 -0.64926179991E+03  0.14203828593E+04  0.00000000000E+00 0.  1.
<mgrwt>
<rscale>  0 0.26063409E+04</rscale>
<asrwt>0</asrwt>
<pdfrwt beam="1">  1        2 0.15636772E+00 0.26063409E+04</pdfrwt>
<pdfrwt beam="2">  1       -2 0.25705653E+00 0.26063409E+04</pdfrwt>
<totfact> 0.12640596E+00</totfact>
</mgrwt>
</event>
<event>
 6    1  0.1001928E-005  0.6116266E+03  0.7818608E-02  0.9881574E-01
         -2   -1    0    0    0  501 -0.00000000000E+00  0.00000000000E+00  0.17280553571E+02  0.17280553571E+02  0.00000000000E+00 0. -1.
          2   -1    0    0  501    0  0.00000000000E+00 -0.00000000000E+00 -0.54119670066E+04  0.54119670066E+04  0.00000000000E+00 0.  1.
         23    2    1    2    0    0 -0.12429224611E+03 -0.10493826305E+03 -0.49844670502E+04  0.49879533726E+04  0.91139846316E+02 0.  0.
         13    1    3    3    0    0 -0.65405919494E+02 -0.69539871372E+02 -0.39772817932E+04  0.39784273514E+04  0.00000000000E+00 0.  1.
        -13    1    3    3    0    0 -0.58886326616E+02 -0.35398391679E+02 -0.10071852569E+04  0.10095260212E+04  0.00000000000E+00 0. -1.
         22    1    1    2    0    0  0.12429224611E+03  0.10493826305E+03 -0.41021940287E+03  0.44129418758E+03  0.00000000000E+00 0. -1.
<mgrwt>
<rscale>  0 0.61162664E+03</rscale>
<asrwt>0</asrwt>
<pdfrwt beam="1">  1        2 0.83260958E+00 0.61162664E+03</pdfrwt>
<pdfrwt beam="2">  1       -2 0.26585490E-02 0.61162664E+03</pdfrwt>
<totfact> 0.59118831E+00</totfact>
</mgrwt>
</event>
<event>
 6    1  0.1001928E-005  0.2308982E+04  0.7818608E-02  0.8474388E-01
         -2   -1    0    0    0  501 -0.00000000000E+00  0.00000000000E+00  0.95434008256E+03  0.95434008256E+03  0.00000000000E+00 0.  1.
          2   -1    0    0  501    0  0.00000000000E+00 -0.00000000000E+00 -0.13966192210E+04  0.13966192210E+04  0.00000000000E+00 0. -1.
         23    2    1    2    0    0 -0.29321289266E+03 -0.11118547351E+04 -0.13934569648E+03  0.11618573639E+04  0.91107401167E+02 0.  0.
         13    1    3    3    0    0 -0.57108728121E+02 -0.36645371351E+03 -0.63684970283E+02  0.37630507094E+03  0.00000000000E+00 0. -1.
        -13    1    3    3    0    0 -0.23610416454E+03 -0.74540102163E+03 -0.75660726198E+02  0.78555229300E+03  0.00000000000E+00 0.  1.
         22    1    1    2    0    0  0.29321289266E+03  0.11118547351E+04 -0.30293344192E+03  0.11891019396E+04  0.00000000000E+00 0. -1.
<mgrwt>
<rscale>  0 0.23089822E+04</rscale>
<asrwt>0</asrwt>
<pdfrwt beam="1">  1        2 0.21486450E+00 0.23089822E+04</pdfrwt>
<pdfrwt beam="2">  1       -2 0.14682155E+00 0.23089822E+04</pdfrwt>
<totfact> 0.41761364E+00</totfact>
</mgrwt>
</event>
<event>
 6    1  0.1098490E-005  0.2929877E+04  0.7818608E-02  0.8264043E-01
          2   -1    0    0  501    0  0.00000000000E+00  0.00000000000E+00  0.15889900262E+04  0.15889900262E+04  0.00000000000E+00 0. -1.
         -2   -1    0    0    0  501 -0.00000000000E+00 -0.00000000000E+00 -0.13505715557E+04  0.13505715557E+04  0.00000000000E+00 0.  1.
         23    2    1    2    0    0  0.45077504198E+03  0.68667180107E+03  0.13346078137E+04  0.15697632840E+04  0.90898022715E+02 0.  0.
         11    1    3    3    0    0  0.36332025699E+03  0.50713017904E+03  0.95247871643E+03  0.11385948941E+04  0.00000000000E+00 0. -1.
        -11    1    3    3    0    0  0.87454784993E+02  0.17954162203E+03  0.38212909728E+03  0.43116838990E+03  0.00000000000E+00 0.  1.
         22    1    1    2    0    0 -0.45077504198E+03 -0.68667180107E+03 -0.10961893432E+04  0.13697982979E+04  0.00000000000E+00 0.  1.
<mgrwt>
<rscale>  0 0.29298769E+04</rscale>
<asrwt>0</asrwt>
<pdfrwt beam="1">  1        2 0.24446000E+00 0.29298769E+04</pdfrwt>
<pdfrwt beam="2">  1       -2 0.20778024E+00 0.29298769E+04</pdfrwt>
<totfact> 0.11526463E+00</totfact>
</mgrwt>
</event>
<event>
 6    1  0.1001928E-005  0.2302274E+04  0.7818608E-02  0.8477025E-01
         -2   -1    0    0    0  501 -0.00000000000E+00  0.00000000000E+00  0.40741970463E+03  0.40741970463E+03  0.00000000000E+00 0.  1.
          2   -1    0    0  501    0  0.00000000000E+00 -0.00000000000E+00 -0.32524602314E+04  0.32524602314E+04  0.00000000000E+00 0. -1.
         23    2    1    2    0    0  0.10503884640E+04  0.35674249167E+03 -0.19027599326E+04  0.22043821350E+04  0.90686854182E+02 0.  0.
         11    1    3    3    0    0  0.27514685506E+03  0.11616307740E+03 -0.58120749867E+03  0.65345375423E+03  0.00000000000E+00 0. -1.
        -11    1    3    3    0    0  0.77524160890E+03  0.24057941427E+03 -0.13215524339E+04  0.15509283808E+04  0.00000000000E+00 0.  1.
         22    1    1    2    0    0 -0.10503884640E+04 -0.35674249167E+03 -0.94228059422E+03  0.14554978010E+04  0.00000000000E+00 0.  1.
<mgrwt>
<rscale>  0 0.23022740E+04</rscale>
<asrwt>0</asrwt>
<pdfrwt beam="1">  1        2 0.50037850E+00 0.23022740E+04</pdfrwt>
<pdfrwt beam="2">  1       -2 0.62679954E-01 0.23022740E+04</pdfrwt>
<totfact> 0.25666809E+00</totfact>
</mgrwt>
</event>
<event>
 6    1  0.1001928E-005  0.1034750E+04  0.7818608E-02  0.9271232E-01
          2   -1    0    0  501    0  0.00000000000E+00  0.00000000000E+00  0.17716313989E+04  0.17716313989E+04  0.00000000000E+00 0. -1.
         -2   -1    0    0    0  501 -0.00000000000E+00 -0.00000000000E+00 -0.15109056314E+03  0.15109056314E+03  0.00000000000E+00 0.  1.
         23    2    1    2    0    0  0.56468427436E+02  0.38879300405E+03  0.14304925590E+04  0.14862966754E+04  0.91761444766E+02 0.  0.
         13    1    3    3    0    0  0.19940606995E+02  0.34075705837E+03  0.12609783514E+04  0.13063611305E+04  0.00000000000E+00 0. -1.
        -13    1    3    3    0    0  0.36527820441E+02  0.48035945682E+02  0.16951420759E+03  0.17993554490E+03  0.00000000000E+00 0.  1.
         22    1    1    2    0    0 -0.56468427436E+02 -0.38879300405E+03  0.19004827678E+03  0.43642528662E+03  0.00000000000E+00 0.  1.
<mgrwt>
<rscale>  0 0.10347498E+04</rscale>
<asrwt>0</asrwt>
<pdfrwt beam="1">  1        2 0.27255866E+00 0.10347498E+04</pdfrwt>
<pdfrwt beam="2">  1       -2 0.23244703E-01 0.10347498E+04</pdfrwt>
<totfact> 0.14600383E+02</totfact>
</mgrwt>
</event>
<event>
 6    1  0.1001928E-005  0.3733060E+04  0.7818608E-02  0.8060675E-01
         -2   -1    0    0    0  501 -0.00000000000E+00  0.00000000000E+00  0.30590212518E+04  0.30590212518E+04  0.00000000000E+00 0.  1.
          2   -1    0    0  501    0  0.00000000000E+00 -0.00000000000E+00 -0.11389048355E+04  0.11389048355E+04  0.00000000000E+00 0. -1.
         23    2    1    2    0    0 -0.14388644089E+04  0.67881002955E+03  0.20559093908E+04  0.26011939321E+04  0.91283106266E+02 0.  0.
         11    1    3    3    0    0 -0.71089901783E+03  0.36611721493E+03  0.97360802302E+03  0.12598935713E+04  0.00000000000E+00 0. -1.
        -11    1    3    3    0    0 -0.72796539110E+03  0.31269281462E+03  0.10823013678E+04  0.13413003608E+04  0.00000000000E+00 0.  1.
         22    1    1    2    0    0  0.14388644089E+04 -0.67881002955E+03 -0.13579297447E+03  0.15967321552E+04  0.00000000000E+00 0. -1.
<mgrwt>
<rscale>  0 0.37330599E+04</rscale>
<asrwt>0</asrwt>
<pdfrwt beam="1">  1        2 0.17521613E+00 0.37330599E+04</pdfrwt>
<pdfrwt beam="2">  1       -2 0.47061865E+00 0.37330599E+04</pdfrwt>
<totfact> 0.42213022E-02</totfact>
</mgrwt>
</event>
<event>
 6    1  0.1001928E-005  0.1575503E+04  0.7818608E-02  0.8835741E-01
          1   -1    0    0  501    0  0.00000000000E+00  0.00000000000E+00  0.50178571681E+03  0.50178571681E+03  0.00000000000E+00 0. -1.
         -1   -1    0    0    0  501 -0.00000000000E+00 -0.00000000000E+00 -0.12366876210E+04  0.12366876210E+04  0.00000000000E+00 0.  1.
         23    2    1    2    0    0 -0.35592102270E+03  0.20938010556E+03  0.36803971778E+03  0.56076368578E+03  0.92102521245E+02 0.  0.
         11    1    3    3    0    0 -0.10419418111E+03  0.17142274117E+02  0.77830263490E+02  0.13117863718E+03  0.00000000000E+00 0.  1.
        -11    1    3    3    0    0 -0.25172684159E+03  0.19223783144E+03  0.29020945429E+03  0.42958504860E+03  0.00000000000E+00 0. -1.
         22    1    1    2    0    0  0.35592102270E+03 -0.20938010556E+03 -0.11029416220E+04  0.11777096521E+04  0.00000000000E+00 0.  1.
<mgrwt>
<rscale>  0 0.15755027E+04</rscale>
<asrwt>0</asrwt>
<pdfrwt beam="1">  1        1 0.77197802E-01 0.15755027E+04</pdfrwt>
<pdfrwt beam="2">  1       -1 0.19025964E+00 0.15755027E+04</pdfrwt>
<totfact> 0.74600247E+00</totfact>
</mgrwt>
</event>
<event>
 6    1  0.1001928E-005  0.4022275E+04  0.7818608E-02  0.8000068E-01
         -2   -1    0    0    0  501 -0.00000000000E+00  0.00000000000E+00  0.21617751517E+04  0.21617751517E+04  0.00000000000E+00 0.  1.
          2   -1    0    0  501    0  0.00000000000E+00 -0.00000000000E+00 -0.18709967150E+04  0.18709967150E+04  0.00000000000E+00 0. -1.
         23    2    1    2    0    0 -0.61784241948E+03 -0.64760992711E+03  0.19499784420E+04  0.21475470708E+04  0.91731259896E+02 0.  0.
         13    1    3    3    0    0 -0.16095265003E+03 -0.19781785107E+03  0.64468706369E+03  0.69329580112E+03  0.00000000000E+00 0. -1.
        -13    1    3    3    0    0 -0.45688976944E+03 -0.44979207604E+03  0.13052913783E+04  0.14542512697E+04  0.00000000000E+00 0.  1.
         22    1    1    2    0    0  0.61784241948E+03  0.64760992711E+03 -0.16592000054E+04  0.18852247959E+04  0.00000000000E+00 0. -1.
<mgrwt>
<rscale>  0 0.40222751E+04</rscale>
<asrwt>0</asrwt>
<pdfrwt beam="1">  1        2 0.28784565E+00 0.40222751E+04</pdfrwt>
<pdfrwt beam="2">  1       -2 0.33258079E+00 0.40222751E+04</pdfrwt>
<totfact> 0.12412316E-01</totfact>
</mgrwt>
</event>
<event>
 6    1  0.1001928E-005  0.1871892E+04  0.7818608E-02  0.8668975E-01
         -1   -1    0    0    0  501 -0.00000000000E+00  0.00000000000E+00  0.34313471558E+03  0.34313471558E+03  0.00000000000E+00 0.  1.
          1   -1    0    0  501    0  0.00000000000E+00 -0.00000000000E+00 -0.25529193343E+04  0.25529193343E+04  0.00000000000E+00 0. -1.
         23    2    1    2    0    0 -0.33043316391E+03 -0.24956071702E+03 -0.24022596783E+04  0.24394215107E+04  0.91973462032E+02 0.  0.
         13    1    3    3    0    0 -0.15191038232E+03 -0.58828675576E+02 -0.90911995028E+03  0.92359983831E+03  0.00000000000E+00 0.  1.
        -13    1    3    3    0    0 -0.17852278159E+03 -0.19073204144E+03 -0.14931397280E+04  0.15158216724E+04  0.00000000000E+00 0. -1.
         22    1    1    2    0    0  0.33043316391E+03  0.24956071702E+03  0.19247505956E+03  0.45663253918E+03  0.00000000000E+00 0.  1.
<mgrwt>
<rscale>  0 0.18718924E+04</rscale>
<asrwt>0</asrwt>
<pdfrwt beam="1">  1        1 0.39275683E+00 0.18718924E+04</pdfrwt>
<pdfrwt beam="2">  1       -1 0.52789955E-01 0.18718924E+04</pdfrwt>
<totfact> 0.42262517E+00</totfact>
</mgrwt>
</event>
<event>
 6    1  0.1001928E-005  0.2851592E+04  0.7818608E-02  0.8287428E-01
         -1   -1    0    0    0  501 -0.00000000000E+00  0.00000000000E+00  0.19013069423E+04  0.19013069423E+04  0.00000000000E+00 0.  1.
          1   -1    0    0  501    0  0.00000000000E+00 -0.00000000000E+00 -0.10692087706E+04  0.10692087706E+04  0.00000000000E+00 0. -1.
         23    2    1    2    0    0 -0.76573076477E+03  0.11193554746E+04 -0.31684321236E+02  0.13625914367E+04  0.12787198485E+03 0.  0.
         11    1    3    3    0    0 -0.69171771566E+03  0.93402199125E+03 -0.15533200427E+02  0.11623733301E+04  0.00000000000E+00 0. -1.
        -11    1    3    3    0    0 -0.74013049109E+02  0.18533348338E+03 -0.16151120809E+02  0.20021810658E+03  0.00000000000E+00 0.  1.
         22    1    1    2    0    0  0.76573076477E+03 -0.11193554746E+04  0.86378249302E+03  0.16079242762E+04  0.00000000000E+00 0.  1.
<mgrwt>
<rscale>  0 0.28515919E+04</rscale>
<asrwt>0</asrwt>
<pdfrwt beam="1">  1        1 0.16449366E+00 0.28515919E+04</pdfrwt>
<pdfrwt beam="2">  1       -1 0.29250876E+00 0.28515919E+04</pdfrwt>
<totfact> 0.42584417E-01</totfact>
</mgrwt>
</event>
<event>
 6    1  0.1001928E-005  0.1739783E+04  0.7818608E-02  0.8738995E-01
          1   -1    0    0  501    0  0.00000000000E+00  0.00000000000E+00  0.35809645773E+04  0.35809645773E+04  0.00000000000E+00 0. -1.
         -1   -1    0    0    0  501 -0.00000000000E+00 -0.00000000000E+00 -0.21131481644E+03  0.21131481644E+03  0.00000000000E+00 0.  1.
         23    2    1    2    0    0  0.76492420901E+03 -0.11802162974E+03  0.83993003877E+03  0.11468077868E+04  0.10318662375E+03 0.  0.
         11    1    3    3    0    0  0.45348783564E+03 -0.10912930788E+03  0.45518238326E+03  0.65172956427E+03  0.00000000000E+00 0.  1.
        -11    1    3    3    0    0  0.31143637337E+03 -0.88923218544E+01  0.38474765552E+03  0.49507822258E+03  0.00000000000E+00 0. -1.
         22    1    1    2    0    0 -0.76492420901E+03  0.11802162974E+03  0.25297197221E+04  0.26454716069E+04  0.00000000000E+00 0. -1.
<mgrwt>
<rscale>  0 0.17397826E+04</rscale>
<asrwt>0</asrwt>
<pdfrwt beam="1">  1        1 0.55091758E+00 0.17397826E+04</pdfrwt>
<pdfrwt beam="2">  1       -1 0.32509974E-01 0.17397826E+04</pdfrwt>
<totfact> 0.18240635E+00</totfact>
</mgrwt>
</event>
<event>
 6    1  0.1001928E-005  0.2583058E+04  0.7818608E-02  0.8373979E-01
         -1   -1    0    0    0  501 -0.00000000000E+00  0.00000000000E+00  0.37829187718E+04  0.37829187718E+04  0.00000000000E+00 0.  1.
          1   -1    0    0  501    0  0.00000000000E+00 -0.00000000000E+00 -0.44094199058E+03  0.44094199058E+03  0.00000000000E+00 0. -1.
         23    2    1    2    0    0  0.95723950243E+03  0.17855965525E+03  0.28968252862E+03  0.10200050821E+04  0.91122909530E+02 0.  0.
         11    1    3    3    0    0  0.38242142506E+03  0.49554054339E+02  0.74045062895E+02  0.39266324246E+03  0.00000000000E+00 0.  1.
        -11    1    3    3    0    0  0.57481807737E+03  0.12900560091E+03  0.21563746572E+03  0.62734183964E+03  0.00000000000E+00 0. -1.
         22    1    1    2    0    0 -0.95723950243E+03 -0.17855965525E+03  0.30522942526E+04  0.32038556802E+04  0.00000000000E+00 0.  1.
<mgrwt>
<rscale>  0 0.25830584E+04</rscale>
<asrwt>0</asrwt>
<pdfrwt beam="1">  1        1 0.67837232E-01 0.25830584E+04</pdfrwt>
<pdfrwt beam="2">  1       -1 0.58198748E+00 0.25830584E+04</pdfrwt>
<totfact> 0.23999285E-02</totfact>
</mgrwt>
</event>
<event>
 6    1  0.1001928E-005  0.1568353E+04  0.7818608E-02  0.8840229E-01
          2   -1    0    0  501    0  0.00000000000E+00  0.00000000000E+00  0.12278571766E+04  0.12278571766E+04  0.00000000000E+00 0. -1.
         -2   -1    0    0    0  501 -0.00000000000E+00 -0.00000000000E+00 -0.50081794428E+03  0.50081794428E+03  0.00000000000E+00 0.  1.
         23    2    1    2    0    0 -0.38281580894E+03  0.34938239215E+03 -0.28000732147E+03  0.59608571558E+03  0.91093801763E+02 0.  0.
         13    1    3    3    0    0 -0.15832841811E+03  0.15479029185E+03 -0.17049401162E+03  0.27945684897E+03  0.00000000000E+00 0.  1.
        -13    1    3    3    0    0 -0.22448739083E+03  0.19459210030E+03 -0.10951330984E+03  0.31662886661E+03  0.00000000000E+00 0. -1.
         22    1    1    2    0    0  0.38281580894E+03 -0.34938239215E+03  0.10070465537E+04  0.11325894053E+04  0.00000000000E+00 0. -1.
<mgrwt>
<rscale>  0 0.15683532E+04</rscale>
<asrwt>0</asrwt>
<pdfrwt beam="1">  1        2 0.18890110E+00 0.15683532E+04</pdfrwt>
<pdfrwt beam="2">  1       -2 0.77048915E-01 0.15683532E+04</pdfrwt>
<totfact> 0.26354981E+01</totfact>
</mgrwt>
</event>
<event>
 6    1  0.1001928E-005  0.1947148E+04  0.7818608E-02  0.8631737E-01
          1   -1    0    0  501    0  0.00000000000E+00  0.00000000000E+00  0.11300629349E+04  0.11300629349E+04  0.00000000000E+00 0. -1.
         -1   -1    0    0    0  501 -0.00000000000E+00 -0.00000000000E+00 -0.83875522418E+03  0.83875522418E+03  0.00000000000E+00 0.  1.
         23    2    1    2    0    0  0.84327229503E+03  0.49610212886E+02 -0.33984009818E+03  0.91434345883E+03  0.83446579193E+02 0.  0.
         11    1    3    3    0    0  0.58768596648E+03  0.72154589459E+02 -0.22880649047E+03  0.63477042311E+03  0.00000000000E+00 0. -1.
        -11    1    3    3    0    0  0.25558632856E+03 -0.22544376573E+02 -0.11103360772E+03  0.27957303572E+03  0.00000000000E+00 0.  1.
         22    1    1    2    0    0 -0.84327229503E+03 -0.49610212886E+02  0.63114780889E+03  0.10544747002E+04  0.00000000000E+00 0. -1.
<mgrwt>
<rscale>  0 0.19471479E+04</rscale>
<asrwt>0</asrwt>
<pdfrwt beam="1">  1        1 0.17385584E+00 0.19471479E+04</pdfrwt>
<pdfrwt beam="2">  1       -1 0.12903927E+00 0.19471479E+04</pdfrwt>
<totfact> 0.57967283E+00</totfact>
</mgrwt>
</event>
<event>
 6    1  0.1001928E-005  0.2050868E+04  0.7818608E-02  0.8583201E-01
          1   -1    0    0  501    0  0.00000000000E+00  0.00000000000E+00  0.15014646768E+04  0.15014646768E+04  0.00000000000E+00 0. -1.
         -1   -1    0    0    0  501 -0.00000000000E+00 -0.00000000000E+00 -0.70032591650E+03  0.70032591650E+03  0.00000000000E+00 0.  1.
         23    2    1    2    0    0  0.80987279739E+03 -0.19448360835E+03 -0.23679202025E+03  0.87099454316E+03  0.94038351206E+02 0.  0.
         13    1    3    3    0    0  0.14875718134E+03 -0.71358740562E+02 -0.32421490302E+02  0.16814256417E+03  0.00000000000E+00 0. -1.
        -13    1    3    3    0    0  0.66111561605E+03 -0.12312486779E+03 -0.20437052994E+03  0.70285197899E+03  0.00000000000E+00 0.  1.
         22    1    1    2    0    0 -0.80987279739E+03  0.19448360835E+03  0.10379307806E+04  0.13307960502E+04  0.00000000000E+00 0.  1.
<mgrwt>
<rscale>  0 0.20508677E+04</rscale>
<asrwt>0</asrwt>
<pdfrwt beam="1">  1        1 0.23099457E+00 0.20508677E+04</pdfrwt>
<pdfrwt beam="2">  1       -1 0.10774245E+00 0.20508677E+04</pdfrwt>
<totfact> 0.48308449E+00</totfact>
</mgrwt>
</event>
<event>
 6    1  0.1001928E-005  0.1654916E+04  0.7818608E-02  0.8787503E-01
          1   -1    0    0  501    0  0.00000000000E+00  0.00000000000E+00  0.57685176871E+03  0.57685176871E+03  0.00000000000E+00 0. -1.
         -1   -1    0    0    0  501 -0.00000000000E+00 -0.00000000000E+00 -0.11869372096E+04  0.11869372096E+04  0.00000000000E+00 0.  1.
         23    2    1    2    0    0 -0.22948990468E+03 -0.25873438390E+03  0.49224764930E+03  0.60847631956E+03  0.91250125802E+02 0.  0.
         11    1    3    3    0    0 -0.12798174445E+03 -0.12817550743E+03  0.18124914504E+03  0.25624117584E+03  0.00000000000E+00 0. -1.
        -11    1    3    3    0    0 -0.10150816023E+03 -0.13055887646E+03  0.31099850426E+03  0.35223514372E+03  0.00000000000E+00 0.  1.
         22    1    1    2    0    0  0.22948990468E+03  0.25873438390E+03 -0.11023330902E+04  0.11553126588E+04  0.00000000000E+00 0.  1.
<mgrwt>
<rscale>  0 0.16549161E+04</rscale>
<asrwt>0</asrwt>
<pdfrwt beam="1">  1        1 0.88746426E-01 0.16549161E+04</pdfrwt>
<pdfrwt beam="2">  1       -1 0.18260572E+00 0.16549161E+04</pdfrwt>
<totfact> 0.69008260E+00</totfact>
</mgrwt>
</event>
<event>
 6    1  0.1001928E-005  0.2168489E+04  0.7818608E-02  0.8531659E-01
         -2   -1    0    0    0  501 -0.00000000000E+00  0.00000000000E+00  0.11459864278E+04  0.11459864278E+04  0.00000000000E+00 0. -1.
          2   -1    0    0  501    0  0.00000000000E+00 -0.00000000000E+00 -0.10258288926E+04  0.10258288926E+04  0.00000000000E+00 0.  1.
         23    2    1    2    0    0 -0.72132938703E+03 -0.10419521184E+02  0.86838813245E+03  0.11324531710E+04  0.89036985821E+02 0.  0.
         11    1    3    3    0    0 -0.30179572603E+03 -0.40083324677E+02  0.40486735566E+03  0.50656185096E+03  0.00000000000E+00 0. -1.
        -11    1    3    3    0    0 -0.41953366100E+03  0.29663803493E+02  0.46352077679E+03  0.62589132001E+03  0.00000000000E+00 0.  1.
         22    1    1    2    0    0  0.72132938703E+03  0.10419521184E+02 -0.74823059721E+03  0.10393621494E+04  0.00000000000E+00 0.  1.
<mgrwt>
<rscale>  0 0.21684889E+04</rscale>
<asrwt>0</asrwt>
<pdfrwt beam="1">  1        2 0.15781983E+00 0.21684889E+04</pdfrwt>
<pdfrwt beam="2">  1       -2 0.17630560E+00 0.21684889E+04</pdfrwt>
<totfact> 0.42741537E+00</totfact>
</mgrwt>
</event>
<event>
 6    1  0.1001928E-005  0.9929022E+03  0.7818608E-02  0.9316364E-01
          2   -1    0    0  501    0  0.00000000000E+00  0.00000000000E+00  0.23388655358E+04  0.23388655358E+04  0.00000000000E+00 0. -1.
         -2   -1    0    0    0  501 -0.00000000000E+00 -0.00000000000E+00 -0.10537746289E+03  0.10537746289E+03  0.00000000000E+00 0.  1.
         23    2    1    2    0    0  0.17144958371E+03 -0.43110938249E+03  0.15316512380E+04  0.16029195161E+04  0.90250767451E+02 0.  0.
         13    1    3    3    0    0  0.10222416911E+03 -0.34927152930E+03  0.11262846761E+04  0.11836205277E+04  0.00000000000E+00 0.  1.
        -13    1    3    3    0    0  0.69225414600E+02 -0.81837853187E+02  0.40536656185E+03  0.41929898844E+03  0.00000000000E+00 0. -1.
         22    1    1    2    0    0 -0.17144958371E+03  0.43110938249E+03  0.70183683497E+03  0.84132348258E+03  0.00000000000E+00 0.  1.
<mgrwt>
<rscale>  0 0.99290224E+03</rscale>
<asrwt>0</asrwt>
<pdfrwt beam="1">  1        2 0.35982543E+00 0.99290224E+03</pdfrwt>
<pdfrwt beam="2">  1       -2 0.16211919E-01 0.99290224E+03</pdfrwt>
<totfact> 0.13363800E+02</totfact>
</mgrwt>
</event>
<event>
 6    1  0.1001928E-005  0.2341476E+04  0.7818608E-02  0.8461745E-01
          2   -1    0    0  501    0  0.00000000000E+00  0.00000000000E+00  0.90947549580E+03  0.90947549580E+03  0.00000000000E+00 0. -1.
         -2   -1    0    0    0  501 -0.00000000000E+00 -0.00000000000E+00 -0.15070522753E+04  0.15070522753E+04  0.00000000000E+00 0.  1.
         23    2    1    2    0    0 -0.81141762148E+03 -0.35914403245E+03  0.48626838777E+03  0.10157767800E+04  0.89233005654E+02 0.  0.
         11    1    3    3    0    0 -0.47204389433E+03 -0.25375858039E+03  0.30953492507E+03  0.61889476095E+03  0.00000000000E+00 0.  1.
        -11    1    3    3    0    0 -0.33937372716E+03 -0.10538545206E+03  0.17673346270E+03  0.39688201903E+03  0.00000000000E+00 0. -1.
         22    1    1    2    0    0  0.81141762148E+03  0.35914403245E+03 -0.10838451673E+04  0.14007509911E+04  0.00000000000E+00 0.  1.
<mgrwt>
<rscale>  0 0.23414757E+04</rscale>
<asrwt>0</asrwt>
<pdfrwt beam="1">  1        2 0.13991931E+00 0.23414757E+04</pdfrwt>
<pdfrwt beam="2">  1       -2 0.23185419E+00 0.23414757E+04</pdfrwt>
<totfact> 0.21726431E+00</totfact>
</mgrwt>
</event>
<event>
 6    1  0.1001928E-005  0.1161272E+04  0.7818608E-02  0.9147447E-01
          2   -1    0    0  501    0  0.00000000000E+00  0.00000000000E+00  0.50221779346E+03  0.50221779346E+03  0.00000000000E+00 0.  1.
         -2   -1    0    0    0  501 -0.00000000000E+00 -0.00000000000E+00 -0.67129878138E+03  0.67129878138E+03  0.00000000000E+00 0. -1.
         23    2    1    2    0    0 -0.20501325059E+03  0.19998548379E+03  0.42141665184E+03  0.51722998409E+03  0.88939503883E+02 0.  0.
         11    1    3    3    0    0 -0.11346128574E+03  0.15865947767E+03  0.23437193989E+03  0.30492048049E+03  0.00000000000E+00 0. -1.
        -11    1    3    3    0    0 -0.91551964845E+02  0.41326006119E+02  0.18704471195E+03  0.21230950359E+03  0.00000000000E+00 0.  1.
         22    1    1    2    0    0  0.20501325059E+03 -0.19998548379E+03 -0.59049763975E+03  0.65628659075E+03  0.00000000000E+00 0. -1.
<mgrwt>
<rscale>  0 0.11612720E+04</rscale>
<asrwt>0</asrwt>
<pdfrwt beam="1">  1        2 0.77264276E-01 0.11612720E+04</pdfrwt>
<pdfrwt beam="2">  1       -2 0.10327674E+00 0.11612720E+04</pdfrwt>
<totfact> 0.46356993E+01</totfact>
</mgrwt>
</event>
<event>
 6    1  0.1001928E-005  0.2435188E+04  0.7818608E-02  0.8426446E-01
          2   -1    0    0  501    0  0.00000000000E+00  0.00000000000E+00  0.28705568311E+04  0.28705568311E+04  0.00000000000E+00 0. -1.
         -2   -1    0    0    0  501 -0.00000000000E+00 -0.00000000000E+00 -0.51646251914E+03  0.51646251914E+03  0.00000000000E+00 0.  1.
         23    2    1    2    0    0  0.86940594356E+03  0.61885889211E+03  0.19891466054E+04  0.22591719086E+04  0.91106925951E+02 0.  0.
         13    1    3    3    0    0  0.19813735588E+03  0.17222294695E+03  0.55374525942E+03  0.61282376551E+03  0.00000000000E+00 0.  1.
        -13    1    3    3    0    0  0.67126858767E+03  0.44663594516E+03  0.14354013460E+04  0.16463481431E+04  0.00000000000E+00 0. -1.
         22    1    1    2    0    0 -0.86940594356E+03 -0.61885889211E+03  0.36494770657E+03  0.11278474416E+04  0.00000000000E+00 0.  1.
<mgrwt>
<rscale>  0 0.24351879E+04</rscale>
<asrwt>0</asrwt>
<pdfrwt beam="1">  1        2 0.44162412E+00 0.24351879E+04</pdfrwt>
<pdfrwt beam="2">  1       -2 0.79455774E-01 0.24351879E+04</pdfrwt>
<totfact> 0.26365702E+00</totfact>
</mgrwt>
</event>
<event>
 6    1  0.1001928E-005  0.8767249E+03  0.7818608E-02  0.9455153E-01
          2   -1    0    0  501    0  0.00000000000E+00  0.00000000000E+00  0.17422206771E+04  0.17422206771E+04  0.00000000000E+00 0. -1.
         -2   -1    0    0    0  501 -0.00000000000E+00 -0.00000000000E+00 -0.11029695733E+03  0.11029695733E+03  0.00000000000E+00 0.  1.
         23    2    1    2    0    0 -0.41696733258E+03 -0.92870456123E+02  0.66540363629E+03  0.79580208621E+03  0.89734514924E+02 0.  0.
         13    1    3    3    0    0 -0.94244845275E+02  0.15267244302E+02  0.16467007725E+03  0.19034551203E+03  0.00000000000E+00 0.  1.
        -13    1    3    3    0    0 -0.32272248731E+03 -0.10813770042E+03  0.50073355904E+03  0.60545657418E+03  0.00000000000E+00 0. -1.
         22    1    1    2    0    0  0.41696733258E+03  0.92870456123E+02  0.96652008346E+03  0.10567155482E+04  0.00000000000E+00 0.  1.
<mgrwt>
<rscale>  0 0.87672490E+03</rscale>
<asrwt>0</asrwt>
<pdfrwt beam="1">  1        2 0.26803393E+00 0.87672490E+03</pdfrwt>
<pdfrwt beam="2">  1       -2 0.16968764E-01 0.87672490E+03</pdfrwt>
<totfact> 0.26609538E+02</totfact>
</mgrwt>
</event>
<event>
 6    1  0.1001928E-005  0.3619865E+04  0.7818608E-02  0.8085957E-01
         -2   -1    0    0    0  501 -0.00000000000E+00  0.00000000000E+00  0.24456740697E+04  0.24456740697E+04  0.00000000000E+00 0.  1.
          2   -1    0    0  501    0  0.00000000000E+00 -0.00000000000E+00 -0.13394486824E+04  0.13394486824E+04  0.00000000000E+00 0. -1.
         23    2    1    2    0    0 -0.15008891734E+04 -0.34976296770E+03 -0.43668582482E+03  0.16043941002E+04  0.91561318176E+02 0.  0.
         11    1    3    3    0    0 -0.44206817408E+03 -0.10254621997E+03 -0.17228996524E+03  0.48541099069E+03  0.00000000000E+00 0.  1.
        -11    1    3    3    0    0 -0.10588209993E+04 -0.24721674773E+03 -0.26439585959E+03  0.11189831096E+04  0.00000000000E+00 0. -1.
         22    1    1    2    0    0  0.15008891734E+04  0.34976296770E+03  0.15429112121E+04  0.21807286518E+04  0.00000000000E+00 0.  1.
<mgrwt>
<rscale>  0 0.36198646E+04</rscale>
<asrwt>0</asrwt>
<pdfrwt beam="1">  1        2 0.20606903E+00 0.36198646E+04</pdfrwt>
<pdfrwt beam="2">  1       -2 0.37625755E+00 0.36198646E+04</pdfrwt>
<totfact> 0.13496576E-01</totfact>
</mgrwt>
</event>
<event>
 6    1  0.1001928E-005  0.3192882E+04  0.7818608E-02  0.8190700E-01
          2   -1    0    0  501    0  0.00000000000E+00  0.00000000000E+00  0.23575337828E+04  0.23575337828E+04  0.00000000000E+00 0. -1.
         -2   -1    0    0    0  501 -0.00000000000E+00 -0.00000000000E+00 -0.10810548547E+04  0.10810548547E+04  0.00000000000E+00 0.  1.
         23    2    1    2    0    0  0.10162614100E+04  0.35479765510E+03  0.19065325859E+04  0.21913371627E+04  0.91779247240E+02 0.  0.
         11    1    3    3    0    0  0.66705164337E+03  0.21057657553E+03  0.13142393190E+04  0.14887999787E+04  0.00000000000E+00 0. -1.
        -11    1    3    3    0    0  0.34920976665E+03  0.14422107957E+03  0.59229326690E+03  0.70253718402E+03  0.00000000000E+00 0.  1.
         22    1    1    2    0    0 -0.10162614100E+04 -0.35479765510E+03 -0.63005365780E+03  0.12472514747E+04  0.00000000000E+00 0.  1.
<mgrwt>
<rscale>  0 0.31928817E+04</rscale>
<asrwt>0</asrwt>
<pdfrwt beam="1">  1        2 0.36269750E+00 0.31928817E+04</pdfrwt>
<pdfrwt beam="2">  1       -2 0.16631613E+00 0.31928817E+04</pdfrwt>
<totfact> 0.80225022E-01</totfact>
</mgrwt>
</event>
<event>
 6    1  0.1001928E-005  0.1713674E+04  0.7818608E-02  0.8753604E-01
          1   -1    0    0  501    0  0.00000000000E+00  0.00000000000E+00  0.28206527021E+04  0.28206527021E+04  0.00000000000E+00 0. -1.
         -1   -1    0    0    0  501 -0.00000000000E+00 -0.00000000000E+00 -0.26028347895E+03  0.26028347895E+03  0.00000000000E+00 0.  1.
         23    2    1    2    0    0  0.46849491812E+03 -0.65002916926E+03  0.74987019473E+03  0.11010543308E+04  0.89386358918E+02 0.  0.
         11    1    3    3    0    0  0.24546575512E+03 -0.29091868792E+03  0.40171995261E+03  0.55341308283E+03  0.00000000000E+00 0. -1.
        -11    1    3    3    0    0  0.22302916299E+03 -0.35911048134E+03  0.34815024211E+03  0.54764124793E+03  0.00000000000E+00 0.  1.
         22    1    1    2    0    0 -0.46849491812E+03  0.65002916926E+03  0.18104990284E+04  0.19798818503E+04  0.00000000000E+00 0. -1.
<mgrwt>
<rscale>  0 0.17136736E+04</rscale>
<asrwt>0</asrwt>
<pdfrwt beam="1">  1        1 0.43394655E+00 0.17136736E+04</pdfrwt>
<pdfrwt beam="2">  1       -1 0.40043614E-01 0.17136736E+04</pdfrwt>
<totfact> 0.46678749E+00</totfact>
</mgrwt>
</event>
<event>
 6    1  0.1001928E-005  0.1380845E+04  0.7818608E-02  0.8967801E-01
         -2   -1    0    0    0  501 -0.00000000000E+00  0.00000000000E+00  0.38443488865E+03  0.38443488865E+03  0.00000000000E+00 0.  1.
          2   -1    0    0  501    0  0.00000000000E+00 -0.00000000000E+00 -0.12399590876E+04  0.12399590876E+04  0.00000000000E+00 0. -1.
         23    2    1    2    0    0 -0.18009972637E+03  0.57163070978E+02 -0.12070852099E+04  0.12252715984E+04  0.92370220221E+02 0.  0.
         13    1    3    3    0    0 -0.13439767399E+03 -0.15925404757E+01 -0.84393091971E+03  0.85456694776E+03  0.00000000000E+00 0. -1.
        -13    1    3    3    0    0 -0.45702052374E+02  0.58755611454E+02 -0.36315429022E+03  0.37070465060E+03  0.00000000000E+00 0.  1.
         22    1    1    2    0    0  0.18009972637E+03 -0.57163070978E+02  0.35156101096E+03  0.39912237791E+03  0.00000000000E+00 0.  1.
<mgrwt>
<rscale>  0 0.13808454E+04</rscale>
<asrwt>0</asrwt>
<pdfrwt beam="1">  1        2 0.19076294E+00 0.13808454E+04</pdfrwt>
<pdfrwt beam="2">  1       -2 0.59143828E-01 0.13808454E+04</pdfrwt>
<totfact> 0.46657437E+01</totfact>
</mgrwt>
</event>
<event>
 6    1  0.1449677E-005  0.3037428E+04  0.7818608E-02  0.8233123E-01
         -2   -1    0    0    0  501 -0.00000000000E+00  0.00000000000E+00  0.21524430753E+04  0.21524430753E+04  0.00000000000E+00 0.  1.
          2   -1    0    0  501    0  0.00000000000E+00 -0.00000000000E+00 -0.10715691187E+04  0.10715691187E+04  0.00000000000E+00 0. -1.
         23    2    1    2    0    0  0.70996575170E+03 -0.22396900970E+03 -0.86235481155E+03  0.11430625235E+04  0.93394997989E+02 0.  0.
         13    1    3    3    0    0  0.31751920702E+03 -0.10231044383E+03 -0.31641692474E+03  0.45978858620E+03  0.00000000000E+00 0.  1.
        -13    1    3    3    0    0  0.39244654468E+03 -0.12165856586E+03 -0.54593788681E+03  0.68327393725E+03  0.00000000000E+00 0. -1.
         22    1    1    2    0    0 -0.70996575170E+03  0.22396900970E+03  0.19432287681E+04  0.20809496705E+04  0.00000000000E+00 0.  1.
<mgrwt>
<rscale>  0 0.30374275E+04</rscale>
<asrwt>0</asrwt>
<pdfrwt beam="1">  1        2 0.16485679E+00 0.30374275E+04</pdfrwt>
<pdfrwt beam="2">  1       -2 0.33114509E+00 0.30374275E+04</pdfrwt>
<totfact> 0.39535237E-01</totfact>
</mgrwt>
</event>
<event>
 6    1  0.1001928E-005  0.3222347E+04  0.7818608E-02  0.8182940E-01
         -1   -1    0    0    0  501 -0.00000000000E+00  0.00000000000E+00  0.24247142010E+04  0.24247142010E+04  0.00000000000E+00 0.  1.
          1   -1    0    0  501    0  0.00000000000E+00 -0.00000000000E+00 -0.10705920397E+04  0.10705920397E+04  0.00000000000E+00 0. -1.
         23    2    1    2    0    0  0.55913453074E+03  0.15095609788E+04  0.68449620132E+03  0.17518026708E+04  0.94190103002E+02 0.  0.
         13    1    3    3    0    0  0.21393850226E+03  0.70526663186E+03  0.32957084012E+03  0.80733366301E+03  0.00000000000E+00 0. -1.
        -13    1    3    3    0    0  0.34519602849E+03  0.80429434692E+03  0.35492536120E+03  0.94446900775E+03  0.00000000000E+00 0.  1.
         22    1    1    2    0    0 -0.55913453074E+03 -0.15095609788E+04  0.66962595994E+03  0.17435035699E+04  0.00000000000E+00 0.  1.
<mgrwt>
<rscale>  0 0.32223468E+04</rscale>
<asrwt>0</asrwt>
<pdfrwt beam="1">  1        1 0.16470647E+00 0.32223468E+04</pdfrwt>
<pdfrwt beam="2">  1       -1 0.37303295E+00 0.32223468E+04</pdfrwt>
<totfact> 0.12143230E-01</totfact>
</mgrwt>
</event>
<event>
 6    1  0.1001928E-005  0.1240886E+04  0.7818608E-02  0.9077803E-01
         -1   -1    0    0    0  501 -0.00000000000E+00  0.00000000000E+00  0.35092637691E+03  0.35092637691E+03  0.00000000000E+00 0. -1.
          1   -1    0    0  501    0  0.00000000000E+00 -0.00000000000E+00 -0.10969529226E+04  0.10969529226E+04  0.00000000000E+00 0.  1.
         23    2    1    2    0    0 -0.13389428284E+03 -0.22951954800E+03 -0.10248198516E+04  0.10627395726E+04  0.92481182760E+02 0.  0.
         11    1    3    3    0    0 -0.77684702093E+02 -0.20167109417E+03 -0.72993519199E+03  0.76125654523E+03  0.00000000000E+00 0. -1.
        -11    1    3    3    0    0 -0.56209580746E+02 -0.27848453836E+02 -0.29488465957E+03  0.30148302738E+03  0.00000000000E+00 0.  1.
         22    1    1    2    0    0  0.13389428284E+03  0.22951954800E+03  0.27879330583E+03  0.38513972694E+03  0.00000000000E+00 0. -1.
<mgrwt>
<rscale>  0 0.12408863E+04</rscale>
<asrwt>0</asrwt>
<pdfrwt beam="1">  1        1 0.16876199E+00 0.12408863E+04</pdfrwt>
<pdfrwt beam="2">  1       -1 0.53988674E-01 0.12408863E+04</pdfrwt>
<totfact> 0.43557347E+01</totfact>
</mgrwt>
</event>
<event>
 6    1  0.1001928E-005  0.2050933E+04  0.7818608E-02  0.8583171E-01
          2   -1    0    0  501    0  0.00000000000E+00  0.00000000000E+00  0.52414774820E+03  0.52414774820E+03  0.00000000000E+00 0. -1.
         -2   -1    0    0    0  501 -0.00000000000E+00 -0.00000000000E+00 -0.20062693238E+04  0.20062693238E+04  0.00000000000E+00 0.  1.
         23    2    1    2    0    0  0.18786497794E+03  0.17316194487E+03 -0.19652446750E+04  0.19838951253E+04  0.91514625071E+02 0.  0.
         11    1    3    3    0    0  0.11179628210E+03  0.55724411727E+02 -0.11459709506E+04  0.11527588813E+04  0.00000000000E+00 0. -1.
        -11    1    3    3    0    0  0.76068695838E+02  0.11743753314E+03 -0.81927372433E+03  0.83113624398E+03  0.00000000000E+00 0.  1.
         22    1    1    2    0    0 -0.18786497794E+03 -0.17316194487E+03  0.48312309936E+03  0.54652194670E+03  0.00000000000E+00 0. -1.
<mgrwt>
<rscale>  0 0.20509330E+04</rscale>
<asrwt>0</asrwt>
<pdfrwt beam="1">  1        2 0.80638115E-01 0.20509330E+04</pdfrwt>
<pdfrwt beam="2">  1       -2 0.30865682E+00 0.20509330E+04</pdfrwt>
<totfact> 0.15181038E+00</totfact>
</mgrwt>
</event>
<event>
 6    1  0.1001928E-005  0.2523334E+04  0.7818608E-02  0.8394720E-01
          1   -1    0    0  501    0  0.00000000000E+00  0.00000000000E+00  0.26527810874E+04  0.26527810874E+04  0.00000000000E+00 0. -1.
         -1   -1    0    0    0  501 -0.00000000000E+00 -0.00000000000E+00 -0.60005079096E+03  0.60005079096E+03  0.00000000000E+00 0.  1.
         23    2    1    2    0    0  0.51692002826E+03  0.11230058971E+04  0.13419737289E+04  0.18268152379E+04  0.89509014082E+02 0.  0.
         11    1    3    3    0    0  0.33177372423E+03  0.72851137292E+03  0.80505097473E+03  0.11353015883E+04  0.00000000000E+00 0. -1.
        -11    1    3    3    0    0  0.18514630403E+03  0.39449452423E+03  0.53692275420E+03  0.69151364956E+03  0.00000000000E+00 0.  1.
         22    1    1    2    0    0 -0.51692002826E+03 -0.11230058971E+04  0.71075656750E+03  0.14260166405E+04  0.00000000000E+00 0.  1.
<mgrwt>
<rscale>  0 0.25233338E+04</rscale>
<asrwt>0</asrwt>
<pdfrwt beam="1">  1        1 0.40812016E+00 0.25233338E+04</pdfrwt>
<pdfrwt beam="2">  1       -1 0.92315508E-01 0.25233338E+04</pdfrwt>
<totfact> 0.10722046E+00</totfact>
</mgrwt>
</event>
<event>
 6    1  0.1001928E-005  0.9590509E+03  0.7818608E-02  0.9354634E-01
          1   -1    0    0  501    0  0.00000000000E+00  0.00000000000E+00  0.14829481905E+03  0.14829481905E+03  0.00000000000E+00 0. -1.
         -1   -1    0    0    0  501 -0.00000000000E+00 -0.00000000000E+00 -0.15505912832E+04  0.15505912832E+04  0.00000000000E+00 0.  1.
         23    2    1    2    0    0 -0.15144900102E+03 -0.24880622914E+03 -0.42759243992E+02  0.30849666308E+03  0.92198148668E+02 0.  0.
         11    1    3    3    0    0 -0.19773293094E+02 -0.43900583115E+02  0.26914957784E+02  0.55160305204E+02  0.00000000000E+00 0. -1.
        -11    1    3    3    0    0 -0.13167570793E+03 -0.20490564602E+03 -0.69674201776E+02  0.25333635788E+03  0.00000000000E+00 0.  1.
         22    1    1    2    0    0  0.15144900102E+03  0.24880622914E+03 -0.13595372201E+04  0.13903894391E+04  0.00000000000E+00 0.  1.
<mgrwt>
<rscale>  0 0.95905089E+03</rscale>
<asrwt>0</asrwt>
<pdfrwt beam="1">  1        1 0.22814589E-01 0.95905089E+03</pdfrwt>
<pdfrwt beam="2">  1       -1 0.23855249E+00 0.95905089E+03</pdfrwt>
<totfact> 0.18464014E+01</totfact>
</mgrwt>
</event>
<event>
 6    1  0.1001928E-005  0.1998073E+04  0.7818608E-02  0.8607522E-01
         -1   -1    0    0    0  501 -0.00000000000E+00  0.00000000000E+00  0.40398119941E+03  0.40398119941E+03  0.00000000000E+00 0.  1.
          1   -1    0    0  501    0  0.00000000000E+00 -0.00000000000E+00 -0.24705956222E+04  0.24705956222E+04  0.00000000000E+00 0. -1.
         23    2    1    2    0    0 -0.40880578278E+03 -0.69521464751E+03 -0.19220402792E+03  0.83402299911E+03  0.90589185598E+02 0.  0.
         13    1    3    3    0    0 -0.31451461873E+03 -0.45530208758E+03 -0.11850410854E+03  0.56591753824E+03  0.00000000000E+00 0.  1.
        -13    1    3    3    0    0 -0.94291164050E+02 -0.23991255993E+03 -0.73699919378E+02  0.26810546086E+03  0.00000000000E+00 0. -1.
         22    1    1    2    0    0  0.40880578278E+03  0.69521464751E+03 -0.18744103949E+04  0.20405538225E+04  0.00000000000E+00 0. -1.
<mgrwt>
<rscale>  0 0.19980733E+04</rscale>
<asrwt>0</asrwt>
<pdfrwt beam="1">  1        1 0.38009164E+00 0.19980733E+04</pdfrwt>
<pdfrwt beam="2">  1       -1 0.62150952E-01 0.19980733E+04</pdfrwt>
<totfact> 0.34606628E+00</totfact>
</mgrwt>
</event>
<event>
 6    1  0.1001928E-005  0.2378109E+04  0.7818608E-02  0.8447745E-01
          2   -1    0    0  501    0  0.00000000000E+00  0.00000000000E+00  0.86204868669E+03  0.86204868669E+03  0.00000000000E+00 0.  1.
         -2   -1    0    0    0  501 -0.00000000000E+00 -0.00000000000E+00 -0.16401048543E+04  0.16401048543E+04  0.00000000000E+00 0. -1.
         23    2    1    2    0    0  0.75635780612E+03 -0.35357624965E+03  0.49846824989E+03  0.97683131810E+03  0.92927566795E+02 0.  0.
         11    1    3    3    0    0  0.64283812635E+03 -0.33551649645E+03  0.42995860108E+03  0.84301635496E+03  0.00000000000E+00 0.  1.
        -11    1    3    3    0    0  0.11351967976E+03 -0.18059753202E+02  0.68509648818E+02  0.13381496314E+03  0.00000000000E+00 0. -1.
         22    1    1    2    0    0 -0.75635780612E+03  0.35357624965E+03 -0.12765244175E+04  0.15253222229E+04  0.00000000000E+00 0. -1.
<mgrwt>
<rscale>  0 0.23781087E+04</rscale>
<asrwt>0</asrwt>
<pdfrwt beam="1">  1        2 0.13262288E+00 0.23781087E+04</pdfrwt>
<pdfrwt beam="2">  1       -2 0.25232382E+00 0.23781087E+04</pdfrwt>
<totfact> 0.17435941E+00</totfact>
</mgrwt>
</event>
<event>
 6    1  0.1001928E-005  0.2967371E+04  0.7818608E-02  0.8253110E-01
          2   -1    0    0  501    0  0.00000000000E+00  0.00000000000E+00  0.26179586653E+04  0.26179586653E+04  0.00000000000E+00 0. -1.
         -2   -1    0    0    0  501 -0.00000000000E+00 -0.00000000000E+00 -0.84085473264E+03  0.84085473264E+03  0.00000000000E+00 0.  1.
         23    2    1    2    0    0  0.90887498501E+03 -0.11612297972E+04  0.71316259927E+03  0.16404406251E+04  0.89085190338E+02 0.  0.
         11    1    3    3    0    0  0.39814880399E+03 -0.52011915646E+03  0.26838087110E+03  0.70786630023E+03  0.00000000000E+00 0. -1.
        -11    1    3    3    0    0  0.51072618102E+03 -0.64111064074E+03  0.44478172817E+03  0.93257432485E+03  0.00000000000E+00 0.  1.
         22    1    1    2    0    0 -0.90887498501E+03  0.11612297972E+04  0.10639413334E+04  0.18183727729E+04  0.00000000000E+00 0. -1.
<mgrwt>
<rscale>  0 0.29673712E+04</rscale>
<asrwt>0</asrwt>
<pdfrwt beam="1">  1        2 0.40276287E+00 0.29673712E+04</pdfrwt>
<pdfrwt beam="2">  1       -2 0.12936227E+00 0.29673712E+04</pdfrwt>
<totfact> 0.11206795E+00</totfact>
</mgrwt>
</event>
<event>
 6    1  0.1001928E-005  0.8878748E+03  0.7818608E-02  0.9440867E-01
          3   -1    0    0  501    0  0.00000000000E+00  0.00000000000E+00  0.10413560312E+03  0.10413560312E+03  0.00000000000E+00 0. -1.
         -3   -1    0    0    0  501 -0.00000000000E+00 -0.00000000000E+00 -0.18925362580E+04  0.18925362580E+04  0.00000000000E+00 0.  1.
         23    2    1    2    0    0  0.23856913948E+02  0.25325204678E+03 -0.17089477956E+04  0.17301788811E+04  0.91162717403E+02 0.  0.
         11    1    3    3    0    0  0.34564004842E+01  0.10892050410E+01 -0.21004756953E+03  0.21007882934E+03  0.00000000000E+00 0. -1.
        -11    1    3    3    0    0  0.20400513464E+02  0.25216284174E+03 -0.14989002261E+04  0.15201000518E+04  0.00000000000E+00 0.  1.
         22    1    1    2    0    0 -0.23856913948E+02 -0.25325204678E+03 -0.79452859273E+02  0.26649298000E+03  0.00000000000E+00 0. -1.
<mgrwt>
<rscale>  0 0.88787478E+03</rscale>
<asrwt>0</asrwt>
<pdfrwt beam="1">  1        3 0.16020862E-01 0.88787478E+03</pdfrwt>
<pdfrwt beam="2">  1       -3 0.29115942E+00 0.88787478E+03</pdfrwt>
<totfact> 0.38910020E+00</totfact>
</mgrwt>
</event>
<event>
 6    1  0.1001928E-005  0.3970142E+04  0.7818608E-02  0.8010597E-01
         -2   -1    0    0    0  501 -0.00000000000E+00  0.00000000000E+00  0.10466695844E+04  0.10466695844E+04  0.00000000000E+00 0.  1.
          2   -1    0    0  501    0  0.00000000000E+00 -0.00000000000E+00 -0.37648055285E+04  0.37648055285E+04  0.00000000000E+00 0. -1.
         23    2    1    2    0    0  0.15533603550E+04 -0.11587367586E+04 -0.84517262962E+03  0.21163701342E+04  0.95427997947E+02 0.  0.
         13    1    3    3    0    0  0.75955321722E+03 -0.55416551512E+03 -0.46093150311E+03  0.10471286256E+04  0.00000000000E+00 0. -1.
        -13    1    3    3    0    0  0.79380713782E+03 -0.60457124347E+03 -0.38424112651E+03  0.10692415086E+04  0.00000000000E+00 0.  1.
         22    1    1    2    0    0 -0.15533603550E+04  0.11587367586E+04 -0.18729633146E+04  0.26951049787E+04  0.00000000000E+00 0. -1.
<mgrwt>
<rscale>  0 0.39701423E+04</rscale>
<asrwt>0</asrwt>
<pdfrwt beam="1">  1        2 0.57920084E+00 0.39701423E+04</pdfrwt>
<pdfrwt beam="2">  1       -2 0.16102609E+00 0.39701423E+04</pdfrwt>
<totfact> 0.10194346E-01</totfact>
</mgrwt>
</event>
<event>
 6    1  0.1001928E-005  0.4915706E+04  0.7818608E-02  0.7841644E-01
          2   -1    0    0  501    0  0.00000000000E+00  0.00000000000E+00  0.24598310300E+04  0.24598310300E+04  0.00000000000E+00 0. -1.
         -2   -1    0    0    0  501 -0.00000000000E+00 -0.00000000000E+00 -0.24558763421E+04  0.24558763421E+04  0.00000000000E+00 0.  1.
         23    2    1    2    0    0  0.18141581827E+04  0.13763266852E+04 -0.92069681977E+03  0.24579796682E+04  0.92392418113E+02 0.  0.
         13    1    3    3    0    0  0.14389244046E+03  0.79402856571E+02 -0.69144390409E+02  0.17829973297E+03  0.00000000000E+00 0. -1.
        -13    1    3    3    0    0  0.16702657423E+04  0.12969238286E+04 -0.85155242936E+03  0.22796799352E+04  0.00000000000E+00 0.  1.
         22    1    1    2    0    0 -0.18141581827E+04 -0.13763266852E+04  0.92465150764E+03  0.24577277040E+04  0.00000000000E+00 0. -1.
<mgrwt>
<rscale>  0 0.49157058E+04</rscale>
<asrwt>0</asrwt>
<pdfrwt beam="1">  1        2 0.37843554E+00 0.49157058E+04</pdfrwt>
<pdfrwt beam="2">  1       -2 0.37782713E+00 0.49157058E+04</pdfrwt>
<totfact> 0.27840966E-02</totfact>
</mgrwt>
</event>
<event>
 6    1  0.1001928E-005  0.2965998E+04  0.7818608E-02  0.8253508E-01
          1   -1    0    0  501    0  0.00000000000E+00  0.00000000000E+00  0.12911917817E+04  0.12911917817E+04  0.00000000000E+00 0. -1.
         -1   -1    0    0    0  501 -0.00000000000E+00 -0.00000000000E+00 -0.17032989929E+04  0.17032989929E+04  0.00000000000E+00 0.  1.
         23    2    1    2    0    0 -0.13691699452E+04  0.54137146497E+03 -0.39191785202E+02  0.14756835726E+04  0.91633010007E+02 0.  0.
         13    1    3    3    0    0 -0.90024216026E+03  0.37193595735E+03  0.14858789471E+02  0.97416276212E+03  0.00000000000E+00 0. -1.
        -13    1    3    3    0    0 -0.46892778493E+03  0.16943550762E+03 -0.54050574674E+02  0.50152081048E+03  0.00000000000E+00 0.  1.
         22    1    1    2    0    0  0.13691699452E+04 -0.54137146497E+03 -0.37291542608E+03  0.15188072020E+04  0.00000000000E+00 0. -1.
<mgrwt>
<rscale>  0 0.29659977E+04</rscale>
<asrwt>0</asrwt>
<pdfrwt beam="1">  1        1 0.19864489E+00 0.29659977E+04</pdfrwt>
<pdfrwt beam="2">  1       -1 0.26204600E+00 0.29659977E+04</pdfrwt>
<totfact> 0.45584293E-01</totfact>
</mgrwt>
</event>
<event>
 6    1  0.1001928E-005  0.2147686E+04  0.7818608E-02  0.8540523E-01
         -1   -1    0    0    0  501 -0.00000000000E+00  0.00000000000E+00  0.41414113710E+03  0.41414113710E+03  0.00000000000E+00 0.  1.
          1   -1    0    0  501    0  0.00000000000E+00 -0.00000000000E+00 -0.27844096335E+04  0.27844096335E+04  0.00000000000E+00 0. -1.
         23    2    1    2    0    0 -0.90834784153E+03  0.19172138122E+03 -0.19851815407E+04  0.21934911442E+04  0.92761849683E+02 0.  0.
         11    1    3    3    0    0 -0.51090225539E+03  0.70304844647E+02 -0.11645064864E+04  0.12735930443E+04  0.00000000000E+00 0. -1.
        -11    1    3    3    0    0 -0.39744558614E+03  0.12141653657E+03 -0.82067505435E+03  0.91989809986E+03  0.00000000000E+00 0.  1.
         22    1    1    2    0    0  0.90834784153E+03 -0.19172138122E+03 -0.38508695569E+03  0.10050596264E+04  0.00000000000E+00 0.  1.
<mgrwt>
<rscale>  0 0.21476858E+04</rscale>
<asrwt>0</asrwt>
<pdfrwt beam="1">  1        1 0.42837073E+00 0.21476858E+04</pdfrwt>
<pdfrwt beam="2">  1       -1 0.63714019E-01 0.21476858E+04</pdfrwt>
<totfact> 0.19575519E+00</totfact>
</mgrwt>
</event>
<event>
 6    1  0.1001928E-005  0.4506387E+04  0.7818608E-02  0.7909520E-01
          2   -1    0    0  501    0  0.00000000000E+00  0.00000000000E+00  0.14188062571E+04  0.14188062571E+04  0.00000000000E+00 0. -1.
         -2   -1    0    0    0  501 -0.00000000000E+00 -0.00000000000E+00 -0.35782760498E+04  0.35782760498E+04  0.00000000000E+00 0.  1.
         23    2    1    2    0    0 -0.10633368069E+04 -0.19604139411E+04 -0.73166468621E+03  0.23489630861E+04  0.91577187785E+02 0.  0.
         11    1    3    3    0    0 -0.29851150231E+03 -0.52168002321E+03 -0.23769207484E+03  0.64634099829E+03  0.00000000000E+00 0.  1.
        -11    1    3    3    0    0 -0.76482530460E+03 -0.14387339179E+04 -0.49397261137E+03  0.17026220878E+04  0.00000000000E+00 0. -1.
         22    1    1    2    0    0  0.10633368069E+04  0.19604139411E+04 -0.14278051065E+04  0.26481192208E+04  0.00000000000E+00 0. -1.
<mgrwt>
<rscale>  0 0.45063868E+04</rscale>
<asrwt>0</asrwt>
<pdfrwt beam="1">  1        2 0.21827789E+00 0.45063868E+04</pdfrwt>
<pdfrwt beam="2">  1       -2 0.55050400E+00 0.45063868E+04</pdfrwt>
<totfact> 0.91226692E-03</totfact>
</mgrwt>
</event>
<event>
 6    1  0.1001928E-005  0.2519880E+04  0.7818608E-02  0.8395937E-01
         -1   -1    0    0    0  501 -0.00000000000E+00  0.00000000000E+00  0.79095932338E+03  0.79095932338E+03  0.00000000000E+00 0.  1.
          1   -1    0    0  501    0  0.00000000000E+00 -0.00000000000E+00 -0.20069917747E+04  0.20069917747E+04  0.00000000000E+00 0. -1.
         23    2    1    2    0    0 -0.37970034458E+03 -0.11369113322E+04 -0.18376157859E+03  0.12160778782E+04  0.91309141556E+02 0.  0.
         11    1    3    3    0    0 -0.23956067559E+03 -0.84026953561E+03 -0.12181616901E+03  0.88220257809E+03  0.00000000000E+00 0.  1.
        -11    1    3    3    0    0 -0.14013966899E+03 -0.29664179655E+03 -0.61945409574E+02  0.33387530015E+03  0.00000000000E+00 0. -1.
         22    1    1    2    0    0  0.37970034458E+03  0.11369113322E+04 -0.10322708727E+04  0.15818732198E+04  0.00000000000E+00 0.  1.
<mgrwt>
<rscale>  0 0.25198800E+04</rscale>
<asrwt>0</asrwt>
<pdfrwt beam="1">  1        1 0.30876796E+00 0.25198800E+04</pdfrwt>
<pdfrwt beam="2">  1       -1 0.12168605E+00 0.25198800E+04</pdfrwt>
<totfact> 0.15634856E+00</totfact>
</mgrwt>
</event>
<event>
 6    1  0.1001928E-005  0.2362739E+04  0.7818608E-02  0.8453587E-01
          2   -1    0    0  501    0  0.00000000000E+00  0.00000000000E+00  0.14438671381E+04  0.14438671381E+04  0.00000000000E+00 0. -1.
         -2   -1    0    0    0  501 -0.00000000000E+00 -0.00000000000E+00 -0.96659414169E+03  0.96659414169E+03  0.00000000000E+00 0.  1.
         23    2    1    2    0    0  0.25509738024E+03  0.54281154210E+03 -0.79726991609E+03  0.10018525053E+04  0.91378770623E+02 0.  0.
         13    1    3    3    0    0  0.21238952508E+03  0.35411073205E+03 -0.55726104495E+03  0.69357306258E+03  0.00000000000E+00 0. -1.
        -13    1    3    3    0    0  0.42707855161E+02  0.18870081005E+03 -0.24000887114E+03  0.30827944277E+03  0.00000000000E+00 0.  1.
         22    1    1    2    0    0 -0.25509738024E+03 -0.54281154210E+03  0.12745429125E+04  0.14086087744E+04  0.00000000000E+00 0. -1.
<mgrwt>
<rscale>  0 0.23627387E+04</rscale>
<asrwt>0</asrwt>
<pdfrwt beam="1">  1        2 0.22213341E+00 0.23627387E+04</pdfrwt>
<pdfrwt beam="2">  1       -2 0.14870679E+00 0.23627387E+04</pdfrwt>
<totfact> 0.37777752E+00</totfact>
</mgrwt>
</event>
<event>
 6    1  0.1001928E-005  0.6320764E+04  0.7818608E-02  0.7651855E-01
          2   -1    0    0  501    0  0.00000000000E+00  0.00000000000E+00  0.39715719384E+04  0.39715719384E+04  0.00000000000E+00 0. -1.
         -2   -1    0    0    0  501 -0.00000000000E+00 -0.00000000000E+00 -0.25148765145E+04  0.25148765145E+04  0.00000000000E+00 0.  1.
         23    2    1    2    0    0 -0.24068640025E+04 -0.14686080194E+04 -0.73533663225E+03  0.29150609947E+04  0.84004755884E+02 0.  0.
         11    1    3    3    0    0 -0.89242592789E+03 -0.50088321234E+03 -0.25070925942E+03  0.10536428057E+04  0.00000000000E+00 0. -1.
        -11    1    3    3    0    0 -0.15144380746E+04 -0.96772480706E+03 -0.48462737283E+03  0.18614181891E+04  0.00000000000E+00 0.  1.
         22    1    1    2    0    0  0.24068640025E+04  0.14686080194E+04  0.21920320561E+04  0.35713874581E+04  0.00000000000E+00 0. -1.
<mgrwt>
<rscale>  0 0.63207636E+04</rscale>
<asrwt>0</asrwt>
<pdfrwt beam="1">  1        2 0.61101107E+00 0.63207636E+04</pdfrwt>
<pdfrwt beam="2">  1       -2 0.38690408E+00 0.63207636E+04</pdfrwt>
<totfact> 0.21301526E-03</totfact>
</mgrwt>
</event>
<event>
 6    1  0.1001928E-005  0.1563265E+04  0.7818608E-02  0.8843439E-01
          1   -1    0    0  501    0  0.00000000000E+00  0.00000000000E+00  0.12197361283E+04  0.12197361283E+04  0.00000000000E+00 0. -1.
         -1   -1    0    0    0  501 -0.00000000000E+00 -0.00000000000E+00 -0.50088622149E+03  0.50088622149E+03  0.00000000000E+00 0.  1.
         23    2    1    2    0    0  0.50966810286E+03  0.58148456726E+03  0.25169016095E+03  0.81722647577E+03  0.81395936967E+02 0.  0.
         13    1    3    3    0    0  0.21727611587E+03  0.22319540541E+03  0.63207225133E+02  0.31783683366E+03  0.00000000000E+00 0. -1.
        -13    1    3    3    0    0  0.29239198698E+03  0.35828916185E+03  0.18848293581E+03  0.49938964211E+03  0.00000000000E+00 0.  1.
         22    1    1    2    0    0 -0.50966810286E+03 -0.58148456726E+03  0.46715974586E+03  0.90339587401E+03  0.00000000000E+00 0. -1.
<mgrwt>
<rscale>  0 0.15632646E+04</rscale>
<asrwt>0</asrwt>
<pdfrwt beam="1">  1        1 0.18765171E+00 0.15632646E+04</pdfrwt>
<pdfrwt beam="2">  1       -1 0.77059419E-01 0.15632646E+04</pdfrwt>
<totfact> 0.16802813E+01</totfact>
</mgrwt>
</event>
<event>
 6    1  0.1001928E-005  0.4235631E+04  0.7818608E-02  0.7958629E-01
         -2   -1    0    0    0  501 -0.00000000000E+00  0.00000000000E+00  0.17893302133E+04  0.17893302133E+04  0.00000000000E+00 0.  1.
          2   -1    0    0  501    0  0.00000000000E+00 -0.00000000000E+00 -0.25066040897E+04  0.25066040897E+04  0.00000000000E+00 0. -1.
         23    2    1    2    0    0 -0.14852087357E+04 -0.28903033462E+03 -0.18602444962E+04  0.23996839607E+04  0.92682266716E+02 0.  0.
         11    1    3    3    0    0 -0.50455023774E+03 -0.58887268810E+02 -0.59121783992E+03  0.77947237736E+03  0.00000000000E+00 0. -1.
        -11    1    3    3    0    0 -0.98065849798E+03 -0.23014306581E+03 -0.12690266563E+04  0.16202115834E+04  0.00000000000E+00 0.  1.
         22    1    1    2    0    0  0.14852087357E+04  0.28903033462E+03  0.11429706198E+04  0.18962503423E+04  0.00000000000E+00 0.  1.
<mgrwt>
<rscale>  0 0.42356310E+04</rscale>
<asrwt>0</asrwt>
<pdfrwt beam="1">  1        2 0.38563140E+00 0.42356310E+04</pdfrwt>
<pdfrwt beam="2">  1       -2 0.27528157E+00 0.42356310E+04</pdfrwt>
<totfact> 0.12018535E-01</totfact>
</mgrwt>
</event>
<event>
 6    1  0.1001928E-005  0.1539083E+04  0.7818608E-02  0.8858871E-01
          4   -1    0    0  501    0  0.00000000000E+00  0.00000000000E+00  0.12315865676E+04  0.12315865676E+04  0.00000000000E+00 0. -1.
         -4   -1    0    0    0  501 -0.00000000000E+00 -0.00000000000E+00 -0.48083832358E+03  0.48083832358E+03  0.00000000000E+00 0.  1.
         23    2    1    2    0    0  0.41820959607E+03  0.52799254958E+03 -0.31728650042E+02  0.67997853016E+03  0.87685207294E+02 0.  0.
         11    1    3    3    0    0  0.28086502370E+03  0.38552199169E+03  0.12734740177E+02  0.47715253455E+03  0.00000000000E+00 0. -1.
        -11    1    3    3    0    0  0.13734457237E+03  0.14247055789E+03 -0.44463390218E+02  0.20282599561E+03  0.00000000000E+00 0.  1.
         22    1    1    2    0    0 -0.41820959607E+03 -0.52799254958E+03  0.78247689407E+03  0.10324463610E+04  0.00000000000E+00 0.  1.
<mgrwt>
<rscale>  0 0.15390829E+04</rscale>
<asrwt>0</asrwt>
<pdfrwt beam="1">  1        4 0.18947486E+00 0.15390829E+04</pdfrwt>
<pdfrwt beam="2">  1       -4 0.73975127E-01 0.15390829E+04</pdfrwt>
<totfact> 0.49372045E-01</totfact>
</mgrwt>
</event>
<event>
 6    1  0.1010787E-005  0.2843384E+04  0.7818608E-02  0.8289924E-01
          2   -1    0    0  501    0  0.00000000000E+00  0.00000000000E+00  0.18419122316E+04  0.18419122316E+04  0.00000000000E+00 0. -1.
         -2   -1    0    0    0  501 -0.00000000000E+00 -0.00000000000E+00 -0.10973425683E+04  0.10973425683E+04  0.00000000000E+00 0.  1.
         23    2    1    2    0    0  0.62834211150E+03  0.10840312958E+04  0.10639205963E+04  0.16462263092E+04  0.90533785156E+02 0.  0.
         11    1    3    3    0    0  0.25334719301E+03  0.51659904309E+03  0.45998841861E+03  0.73664694175E+03  0.00000000000E+00 0. -1.
        -11    1    3    3    0    0  0.37499491849E+03  0.56743225275E+03  0.60393217773E+03  0.90957936743E+03  0.00000000000E+00 0.  1.
         22    1    1    2    0    0 -0.62834211150E+03 -0.10840312958E+04 -0.31935093302E+03  0.12930284907E+04  0.00000000000E+00 0.  1.
<mgrwt>
<rscale>  0 0.28433844E+04</rscale>
<asrwt>0</asrwt>
<pdfrwt beam="1">  1        2 0.28337111E+00 0.28433844E+04</pdfrwt>
<pdfrwt beam="2">  1       -2 0.16882193E+00 0.28433844E+04</pdfrwt>
<totfact> 0.15411847E+00</totfact>
</mgrwt>
</event>
<event>
 6    1  0.1001928E-005  0.1737411E+04  0.7818608E-02  0.8740310E-01
          2   -1    0    0  501    0  0.00000000000E+00  0.00000000000E+00  0.61506390382E+03  0.61506390382E+03  0.00000000000E+00 0.  1.
         -2   -1    0    0    0  501 -0.00000000000E+00 -0.00000000000E+00 -0.12269450332E+04  0.12269450332E+04  0.00000000000E+00 0. -1.
         23    2    1    2    0    0  0.77272692865E+03 -0.33854747257E+03 -0.51558131357E+03  0.99289472088E+03  0.91074356530E+02 0.  0.
         13    1    3    3    0    0  0.24907317442E+03 -0.12489555474E+03 -0.21827201879E+03  0.35394776450E+03  0.00000000000E+00 0. -1.
        -13    1    3    3    0    0  0.52365375422E+03 -0.21365191783E+03 -0.29730929479E+03  0.63894695638E+03  0.00000000000E+00 0.  1.
         22    1    1    2    0    0 -0.77272692865E+03  0.33854747257E+03 -0.96299815762E+02  0.84911421608E+03  0.00000000000E+00 0.  1.
<mgrwt>
<rscale>  0 0.17374114E+04</rscale>
<asrwt>0</asrwt>
<pdfrwt beam="1">  1        2 0.94625216E-01 0.17374114E+04</pdfrwt>
<pdfrwt beam="2">  1       -2 0.18876077E+00 0.17374114E+04</pdfrwt>
<totfact> 0.72077281E+00</totfact>
</mgrwt>
</event>
<event>
 6    1  0.1001928E-005  0.4648101E+04  0.7818608E-02  0.7885210E-01
          1   -1    0    0  501    0  0.00000000000E+00  0.00000000000E+00  0.29996779820E+04  0.29996779820E+04  0.00000000000E+00 0. -1.
         -1   -1    0    0    0  501 -0.00000000000E+00 -0.00000000000E+00 -0.18005970683E+04  0.18005970683E+04  0.00000000000E+00 0.  1.
         23    2    1    2    0    0 -0.19022643235E+03  0.14875712542E+04 -0.12325908015E+04  0.19433393383E+04  0.90737906904E+02 0.  0.
         11    1    3    3    0    0 -0.68931540511E+02  0.81661068113E+03 -0.63611302374E+03  0.10374219685E+04  0.00000000000E+00 0.  1.
        -11    1    3    3    0    0 -0.12129489184E+03  0.67096057311E+03 -0.59647777773E+03  0.90591736973E+03  0.00000000000E+00 0. -1.
         22    1    1    2    0    0  0.19022643235E+03 -0.14875712542E+04  0.24316717152E+04  0.28569357120E+04  0.00000000000E+00 0. -1.
<mgrwt>
<rscale>  0 0.46481013E+04</rscale>
<asrwt>0</asrwt>
<pdfrwt beam="1">  1        1 0.46148892E+00 0.46481013E+04</pdfrwt>
<pdfrwt beam="2">  1       -1 0.27701493E+00 0.46481013E+04</pdfrwt>
<totfact> 0.20658267E-02</totfact>
</mgrwt>
</event>
<event>
 6    1  0.1001928E-005  0.4684843E+04  0.7818608E-02  0.7879052E-01
         -2   -1    0    0    0  501 -0.00000000000E+00  0.00000000000E+00  0.29354937170E+04  0.29354937170E+04  0.00000000000E+00 0.  1.
          2   -1    0    0  501    0  0.00000000000E+00 -0.00000000000E+00 -0.18691707800E+04  0.18691707800E+04  0.00000000000E+00 0. -1.
         23    2    1    2    0    0  0.23022468613E+04  0.42260834031E+03  0.59535427855E+03  0.24170401762E+04  0.93263480150E+02 0.  0.
         13    1    3    3    0    0  0.17555077020E+04  0.36241701876E+03  0.45647986772E+03  0.18497370778E+04  0.00000000000E+00 0. -1.
        -13    1    3    3    0    0  0.54673915931E+03  0.60191321557E+02  0.13887441083E+03  0.56730309844E+03  0.00000000000E+00 0.  1.
         22    1    1    2    0    0 -0.23022468613E+04 -0.42260834031E+03  0.47096865851E+03  0.23876243208E+04  0.00000000000E+00 0. -1.
<mgrwt>
<rscale>  0 0.46848433E+04</rscale>
<asrwt>0</asrwt>
<pdfrwt beam="1">  1        2 0.28756474E+00 0.46848433E+04</pdfrwt>
<pdfrwt beam="2">  1       -2 0.45161442E+00 0.46848433E+04</pdfrwt>
<totfact> 0.20007001E-02</totfact>
</mgrwt>
</event>
<event>
 6    1  0.1001928E-005  0.3988365E+04  0.7818608E-02  0.8006898E-01
          2   -1    0    0  501    0  0.00000000000E+00  0.00000000000E+00  0.20798617503E+04  0.20798617503E+04  0.00000000000E+00 0. -1.
         -2   -1    0    0    0  501 -0.00000000000E+00 -0.00000000000E+00 -0.19120325475E+04  0.19120325475E+04  0.00000000000E+00 0.  1.
         23    2    1    2    0    0  0.68552895945E+03 -0.18652715837E+04  0.23640057747E+03  0.20034551942E+04  0.93591915672E+02 0.  0.
         11    1    3    3    0    0  0.36694657699E+03 -0.11296624346E+04  0.13347827057E+03  0.11952420070E+04  0.00000000000E+00 0.  1.
        -11    1    3    3    0    0  0.31858238247E+03 -0.73560914916E+03  0.10292230690E+03  0.80821318723E+03  0.00000000000E+00 0. -1.
         22    1    1    2    0    0 -0.68552895945E+03  0.18652715837E+04 -0.68571374718E+02  0.19884391036E+04  0.00000000000E+00 0. -1.
<mgrwt>
<rscale>  0 0.39883648E+04</rscale>
<asrwt>0</asrwt>
<pdfrwt beam="1">  1        2 0.31997873E+00 0.39883648E+04</pdfrwt>
<pdfrwt beam="2">  1       -2 0.29415885E+00 0.39883648E+04</pdfrwt>
<totfact> 0.16432557E-01</totfact>
</mgrwt>
</event>
<event>
 6    1  0.1001928E-005  0.2600926E+04  0.7818608E-02  0.8367887E-01
         -2   -1    0    0    0  501 -0.00000000000E+00  0.00000000000E+00  0.12778412756E+04  0.12778412756E+04  0.00000000000E+00 0.  1.
          2   -1    0    0  501    0  0.00000000000E+00 -0.00000000000E+00 -0.13234857042E+04  0.13234857042E+04  0.00000000000E+00 0. -1.
         23    2    1    2    0    0 -0.70561244373E+02  0.74234157659E+03  0.10407526677E+04  0.12836363649E+04  0.92229585597E+02 0.  0.
         13    1    3    3    0    0  0.13655162162E+02  0.28691904387E+03  0.36682019673E+03  0.46590348562E+03  0.00000000000E+00 0.  1.
        -13    1    3    3    0    0 -0.84216406535E+02  0.45542253272E+03  0.67393247097E+03  0.81773287929E+03  0.00000000000E+00 0. -1.
         22    1    1    2    0    0  0.70561244373E+02 -0.74234157659E+03 -0.10863970964E+04  0.13176906149E+04  0.00000000000E+00 0. -1.
<mgrwt>
<rscale>  0 0.26009265E+04</rscale>
<asrwt>0</asrwt>
<pdfrwt beam="1">  1        2 0.20361318E+00 0.26009265E+04</pdfrwt>
<pdfrwt beam="2">  1       -2 0.19659097E+00 0.26009265E+04</pdfrwt>
<totfact> 0.19846985E+00</totfact>
</mgrwt>
</event>
<event>
 6    1  0.1001928E-005  0.2352120E+04  0.7818608E-02  0.8457650E-01
         -2   -1    0    0    0  501 -0.00000000000E+00  0.00000000000E+00  0.81405150136E+03  0.81405150136E+03  0.00000000000E+00 0.  1.
          2   -1    0    0  501    0  0.00000000000E+00 -0.00000000000E+00 -0.16990537229E+04  0.16990537229E+04  0.00000000000E+00 0. -1.
         23    2    1    2    0    0  0.27417219619E+03  0.91256951331E+03 -0.11763142319E+04  0.15167035998E+04  0.93386977966E+02 0.  0.
         11    1    3    3    0    0  0.79223290107E+02  0.38855865845E+03 -0.53402291345E+03  0.66515760001E+03  0.00000000000E+00 0. -1.
        -11    1    3    3    0    0  0.19494890608E+03  0.52401085486E+03 -0.64229131844E+03  0.85154599978E+03  0.00000000000E+00 0.  1.
         22    1    1    2    0    0 -0.27417219619E+03 -0.91256951331E+03  0.29131201040E+03  0.99640162444E+03  0.00000000000E+00 0.  1.
<mgrwt>
<rscale>  0 0.23521201E+04</rscale>
<asrwt>0</asrwt>
<pdfrwt beam="1">  1        2 0.26139288E+00 0.23521201E+04</pdfrwt>
<pdfrwt beam="2">  1       -2 0.12523869E+00 0.23521201E+04</pdfrwt>
<totfact> 0.42303581E+00</totfact>
</mgrwt>
</event>
<event>
 6    1  0.1001928E-005  0.1878420E+04  0.7818608E-02  0.8665673E-01
         -1   -1    0    0    0  501 -0.00000000000E+00  0.00000000000E+00  0.49456795643E+03  0.49456795643E+03  0.00000000000E+00 0.  1.
          1   -1    0    0  501    0  0.00000000000E+00 -0.00000000000E+00 -0.17836089900E+04  0.17836089900E+04  0.00000000000E+00 0. -1.
         23    2    1    2    0    0 -0.44909576647E+03 -0.30076841769E+03 -0.15743802836E+04  0.16669755588E+04  0.89362116443E+02 0.  0.
         11    1    3    3    0    0 -0.27511458034E+03 -0.23011959006E+03 -0.10886554562E+04  0.11462171524E+04  0.00000000000E+00 0. -1.
        -11    1    3    3    0    0 -0.17398118614E+03 -0.70648827622E+02 -0.48572482738E+03  0.52075840647E+03  0.00000000000E+00 0.  1.
         22    1    1    2    0    0  0.44909576647E+03  0.30076841769E+03  0.28533925005E+03  0.61120138756E+03  0.00000000000E+00 0.  1.
<mgrwt>
<rscale>  0 0.18784205E+04</rscale>
<asrwt>0</asrwt>
<pdfrwt beam="1">  1        1 0.27440138E+00 0.18784205E+04</pdfrwt>
<pdfrwt beam="2">  1       -1 0.76087378E-01 0.18784205E+04</pdfrwt>
<totfact> 0.67960034E+00</totfact>
</mgrwt>
</event>
<event>
 6    1  0.1001928E-005  0.6805662E+04  0.7818608E-02  0.7597816E-01
         -2   -1    0    0    0  501 -0.00000000000E+00  0.00000000000E+00  0.40196617547E+04  0.40196617547E+04  0.00000000000E+00 0.  1.
          2   -1    0    0  501    0  0.00000000000E+00 -0.00000000000E+00 -0.28806546656E+04  0.28806546656E+04  0.00000000000E+00 0. -1.
         23    2    1    2    0    0  0.30455771829E+04 -0.11476046178E+04 -0.43548928952E+03  0.32848530224E+04  0.89842762871E+02 0.  0.
         11    1    3    3    0    0  0.25786970093E+04 -0.95621255913E+03 -0.33850066620E+03  0.27710293079E+04  0.00000000000E+00 0.  1.
        -11    1    3    3    0    0  0.46688017353E+03 -0.19139205866E+03 -0.96988623318E+02  0.51382371453E+03  0.00000000000E+00 0. -1.
         22    1    1    2    0    0 -0.30455771829E+04  0.11476046178E+04  0.15744963786E+04  0.36154633979E+04  0.00000000000E+00 0.  1.
<mgrwt>
<rscale>  0 0.68056616E+04</rscale>
<asrwt>0</asrwt>
<pdfrwt beam="1">  1        2 0.44317764E+00 0.68056616E+04</pdfrwt>
<pdfrwt beam="2">  1       -2 0.61840950E+00 0.68056616E+04</pdfrwt>
<totfact> 0.58123452E-04</totfact>
</mgrwt>
</event>
<event>
 6    1  0.1001928E-005  0.2462356E+04  0.7818608E-02  0.8416520E-01
          1   -1    0    0  501    0  0.00000000000E+00  0.00000000000E+00  0.71569083258E+03  0.71569083258E+03  0.00000000000E+00 0. -1.
         -1   -1    0    0    0  501 -0.00000000000E+00 -0.00000000000E+00 -0.21179528864E+04  0.21179528864E+04  0.00000000000E+00 0.  1.
         23    2    1    2    0    0 -0.70653771174E+03  0.77402897852E+03 -0.14418627713E+04  0.17848898801E+04  0.92451258834E+02 0.  0.
         11    1    3    3    0    0 -0.52740393676E+03  0.56528901050E+03 -0.99337248627E+03  0.12587674425E+04  0.00000000000E+00 0. -1.
        -11    1    3    3    0    0 -0.17913377498E+03  0.20873996801E+03 -0.44849028499E+03  0.52612243757E+03  0.00000000000E+00 0.  1.
         22    1    1    2    0    0  0.70653771174E+03 -0.77402897852E+03  0.39600717450E+02  0.10487538389E+04  0.00000000000E+00 0.  1.
<mgrwt>
<rscale>  0 0.24623562E+04</rscale>
<asrwt>0</asrwt>
<pdfrwt beam="1">  1        1 0.11010628E+00 0.24623562E+04</pdfrwt>
<pdfrwt beam="2">  1       -1 0.32583890E+00 0.24623562E+04</pdfrwt>
<totfact> 0.52629947E-01</totfact>
</mgrwt>
</event>
<event>
 6    1  0.1001928E-005  0.2939354E+04  0.7818608E-02  0.8261264E-01
         -1   -1    0    0    0  501 -0.00000000000E+00  0.00000000000E+00  0.11270050154E+04  0.11270050154E+04  0.00000000000E+00 0.  1.
          1   -1    0    0  501    0  0.00000000000E+00 -0.00000000000E+00 -0.19165400855E+04  0.19165400855E+04  0.00000000000E+00 0. -1.
         23    2    1    2    0    0  0.83772398547E+03  0.78043766677E+03 -0.13471051698E+04  0.17700660694E+04  0.87046678019E+02 0.  0.
         13    1    3    3    0    0  0.48450198437E+03  0.39538649213E+03 -0.75571808524E+03  0.98090900464E+03  0.00000000000E+00 0.  1.
        -13    1    3    3    0    0  0.35322200110E+03  0.38505117464E+03 -0.59138708452E+03  0.78915706478E+03  0.00000000000E+00 0. -1.
         22    1    1    2    0    0 -0.83772398547E+03 -0.78043766677E+03  0.55757009968E+03  0.12734790315E+04  0.00000000000E+00 0.  1.
<mgrwt>
<rscale>  0 0.29393539E+04</rscale>
<asrwt>0</asrwt>
<pdfrwt beam="1">  1        1 0.29485232E+00 0.29393539E+04</pdfrwt>
<pdfrwt beam="2">  1       -1 0.17338539E+00 0.29393539E+04</pdfrwt>
<totfact> 0.67502675E-01</totfact>
</mgrwt>
</event>
<event>
 6    1  0.1001928E-005  0.1587379E+04  0.7818608E-02  0.8828339E-01
         -2   -1    0    0    0  501 -0.00000000000E+00  0.00000000000E+00  0.83605190692E+03  0.83605190692E+03  0.00000000000E+00 0.  1.
          2   -1    0    0  501    0  0.00000000000E+00 -0.00000000000E+00 -0.75347346393E+03  0.75347346393E+03  0.00000000000E+00 0. -1.
         23    2    1    2    0    0  0.35964219660E+03 -0.15945472412E+03  0.72827738776E+03  0.83341992457E+03  0.97121050930E+02 0.  0.
         11    1    3    3    0    0  0.24205521036E+03 -0.11794406287E+03  0.58155797512E+03  0.64086754111E+03  0.00000000000E+00 0. -1.
        -11    1    3    3    0    0  0.11758698624E+03 -0.41510661247E+02  0.14671941264E+03  0.19255238346E+03  0.00000000000E+00 0.  1.
         22    1    1    2    0    0 -0.35964219660E+03  0.15945472412E+03 -0.64569894477E+03  0.75610544628E+03  0.00000000000E+00 0. -1.
<mgrwt>
<rscale>  0 0.15873789E+04</rscale>
<asrwt>0</asrwt>
<pdfrwt beam="1">  1        2 0.11591899E+00 0.15873789E+04</pdfrwt>
<pdfrwt beam="2">  1       -2 0.12862337E+00 0.15873789E+04</pdfrwt>
<totfact> 0.15959825E+01</totfact>
</mgrwt>
</event>
<event>
 6    1  0.1001928E-005  0.7972643E+03  0.7818608E-02  0.9563985E-01
         -2   -1    0    0    0  501 -0.00000000000E+00  0.00000000000E+00  0.19048393171E+03  0.19048393171E+03  0.00000000000E+00 0.  1.
          2   -1    0    0  501    0  0.00000000000E+00 -0.00000000000E+00 -0.83423101951E+03  0.83423101951E+03  0.00000000000E+00 0. -1.
         23    2    1    2    0    0  0.48256517380E+02  0.26534057081E+03  0.42035782866E+02  0.28780759226E+03  0.91279204269E+02 0.  0.
         13    1    3    3    0    0  0.57711899257E+02  0.26819606330E+03  0.37318608524E+02  0.27686182515E+03  0.00000000000E+00 0. -1.
        -13    1    3    3    0    0 -0.94553818765E+01 -0.28554924865E+01  0.47171743413E+01  0.10945767106E+02  0.00000000000E+00 0.  1.
         22    1    1    2    0    0 -0.48256517380E+02 -0.26534057081E+03 -0.68578287067E+03  0.73690735896E+03  0.00000000000E+00 0. -1.
<mgrwt>
<rscale>  0 0.79726433E+03</rscale>
<asrwt>0</asrwt>
<pdfrwt beam="1">  1        2 0.12834323E+00 0.79726433E+03</pdfrwt>
<pdfrwt beam="2">  1       -2 0.29305220E-01 0.79726433E+03</pdfrwt>
<totfact> 0.35026994E+02</totfact>
</mgrwt>
</event>
<event>
 6    1  0.1001928E-005  0.2461821E+04  0.7818608E-02  0.8416715E-01
         -2   -1    0    0    0  501 -0.00000000000E+00  0.00000000000E+00  0.57631060027E+03  0.57631060027E+03  0.00000000000E+00 0.  1.
          2   -1    0    0  501    0  0.00000000000E+00 -0.00000000000E+00 -0.26290340382E+04  0.26290340382E+04  0.00000000000E+00 0. -1.
         23    2    1    2    0    0 -0.10376462857E+04 -0.46281841678E+03 -0.16388675554E+04  0.19961352304E+04  0.88081171264E+02 0.  0.
         11    1    3    3    0    0 -0.14049140592E+03 -0.81486260777E+02 -0.19157833481E+03  0.25115752866E+03  0.00000000000E+00 0.  1.
        -11    1    3    3    0    0 -0.89715487976E+03 -0.38133215601E+03 -0.14472892206E+04  0.17449777017E+04  0.00000000000E+00 0. -1.
         22    1    1    2    0    0  0.10376462857E+04  0.46281841678E+03 -0.41385588253E+03  0.12092094081E+04  0.00000000000E+00 0.  1.
<mgrwt>
<rscale>  0 0.24618206E+04</rscale>
<asrwt>0</asrwt>
<pdfrwt beam="1">  1        2 0.40446677E+00 0.24618206E+04</pdfrwt>
<pdfrwt beam="2">  1       -2 0.88663171E-01 0.24618206E+04</pdfrwt>
<totfact> 0.28631346E+00</totfact>
</mgrwt>
</event>
<event>
 6    1  0.1001928E-005  0.3197386E+04  0.7818608E-02  0.8189508E-01
          1   -1    0    0  501    0  0.00000000000E+00  0.00000000000E+00  0.20238084202E+04  0.20238084202E+04  0.00000000000E+00 0. -1.
         -1   -1    0    0    0  501 -0.00000000000E+00 -0.00000000000E+00 -0.12628762385E+04  0.12628762385E+04  0.00000000000E+00 0.  1.
         23    2    1    2    0    0  0.66169014197E+03 -0.98072668899E+03 -0.72254184810E+03  0.13892248095E+04  0.90665134716E+02 0.  0.
         11    1    3    3    0    0  0.43564729590E+03 -0.58398331807E+03 -0.47615959804E+03  0.87037523230E+03  0.00000000000E+00 0.  1.
        -11    1    3    3    0    0  0.22604284607E+03 -0.39674337092E+03 -0.24638225006E+03  0.51884957721E+03  0.00000000000E+00 0. -1.
         22    1    1    2    0    0 -0.66169014197E+03  0.98072668899E+03  0.14834740298E+04  0.18974598493E+04  0.00000000000E+00 0. -1.
<mgrwt>
<rscale>  0 0.31973862E+04</rscale>
<asrwt>0</asrwt>
<pdfrwt beam="1">  1        1 0.31135514E+00 0.31973862E+04</pdfrwt>
<pdfrwt beam="2">  1       -1 0.19428865E+00 0.31973862E+04</pdfrwt>
<totfact> 0.39618904E-01</totfact>
</mgrwt>
</event>
<event>
 6    1  0.1001928E-005  0.2932307E+04  0.7818608E-02  0.8263329E-01
          1   -1    0    0  501    0  0.00000000000E+00  0.00000000000E+00  0.27792361601E+04  0.27792361601E+04  0.00000000000E+00 0. -1.
         -1   -1    0    0    0  501 -0.00000000000E+00 -0.00000000000E+00 -0.77345236671E+03  0.77345236671E+03  0.00000000000E+00 0.  1.
         23    2    1    2    0    0 -0.76780707442E+02  0.69129632489E+03 -0.55790424574E+03  0.89632216506E+03  0.91380470195E+02 0.  0.
         11    1    3    3    0    0  0.14693412285E+02  0.26393121932E+03 -0.21894485991E+03  0.34323816305E+03  0.00000000000E+00 0.  1.
        -11    1    3    3    0    0 -0.91474119728E+02  0.42736510557E+03 -0.33895938583E+03  0.55308400201E+03  0.00000000000E+00 0. -1.
         22    1    1    2    0    0  0.76780707442E+02 -0.69129632489E+03  0.25636880391E+04  0.26563663617E+04  0.00000000000E+00 0. -1.
<mgrwt>
<rscale>  0 0.29323075E+04</rscale>
<asrwt>0</asrwt>
<pdfrwt beam="1">  1        1 0.42757479E+00 0.29323075E+04</pdfrwt>
<pdfrwt beam="2">  1       -1 0.11899267E+00 0.29323075E+04</pdfrwt>
<totfact> 0.46620754E-01</totfact>
</mgrwt>
</event>
<event>
 6    1  0.1001928E-005  0.2607033E+04  0.7818608E-02  0.8365816E-01
         -1   -1    0    0    0  501 -0.00000000000E+00  0.00000000000E+00  0.64812542406E+03  0.64812542406E+03  0.00000000000E+00 0.  1.
          1   -1    0    0  501    0  0.00000000000E+00 -0.00000000000E+00 -0.26216449739E+04  0.26216449739E+04  0.00000000000E+00 0. -1.
         23    2    1    2    0    0 -0.14193914549E+03  0.54995653125E+03  0.48118487210E+03  0.75021236005E+03  0.93170793429E+02 0.  0.
         13    1    3    3    0    0  0.72132157126E-01  0.67359954253E+02  0.27376893456E+02  0.72710817182E+02  0.00000000000E+00 0.  1.
        -13    1    3    3    0    0 -0.14201127765E+03  0.48259657700E+03  0.45380797864E+03  0.67750154287E+03  0.00000000000E+00 0. -1.
         22    1    1    2    0    0  0.14193914549E+03 -0.54995653125E+03 -0.24547044220E+04  0.25195580379E+04  0.00000000000E+00 0. -1.
<mgrwt>
<rscale>  0 0.26070326E+04</rscale>
<asrwt>0</asrwt>
<pdfrwt beam="1">  1        1 0.40332999E+00 0.26070326E+04</pdfrwt>
<pdfrwt beam="2">  1       -1 0.99711605E-01 0.26070326E+04</pdfrwt>
<totfact> 0.94061467E-01</totfact>
</mgrwt>
</event>
<event>
 6    1  0.1001928E-005  0.4031069E+04  0.7818608E-02  0.7998308E-01
         -2   -1    0    0    0  501 -0.00000000000E+00  0.00000000000E+00  0.16210401352E+04  0.16210401352E+04  0.00000000000E+00 0.  1.
          2   -1    0    0  501    0  0.00000000000E+00 -0.00000000000E+00 -0.25060330583E+04  0.25060330583E+04  0.00000000000E+00 0. -1.
         23    2    1    2    0    0 -0.14933208467E+04 -0.10886116102E+04  0.37834388423E+03  0.18885240477E+04  0.91085644976E+02 0.  0.
         13    1    3    3    0    0 -0.86133061096E+03 -0.63682083681E+03  0.26452699066E+03  0.11033611052E+04  0.00000000000E+00 0. -1.
        -13    1    3    3    0    0 -0.63199023579E+03 -0.45179077344E+03  0.11381689356E+03  0.78516294255E+03  0.00000000000E+00 0.  1.
         22    1    1    2    0    0  0.14933208467E+04  0.10886116102E+04 -0.12633368074E+04  0.22385491458E+04  0.00000000000E+00 0. -1.
<mgrwt>
<rscale>  0 0.40310694E+04</rscale>
<asrwt>0</asrwt>
<pdfrwt beam="1">  1        2 0.38554355E+00 0.40310694E+04</pdfrwt>
<pdfrwt beam="2">  1       -2 0.24939079E+00 0.40310694E+04</pdfrwt>
<totfact> 0.17613513E-01</totfact>
</mgrwt>
</event>
<event>
 6    1  0.1001928E-005  0.4072907E+04  0.7818608E-02  0.7989998E-01
         -1   -1    0    0    0  501 -0.00000000000E+00  0.00000000000E+00  0.18544232545E+04  0.18544232545E+04  0.00000000000E+00 0.  1.
          1   -1    0    0  501    0  0.00000000000E+00 -0.00000000000E+00 -0.22363522859E+04  0.22363522859E+04  0.00000000000E+00 0. -1.
         23    2    1    2    0    0  0.14522022076E+04 -0.13598004945E+04  0.24102068106E+03  0.20060657331E+04  0.90885203281E+02 0.  0.
         11    1    3    3    0    0  0.11102206133E+04 -0.10101362242E+04  0.14875172230E+03  0.15083408357E+04  0.00000000000E+00 0. -1.
        -11    1    3    3    0    0  0.34198159421E+03 -0.34966427034E+03  0.92268958754E+02  0.49772489739E+03  0.00000000000E+00 0.  1.
         22    1    1    2    0    0 -0.14522022076E+04  0.13598004945E+04 -0.62294971251E+03  0.20847098073E+04  0.00000000000E+00 0. -1.
<mgrwt>
<rscale>  0 0.40729074E+04</rscale>
<asrwt>0</asrwt>
<pdfrwt beam="1">  1        1 0.34405420E+00 0.40729074E+04</pdfrwt>
<pdfrwt beam="2">  1       -1 0.28529589E+00 0.40729074E+04</pdfrwt>
<totfact> 0.65838932E-02</totfact>
</mgrwt>
</event>
<event>
 6    1  0.1001928E-005  0.2591152E+04  0.7818608E-02  0.8371213E-01
         -1   -1    0    0    0  501 -0.00000000000E+00  0.00000000000E+00  0.34387689896E+03  0.34387689896E+03  0.00000000000E+00 0.  1.
          1   -1    0    0  501    0  0.00000000000E+00 -0.00000000000E+00 -0.48811584883E+04  0.48811584883E+04  0.00000000000E+00 0. -1.
         23    2    1    2    0    0  0.52387779080E+03 -0.59634427832E+03 -0.43321318950E+04  0.44051812325E+04  0.90446103143E+02 0.  0.
         11    1    3    3    0    0  0.20574766118E+03 -0.29423534504E+03 -0.18327006450E+04  0.18675380030E+04  0.00000000000E+00 0. -1.
        -11    1    3    3    0    0  0.31813012963E+03 -0.30210893328E+03 -0.24994312500E+04  0.25376432295E+04  0.00000000000E+00 0.  1.
         22    1    1    2    0    0 -0.52387779080E+03  0.59634427832E+03 -0.20514969434E+03  0.81985415476E+03  0.00000000000E+00 0.  1.
<mgrwt>
<rscale>  0 0.25911524E+04</rscale>
<asrwt>0</asrwt>
<pdfrwt beam="1">  1        1 0.75094741E+00 0.25911524E+04</pdfrwt>
<pdfrwt beam="2">  1       -1 0.52904142E-01 0.25911524E+04</pdfrwt>
<totfact> 0.38801161E-02</totfact>
</mgrwt>
</event>
<event>
 6    1  0.1001928E-005  0.2586446E+04  0.7818608E-02  0.8372820E-01
         -1   -1    0    0    0  501 -0.00000000000E+00  0.00000000000E+00  0.10096726764E+04  0.10096726764E+04  0.00000000000E+00 0.  1.
          1   -1    0    0  501    0  0.00000000000E+00 -0.00000000000E+00 -0.16564035815E+04  0.16564035815E+04  0.00000000000E+00 0. -1.
         23    2    1    2    0    0  0.10968203276E+04  0.38774685862E+03  0.25446265506E+03  0.11945082879E+04  0.93468441814E+02 0.  0.
         13    1    3    3    0    0  0.14636963790E+03  0.20521242677E+02  0.42196120874E+02  0.15370655457E+03  0.00000000000E+00 0.  1.
        -13    1    3    3    0    0  0.95045068968E+03  0.36722561595E+03  0.21226653419E+03  0.10408017333E+04  0.00000000000E+00 0. -1.
         22    1    1    2    0    0 -0.10968203276E+04 -0.38774685862E+03 -0.90119356014E+03  0.14715679700E+04  0.00000000000E+00 0. -1.
<mgrwt>
<rscale>  0 0.25864458E+04</rscale>
<asrwt>0</asrwt>
<pdfrwt beam="1">  1        1 0.25483132E+00 0.25864458E+04</pdfrwt>
<pdfrwt beam="2">  1       -1 0.15533426E+00 0.25864458E+04</pdfrwt>
<totfact> 0.14279516E+00</totfact>
</mgrwt>
</event>
<event>
 6    1  0.1064324E-005  0.2311430E+04  0.7818608E-02  0.8473428E-01
          2   -1    0    0  501    0  0.00000000000E+00  0.00000000000E+00  0.18937950647E+04  0.18937950647E+04  0.00000000000E+00 0.  1.
         -2   -1    0    0    0  501 -0.00000000000E+00 -0.00000000000E+00 -0.70529148143E+03  0.70529148143E+03  0.00000000000E+00 0. -1.
         23    2    1    2    0    0 -0.31761175279E+03 -0.56838962515E+03  0.16663770230E+04  0.17914312880E+04  0.92030894345E+02 0.  0.
         13    1    3    3    0    0 -0.16230067134E+03 -0.21644418466E+03  0.76365456528E+03  0.81015917452E+03  0.00000000000E+00 0. -1.
        -13    1    3    3    0    0 -0.15531108145E+03 -0.35194544049E+03  0.90272245773E+03  0.98127211353E+03  0.00000000000E+00 0.  1.
         22    1    1    2    0    0  0.31761175279E+03  0.56838962515E+03 -0.47787343974E+03  0.80765525807E+03  0.00000000000E+00 0. -1.
<mgrwt>
<rscale>  0 0.23114303E+04</rscale>
<asrwt>0</asrwt>
<pdfrwt beam="1">  1        2 0.29135308E+00 0.23114303E+04</pdfrwt>
<pdfrwt beam="2">  1       -2 0.10850638E+00 0.23114303E+04</pdfrwt>
<totfact> 0.47081770E+00</totfact>
</mgrwt>
</event>
<event>
 6    1  0.1001928E-005  0.4371742E+04  0.7818608E-02  0.7933484E-01
         -2   -1    0    0    0  501 -0.00000000000E+00  0.00000000000E+00  0.18623048523E+04  0.18623048523E+04  0.00000000000E+00 0.  1.
          2   -1    0    0  501    0  0.00000000000E+00 -0.00000000000E+00 -0.25656547212E+04  0.25656547212E+04  0.00000000000E+00 0. -1.
         23    2    1    2    0    0 -0.22679839012E+03  0.21456803684E+04 -0.34853870146E+01  0.21596579961E+04  0.93427829848E+02 0.  0.
         11    1    3    3    0    0 -0.15395563577E+03  0.10701911268E+04  0.21341397398E+02  0.10814189017E+04  0.00000000000E+00 0.  1.
        -11    1    3    3    0    0 -0.72842754352E+02  0.10754892416E+04 -0.24826784412E+02  0.10782390945E+04  0.00000000000E+00 0. -1.
         22    1    1    2    0    0  0.22679839012E+03 -0.21456803684E+04 -0.69986448190E+03  0.22683015774E+04  0.00000000000E+00 0. -1.
<mgrwt>
<rscale>  0 0.43717416E+04</rscale>
<asrwt>0</asrwt>
<pdfrwt beam="1">  1        2 0.39471611E+00 0.43717416E+04</pdfrwt>
<pdfrwt beam="2">  1       -2 0.28650844E+00 0.43717416E+04</pdfrwt>
<totfact> 0.93788508E-02</totfact>
</mgrwt>
</event>
<event>
 6    1  0.1001928E-005  0.5087007E+04  0.7818608E-02  0.7815224E-01
          3   -1    0    0  501    0  0.00000000000E+00  0.00000000000E+00  0.37237024185E+04  0.37237024185E+04  0.00000000000E+00 0. -1.
         -3   -1    0    0    0  501 -0.00000000000E+00 -0.00000000000E+00 -0.17373598204E+04  0.17373598204E+04  0.00000000000E+00 0.  1.
         23    2    1    2    0    0 -0.45768781396E+03 -0.25493658404E+03  0.36645854018E+04  0.37029468545E+04  0.90324099538E+02 0.  0.
         11    1    3    3    0    0 -0.19243954052E+03 -0.15489665171E+03  0.15877283147E+04  0.16068314009E+04  0.00000000000E+00 0.  1.
        -11    1    3    3    0    0 -0.26524827344E+03 -0.10003993233E+03  0.20768570871E+04  0.20961154536E+04  0.00000000000E+00 0. -1.
         22    1    1    2    0    0  0.45768781396E+03  0.25493658404E+03 -0.16782428037E+04  0.17581153844E+04  0.00000000000E+00 0.  1.
<mgrwt>
<rscale>  0 0.50870074E+04</rscale>
<asrwt>0</asrwt>
<pdfrwt beam="1">  1        3 0.57287730E+00 0.50870074E+04</pdfrwt>
<pdfrwt beam="2">  1       -3 0.26728613E+00 0.50870074E+04</pdfrwt>
<totfact> 0.16482752E-04</totfact>
</mgrwt>
</event>
<event>
 6    1  0.1001928E-005  0.6298823E+03  0.7818608E-02  0.9845279E-01
          1   -1    0    0  501    0  0.00000000000E+00  0.00000000000E+00  0.24781276491E+03  0.24781276491E+03  0.00000000000E+00 0. -1.
         -1   -1    0    0    0  501 -0.00000000000E+00 -0.00000000000E+00 -0.40025347438E+03  0.40025347438E+03  0.00000000000E+00 0.  1.
         23    2    1    2    0    0 -0.41180800204E+02 -0.18234821524E+03 -0.32994952057E+03  0.39027541725E+03  0.92203499267E+02 0.  0.
         13    1    3    3    0    0  0.81817303036E+01 -0.94830380738E+01 -0.87791579013E+02  0.88680494290E+02  0.00000000000E+00 0.  1.
        -13    1    3    3    0    0 -0.49362530507E+02 -0.17286517717E+03 -0.24215794156E+03  0.30159492296E+03  0.00000000000E+00 0. -1.
         22    1    1    2    0    0  0.41180800204E+02  0.18234821524E+03  0.17750881110E+03  0.25779082204E+03  0.00000000000E+00 0. -1.
<mgrwt>
<rscale>  0 0.62988228E+03</rscale>
<asrwt>0</asrwt>
<pdfrwt beam="1">  1        1 0.38125041E-01 0.62988228E+03</pdfrwt>
<pdfrwt beam="2">  1       -1 0.61577457E-01 0.62988228E+03</pdfrwt>
<totfact> 0.30521791E+02</totfact>
</mgrwt>
</event>
<event>
 6    1  0.1001928E-005  0.5890834E+03  0.7818608E-02  0.9928317E-01
          1   -1    0    0  501    0  0.00000000000E+00  0.00000000000E+00  0.16658849827E+04  0.16658849827E+04  0.00000000000E+00 0. -1.
         -1   -1    0    0    0  501 -0.00000000000E+00 -0.00000000000E+00 -0.52077304251E+02  0.52077304251E+02  0.00000000000E+00 0.  1.
         23    2    1    2    0    0  0.17125187315E+03 -0.48881489080E+02  0.14844083602E+04  0.14978241767E+04  0.91063057196E+02 0.  0.
         11    1    3    3    0    0  0.10003301249E+03 -0.36486606894E+02  0.52458684767E+03  0.53528425796E+03  0.00000000000E+00 0.  1.
        -11    1    3    3    0    0  0.71218860666E+02 -0.12394882187E+02  0.95982151254E+03  0.96253991874E+03  0.00000000000E+00 0. -1.
         22    1    1    2    0    0 -0.17125187315E+03  0.48881489080E+02  0.12939931827E+03  0.22013811029E+03  0.00000000000E+00 0.  1.
<mgrwt>
<rscale>  0 0.58908335E+03</rscale>
<asrwt>0</asrwt>
<pdfrwt beam="1">  1        1 0.25628996E+00 0.58908335E+03</pdfrwt>
<pdfrwt beam="2">  1       -1 0.80118942E-02 0.58908335E+03</pdfrwt>
<totfact> 0.46419535E+02</totfact>
</mgrwt>
</event>
<event>
 6    1  0.1001928E-005  0.2065235E+04  0.7818608E-02  0.8576714E-01
         -1   -1    0    0    0  501 -0.00000000000E+00  0.00000000000E+00  0.45463978101E+03  0.45463978101E+03  0.00000000000E+00 0.  1.
          1   -1    0    0  501    0  0.00000000000E+00 -0.00000000000E+00 -0.23453706702E+04  0.23453706702E+04  0.00000000000E+00 0. -1.
         23    2    1    2    0    0 -0.42255564935E+03 -0.65321669146E+03 -0.18636303521E+04  0.20215634319E+04  0.91407315554E+02 0.  0.
         11    1    3    3    0    0 -0.12998294698E+03 -0.23905048195E+03 -0.55476628831E+03  0.61790479369E+03  0.00000000000E+00 0. -1.
        -11    1    3    3    0    0 -0.29257270237E+03 -0.41416620951E+03 -0.13088640638E+04  0.14036586382E+04  0.00000000000E+00 0.  1.
         22    1    1    2    0    0  0.42255564935E+03  0.65321669146E+03 -0.27100537167E+02  0.77844701933E+03  0.00000000000E+00 0.  1.
<mgrwt>
<rscale>  0 0.20652349E+04</rscale>
<asrwt>0</asrwt>
<pdfrwt beam="1">  1        1 0.36082625E+00 0.20652349E+04</pdfrwt>
<pdfrwt beam="2">  1       -1 0.69944583E-01 0.20652349E+04</pdfrwt>
<totfact> 0.33028734E+00</totfact>
</mgrwt>
</event>
<event>
 6    1  0.1001928E-005  0.3454881E+04  0.7818608E-02  0.8124567E-01
         -3   -1    0    0    0  501 -0.00000000000E+00  0.00000000000E+00  0.94450141259E+03  0.94450141259E+03  0.00000000000E+00 0.  1.
          3   -1    0    0  501    0  0.00000000000E+00 -0.00000000000E+00 -0.31593929952E+04  0.31593929952E+04  0.00000000000E+00 0. -1.
         23    2    1    2    0    0  0.11866579285E+04  0.27744350055E+03 -0.25607622241E+04  0.28371038032E+04  0.80764389254E+02 0.  0.
         11    1    3    3    0    0  0.78977658554E+03  0.22202944765E+03 -0.16955936006E+04  0.18836352590E+04  0.00000000000E+00 0.  1.
        -11    1    3    3    0    0  0.39688134293E+03  0.55414052902E+02 -0.86516862352E+03  0.95346854419E+03  0.00000000000E+00 0. -1.
         22    1    1    2    0    0 -0.11866579285E+04 -0.27744350055E+03  0.34587064151E+03  0.12667906046E+04  0.00000000000E+00 0.  1.
<mgrwt>
<rscale>  0 0.34548813E+04</rscale>
<asrwt>0</asrwt>
<pdfrwt beam="1">  1        3 0.48606046E+00 0.34548813E+04</pdfrwt>
<pdfrwt beam="2">  1       -3 0.14530791E+00 0.34548813E+04</pdfrwt>
<totfact> 0.30010448E-03</totfact>
</mgrwt>
</event>
<event>
 6    1  0.1001928E-005  0.3232460E+04  0.7818608E-02  0.8180297E-01
          2   -1    0    0  501    0  0.00000000000E+00  0.00000000000E+00  0.29170228754E+04  0.29170228754E+04  0.00000000000E+00 0.  1.
         -2   -1    0    0    0  501 -0.00000000000E+00 -0.00000000000E+00 -0.89550171044E+03  0.89550171044E+03  0.00000000000E+00 0. -1.
         23    2    1    2    0    0 -0.11910752591E+03 -0.95866076256E+03  0.25373478334E+04  0.27174016647E+04  0.11366934060E+03 0.  0.
         11    1    3    3    0    0 -0.82635611855E+02 -0.26081280956E+03  0.68365898791E+03  0.73637054377E+03  0.00000000000E+00 0.  1.
        -11    1    3    3    0    0 -0.36471914056E+02 -0.69784795299E+03  0.18536888455E+04  0.19810311209E+04  0.00000000000E+00 0. -1.
         22    1    1    2    0    0  0.11910752591E+03  0.95866076256E+03 -0.51582666852E+03  0.10951229211E+04  0.00000000000E+00 0. -1.
<mgrwt>
<rscale>  0 0.32324597E+04</rscale>
<asrwt>0</asrwt>
<pdfrwt beam="1">  1        2 0.44877274E+00 0.32324597E+04</pdfrwt>
<pdfrwt beam="2">  1       -2 0.13776950E+00 0.32324597E+04</pdfrwt>
<totfact> 0.61630204E-01</totfact>
</mgrwt>
</event>
<event>
 6    1  0.1001928E-005  0.7552775E+03  0.7818608E-02  0.9627107E-01
         -2   -1    0    0    0  501 -0.00000000000E+00  0.00000000000E+00  0.92174443482E+02  0.92174443482E+02  0.00000000000E+00 0.  1.
          2   -1    0    0  501    0  0.00000000000E+00 -0.00000000000E+00 -0.15471860403E+04  0.15471860403E+04  0.00000000000E+00 0. -1.
         23    2    1    2    0    0 -0.70278871763E+02  0.34547209216E+03 -0.99570463358E+03  0.10603501447E+04  0.92868863260E+02 0.  0.
         13    1    3    3    0    0 -0.21304288012E+02  0.14672887732E+02 -0.38236932389E+02  0.46165239311E+02  0.00000000000E+00 0. -1.
        -13    1    3    3    0    0 -0.48974583751E+02  0.33079920443E+03 -0.95746770119E+03  0.10141849054E+04  0.00000000000E+00 0.  1.
         22    1    1    2    0    0  0.70278871763E+02 -0.34547209216E+03 -0.45930696323E+03  0.57901033907E+03  0.00000000000E+00 0.  1.
<mgrwt>
<rscale>  0 0.75527746E+03</rscale>
<asrwt>0</asrwt>
<pdfrwt beam="1">  1        2 0.23802862E+00 0.75527746E+03</pdfrwt>
<pdfrwt beam="2">  1       -2 0.14180684E-01 0.75527746E+03</pdfrwt>
<totfact> 0.46590449E+02</totfact>
</mgrwt>
</event>
<event>
 6    1  0.1001928E-005  0.4805645E+04  0.7818608E-02  0.7859208E-01
          1   -1    0    0  501    0  0.00000000000E+00  0.00000000000E+00  0.35562436419E+04  0.35562436419E+04  0.00000000000E+00 0. -1.
         -1   -1    0    0    0  501 -0.00000000000E+00 -0.00000000000E+00 -0.16234985136E+04  0.16234985136E+04  0.00000000000E+00 0.  1.
         23    2    1    2    0    0 -0.38792916716E+03  0.22706608374E+04  0.23324996173E+03  0.23171081414E+04  0.90525781077E+02 0.  0.
         11    1    3    3    0    0 -0.32406524886E+03  0.17526342011E+04  0.15112122701E+03  0.17887376983E+04  0.00000000000E+00 0. -1.
        -11    1    3    3    0    0 -0.63863918298E+02  0.51802663638E+03  0.82128734714E+02  0.52837044308E+03  0.00000000000E+00 0.  1.
         22    1    1    2    0    0  0.38792916716E+03 -0.22706608374E+04  0.16994951666E+04  0.28626340141E+04  0.00000000000E+00 0. -1.
<mgrwt>
<rscale>  0 0.48056451E+04</rscale>
<asrwt>0</asrwt>
<pdfrwt beam="1">  1        1 0.54711440E+00 0.48056451E+04</pdfrwt>
<pdfrwt beam="2">  1       -1 0.24976900E+00 0.48056451E+04</pdfrwt>
<totfact> 0.11550173E-02</totfact>
</mgrwt>
</event>
<event>
 6    1  0.1001928E-005  0.2545282E+04  0.7818608E-02  0.8387029E-01
          1   -1    0    0  501    0  0.00000000000E+00  0.00000000000E+00  0.10405350027E+04  0.10405350027E+04  0.00000000000E+00 0. -1.
         -1   -1    0    0    0  501 -0.00000000000E+00 -0.00000000000E+00 -0.15565209847E+04  0.15565209847E+04  0.00000000000E+00 0.  1.
         23    2    1    2    0    0 -0.95867914516E+03 -0.18176469013E+03 -0.10893830085E+04  0.14652926482E+04  0.90681309191E+02 0.  0.
         11    1    3    3    0    0 -0.56914575619E+03 -0.64711751008E+02 -0.65783977745E+03  0.87227729267E+03  0.00000000000E+00 0. -1.
        -11    1    3    3    0    0 -0.38953338897E+03 -0.11705293912E+03 -0.43154323100E+03  0.59301535554E+03  0.00000000000E+00 0.  1.
         22    1    1    2    0    0  0.95867914516E+03  0.18176469013E+03  0.57339702644E+03  0.11317633392E+04  0.00000000000E+00 0. -1.
<mgrwt>
<rscale>  0 0.25452816E+04</rscale>
<asrwt>0</asrwt>
<pdfrwt beam="1">  1        1 0.16008231E+00 0.25452816E+04</pdfrwt>
<pdfrwt beam="2">  1       -1 0.23946477E+00 0.25452816E+04</pdfrwt>
<totfact> 0.10178413E+00</totfact>
</mgrwt>
</event>
<event>
 6    1  0.1001928E-005  0.4202604E+04  0.7818608E-02  0.7964877E-01
          1   -1    0    0  501    0  0.00000000000E+00  0.00000000000E+00  0.28645307140E+04  0.28645307140E+04  0.00000000000E+00 0. -1.
         -1   -1    0    0    0  501 -0.00000000000E+00 -0.00000000000E+00 -0.15414288026E+04  0.15414288026E+04  0.00000000000E+00 0.  1.
         23    2    1    2    0    0 -0.15907531668E+04 -0.13644161932E+04  0.51741689568E+03  0.21606854731E+04  0.93350328698E+02 0.  0.
         13    1    3    3    0    0 -0.20058239630E+03 -0.13612829971E+03  0.72304219454E+02  0.25296662198E+03  0.00000000000E+00 0. -1.
        -13    1    3    3    0    0 -0.13901707706E+04 -0.12282878934E+04  0.44511267622E+03  0.19077188511E+04  0.00000000000E+00 0.  1.
         22    1    1    2    0    0  0.15907531668E+04  0.13644161932E+04  0.80568501572E+03  0.22452740435E+04  0.00000000000E+00 0. -1.
<mgrwt>
<rscale>  0 0.42026040E+04</rscale>
<asrwt>0</asrwt>
<pdfrwt beam="1">  1        1 0.44069703E+00 0.42026040E+04</pdfrwt>
<pdfrwt beam="2">  1       -1 0.23714289E+00 0.42026040E+04</pdfrwt>
<totfact> 0.48823385E-02</totfact>
</mgrwt>
</event>
<event>
 6    1  0.1001928E-005  0.2575834E+04  0.7818608E-02  0.8376456E-01
         -2   -1    0    0    0  501 -0.00000000000E+00  0.00000000000E+00  0.17432746603E+04  0.17432746603E+04  0.00000000000E+00 0.  1.
          2   -1    0    0  501    0  0.00000000000E+00 -0.00000000000E+00 -0.95150254004E+03  0.95150254004E+03  0.00000000000E+00 0. -1.
         23    2    1    2    0    0  0.40203863727E+01  0.10170124660E+04  0.12203116186E+04  0.15911574193E+04  0.91054747842E+02 0.  0.
         13    1    3    3    0    0  0.24232359380E+02  0.27459558955E+03  0.28009272592E+03  0.39299094157E+03  0.00000000000E+00 0. -1.
        -13    1    3    3    0    0 -0.20211973007E+02  0.74241687647E+03  0.94021889266E+03  0.11981664778E+04  0.00000000000E+00 0.  1.
         22    1    1    2    0    0 -0.40203863727E+01 -0.10170124660E+04 -0.42853949827E+03  0.11036197811E+04  0.00000000000E+00 0. -1.
<mgrwt>
<rscale>  0 0.25758341E+04</rscale>
<asrwt>0</asrwt>
<pdfrwt beam="1">  1        2 0.14638501E+00 0.25758341E+04</pdfrwt>
<pdfrwt beam="2">  1       -2 0.26819610E+00 0.25758341E+04</pdfrwt>
<totfact> 0.11934857E+00</totfact>
</mgrwt>
</event>
<event>
 6    1  0.1001928E-005  0.2288395E+04  0.7818608E-02  0.8482511E-01
         -1   -1    0    0    0  501 -0.00000000000E+00  0.00000000000E+00  0.13980532354E+04  0.13980532354E+04  0.00000000000E+00 0.  1.
          1   -1    0    0  501    0  0.00000000000E+00 -0.00000000000E+00 -0.93643615382E+03  0.93643615382E+03  0.00000000000E+00 0. -1.
         23    2    1    2    0    0 -0.83814853425E+03 -0.39581943560E+03 -0.45004800007E+03  0.10343743127E+04  0.90669870375E+02 0.  0.
         11    1    3    3    0    0 -0.76594181922E+03 -0.36464595494E+03 -0.43830698987E+03  0.95485420890E+03  0.00000000000E+00 0. -1.
        -11    1    3    3    0    0 -0.72206715036E+02 -0.31173480652E+02 -0.11741010202E+02  0.79520103828E+02  0.00000000000E+00 0.  1.
         22    1    1    2    0    0  0.83814853425E+03  0.39581943560E+03  0.91166508168E+03  0.13001150765E+04  0.00000000000E+00 0.  1.
<mgrwt>
<rscale>  0 0.22883947E+04</rscale>
<asrwt>0</asrwt>
<pdfrwt beam="1">  1        1 0.14406710E+00 0.22883947E+04</pdfrwt>
<pdfrwt beam="2">  1       -1 0.21508511E+00 0.22883947E+04</pdfrwt>
<totfact> 0.18260925E+00</totfact>
</mgrwt>
</event>
<event>
 6    1  0.1001928E-005  0.5743250E+03  0.7818608E-02  0.9960153E-01
         -1   -1    0    0    0  501 -0.00000000000E+00  0.00000000000E+00  0.64470236461E+02  0.64470236461E+02  0.00000000000E+00 0.  1.
          1   -1    0    0  501    0  0.00000000000E+00 -0.00000000000E+00 -0.12790754380E+04  0.12790754380E+04  0.00000000000E+00 0. -1.
         23    2    1    2    0    0  0.61298776884E+02 -0.27156185071E+03 -0.55274366678E+03  0.62551777110E+03  0.90793953481E+02 0.  0.
         11    1    3    3    0    0  0.65373797774E+02 -0.18498593149E+03 -0.45122170695E+03  0.49203105299E+03  0.00000000000E+00 0. -1.
        -11    1    3    3    0    0 -0.40750208899E+01 -0.86575919219E+02 -0.10152195983E+03  0.13348671811E+03  0.00000000000E+00 0.  1.
         22    1    1    2    0    0 -0.61298776884E+02  0.27156185071E+03 -0.66186153479E+03  0.71802790339E+03  0.00000000000E+00 0. -1.
<mgrwt>
<rscale>  0 0.57432498E+03</rscale>
<asrwt>0</asrwt>
<pdfrwt beam="1">  1        1 0.19678082E+00 0.57432498E+03</pdfrwt>
<pdfrwt beam="2">  1       -1 0.99184988E-02 0.57432498E+03</pdfrwt>
<totfact> 0.61141687E+02</totfact>
</mgrwt>
</event>
<event>
 6    1  0.1001928E-005  0.1398331E+04  0.7818608E-02  0.8955028E-01
          2   -1    0    0  501    0  0.00000000000E+00  0.00000000000E+00  0.16159361131E+04  0.16159361131E+04  0.00000000000E+00 0.  1.
         -2   -1    0    0    0  501 -0.00000000000E+00 -0.00000000000E+00 -0.30250720890E+03  0.30250720890E+03  0.00000000000E+00 0. -1.
         23    2    1    2    0    0 -0.12898857716E+03 -0.66949649958E+03  0.47182039536E+03  0.83531429083E+03  0.10135019983E+03 0.  0.
         13    1    3    3    0    0 -0.12564380430E+03 -0.54870695218E+03  0.42659507887E+03  0.70629246509E+03  0.00000000000E+00 0.  1.
        -13    1    3    3    0    0 -0.33447728620E+01 -0.12078954739E+03  0.45225316491E+02  0.12902182574E+03  0.00000000000E+00 0. -1.
         22    1    1    2    0    0  0.12898857716E+03  0.66949649958E+03  0.84160850885E+03  0.10831290312E+04  0.00000000000E+00 0.  1.
<mgrwt>
<rscale>  0 0.13983309E+04</rscale>
<asrwt>0</asrwt>
<pdfrwt beam="1">  1        2 0.24860555E+00 0.13983309E+04</pdfrwt>
<pdfrwt beam="2">  1       -2 0.46539572E-01 0.13983309E+04</pdfrwt>
<totfact> 0.46540530E+01</totfact>
</mgrwt>
</event>
<event>
 6    1  0.1001928E-005  0.3676761E+04  0.7818608E-02  0.8073132E-01
          2   -1    0    0  501    0  0.00000000000E+00  0.00000000000E+00  0.23919018438E+04  0.23919018438E+04  0.00000000000E+00 0. -1.
         -2   -1    0    0    0  501 -0.00000000000E+00 -0.00000000000E+00 -0.14129518359E+04  0.14129518359E+04  0.00000000000E+00 0.  1.
         23    2    1    2    0    0  0.13916220850E+04 -0.79786912652E+03 -0.43714980052E+03  0.16650999935E+04  0.90834298176E+02 0.  0.
         13    1    3    3    0    0  0.29175378778E+03 -0.17379038305E+03 -0.13097074042E+03  0.36397349460E+03  0.00000000000E+00 0.  1.
        -13    1    3    3    0    0  0.10998682972E+04 -0.62407874347E+03 -0.30617906010E+03  0.13011264989E+04  0.00000000000E+00 0. -1.
         22    1    1    2    0    0 -0.13916220850E+04  0.79786912652E+03  0.14160998084E+04  0.21397536863E+04  0.00000000000E+00 0.  1.
<mgrwt>
<rscale>  0 0.36767606E+04</rscale>
<asrwt>0</asrwt>
<pdfrwt beam="1">  1        2 0.36798490E+00 0.36767606E+04</pdfrwt>
<pdfrwt beam="2">  1       -2 0.21737721E+00 0.36767606E+04</pdfrwt>
<totfact> 0.33423860E-01</totfact>
</mgrwt>
</event>
<event>
 6    1  0.1001928E-005  0.3868959E+04  0.7818608E-02  0.8031516E-01
          2   -1    0    0  501    0  0.00000000000E+00  0.00000000000E+00  0.40913324062E+04  0.40913324062E+04  0.00000000000E+00 0. -1.
         -2   -1    0    0    0  501 -0.00000000000E+00 -0.00000000000E+00 -0.91466799572E+03  0.91466799572E+03  0.00000000000E+00 0.  1.
         23    2    1    2    0    0 -0.17627014489E+04  0.37101613825E+03  0.68043734694E+03  0.19277023453E+04  0.90950403651E+02 0.  0.
         13    1    3    3    0    0 -0.13830790617E+04  0.32329849486E+03  0.55701183284E+03  0.15256774855E+04  0.00000000000E+00 0.  1.
        -13    1    3    3    0    0 -0.37962238721E+03  0.47717643389E+02  0.12342551411E+03  0.40202485980E+03  0.00000000000E+00 0. -1.
         22    1    1    2    0    0  0.17627014489E+04 -0.37101613825E+03  0.24962270636E+04  0.30782980567E+04  0.00000000000E+00 0. -1.
<mgrwt>
<rscale>  0 0.38689589E+04</rscale>
<asrwt>0</asrwt>
<pdfrwt beam="1">  1        2 0.62943574E+00 0.38689589E+04</pdfrwt>
<pdfrwt beam="2">  1       -2 0.14071816E+00 0.38689589E+04</pdfrwt>
<totfact> 0.80994392E-02</totfact>
</mgrwt>
</event>
<event>
 6    1  0.1001928E-005  0.2251684E+04  0.7818608E-02  0.8497219E-01
          1   -1    0    0  501    0  0.00000000000E+00  0.00000000000E+00  0.92225459388E+03  0.92225459388E+03  0.00000000000E+00 0. -1.
         -1   -1    0    0    0  501 -0.00000000000E+00 -0.00000000000E+00 -0.13743716576E+04  0.13743716576E+04  0.00000000000E+00 0.  1.
         23    2    1    2    0    0 -0.58153752047E+03 -0.56107640253E+03  0.57039636737E+03  0.99335101809E+03  0.91660307800E+02 0.  0.
         11    1    3    3    0    0 -0.21632034925E+03 -0.25805705793E+03  0.27106008418E+03  0.43227480598E+03  0.00000000000E+00 0.  1.
        -11    1    3    3    0    0 -0.36521717123E+03 -0.30301934460E+03  0.29933628319E+03  0.56107621211E+03  0.00000000000E+00 0. -1.
         22    1    1    2    0    0  0.58153752047E+03  0.56107640253E+03 -0.10225134311E+04  0.13032752334E+04  0.00000000000E+00 0.  1.
<mgrwt>
<rscale>  0 0.22516843E+04</rscale>
<asrwt>0</asrwt>
<pdfrwt beam="1">  1        1 0.14188532E+00 0.22516843E+04</pdfrwt>
<pdfrwt beam="2">  1       -1 0.21144179E+00 0.22516843E+04</pdfrwt>
<totfact> 0.19907843E+00</totfact>
</mgrwt>
</event>
<event>
 6    1  0.1001928E-005  0.2165166E+04  0.7818608E-02  0.8533068E-01
         -1   -1    0    0    0  501 -0.00000000000E+00  0.00000000000E+00  0.78605237262E+03  0.78605237262E+03  0.00000000000E+00 0.  1.
          1   -1    0    0  501    0  0.00000000000E+00 -0.00000000000E+00 -0.14909770999E+04  0.14909770999E+04  0.00000000000E+00 0. -1.
         23    2    1    2    0    0  0.41854684244E+03 -0.65647358842E+03 -0.11412100052E+04  0.13845700195E+04  0.92384150702E+02 0.  0.
         13    1    3    3    0    0  0.30698524747E+03 -0.50066799541E+03 -0.78867627137E+03  0.98332021479E+03  0.00000000000E+00 0.  1.
        -13    1    3    3    0    0  0.11156159497E+03 -0.15580559300E+03 -0.35253373384E+03  0.40124980471E+03  0.00000000000E+00 0. -1.
         22    1    1    2    0    0 -0.41854684244E+03  0.65647358842E+03  0.43628527791E+03  0.89245945304E+03  0.00000000000E+00 0.  1.
<mgrwt>
<rscale>  0 0.21651661E+04</rscale>
<asrwt>0</asrwt>
<pdfrwt beam="1">  1        1 0.22938109E+00 0.21651661E+04</pdfrwt>
<pdfrwt beam="2">  1       -1 0.12093114E+00 0.21651661E+04</pdfrwt>
<totfact> 0.36866389E+00</totfact>
</mgrwt>
</event>
<event>
 6    1  0.1001928E-005  0.3089211E+04  0.7818608E-02  0.8218705E-01
         -2   -1    0    0    0  501 -0.00000000000E+00  0.00000000000E+00  0.62506447578E+03  0.62506447578E+03  0.00000000000E+00 0. -1.
          2   -1    0    0  501    0  0.00000000000E+00 -0.00000000000E+00 -0.38168956299E+04  0.38168956299E+04  0.00000000000E+00 0.  1.
         23    2    1    2    0    0 -0.12081179711E+04  0.94660415352E+03 -0.18314360587E+04  0.23910375642E+04  0.85405742819E+02 0.  0.
         13    1    3    3    0    0 -0.72526308969E+03  0.52311911083E+03 -0.10305899662E+04  0.13644690659E+04  0.00000000000E+00 0.  1.
        -13    1    3    3    0    0 -0.48285488136E+03  0.42348504268E+03 -0.80084609241E+03  0.10265684982E+04  0.00000000000E+00 0. -1.
         22    1    1    2    0    0  0.12081179711E+04 -0.94660415352E+03 -0.13603950955E+04  0.20509225415E+04  0.00000000000E+00 0.  1.
<mgrwt>
<rscale>  0 0.30892108E+04</rscale>
<asrwt>0</asrwt>
<pdfrwt beam="1">  1        2 0.58721470E+00 0.30892108E+04</pdfrwt>
<pdfrwt beam="2">  1       -2 0.96163768E-01 0.30892108E+04</pdfrwt>
<totfact> 0.36656694E-01</totfact>
</mgrwt>
</event>
<event>
 6    1  0.1001928E-005  0.2121942E+04  0.7818608E-02  0.8551639E-01
          2   -1    0    0  501    0  0.00000000000E+00  0.00000000000E+00  0.15269856293E+04  0.15269856293E+04  0.00000000000E+00 0. -1.
         -2   -1    0    0    0  501 -0.00000000000E+00 -0.00000000000E+00 -0.73717756313E+03  0.73717756313E+03  0.00000000000E+00 0.  1.
         23    2    1    2    0    0 -0.35587665864E+03 -0.51685005614E+02  0.14584848526E+04  0.15049213464E+04  0.91053049002E+02 0.  0.
         13    1    3    3    0    0 -0.10740193215E+03  0.14438809642E+02  0.55903997546E+03  0.56944652815E+03  0.00000000000E+00 0.  1.
        -13    1    3    3    0    0 -0.24847472649E+03 -0.66123815256E+02  0.89944487712E+03  0.93547481828E+03  0.00000000000E+00 0. -1.
         22    1    1    2    0    0  0.35587665864E+03  0.51685005614E+02 -0.66867678644E+03  0.75924184598E+03  0.00000000000E+00 0.  1.
<mgrwt>
<rscale>  0 0.21219421E+04</rscale>
<asrwt>0</asrwt>
<pdfrwt beam="1">  1        2 0.23492086E+00 0.21219421E+04</pdfrwt>
<pdfrwt beam="2">  1       -2 0.11341193E+00 0.21219421E+04</pdfrwt>
<totfact> 0.68785718E+00</totfact>
</mgrwt>
</event>
<event>
 6    1  0.1001928E-005  0.1463241E+04  0.7818608E-02  0.8909272E-01
         -1   -1    0    0    0  501 -0.00000000000E+00  0.00000000000E+00  0.18173564620E+03  0.18173564620E+03  0.00000000000E+00 0.  1.
          1   -1    0    0  501    0  0.00000000000E+00 -0.00000000000E+00 -0.29453157213E+04  0.29453157213E+04  0.00000000000E+00 0. -1.
         23    2    1    2    0    0  0.39003887094E+03  0.19657650570E+03 -0.26340940345E+04  0.26714865772E+04  0.87272595634E+02 0.  0.
         11    1    3    3    0    0  0.13842264525E+03  0.73008294510E+02 -0.70716479927E+03  0.72427418366E+03  0.00000000000E+00 0. -1.
        -11    1    3    3    0    0  0.25161622568E+03  0.12356821119E+03 -0.19269292353E+04  0.19472123935E+04  0.00000000000E+00 0.  1.
         22    1    1    2    0    0 -0.39003887094E+03 -0.19657650570E+03 -0.12948604052E+03  0.45556479026E+03  0.00000000000E+00 0.  1.
<mgrwt>
<rscale>  0 0.14632414E+04</rscale>
<asrwt>0</asrwt>
<pdfrwt beam="1">  1        1 0.45312549E+00 0.14632414E+04</pdfrwt>
<pdfrwt beam="2">  1       -1 0.27959331E-01 0.14632414E+04</pdfrwt>
<totfact> 0.73829000E+00</totfact>
</mgrwt>
</event>
<event>
 6    1  0.1001928E-005  0.2666724E+04  0.7818608E-02  0.8345883E-01
          2   -1    0    0  501    0  0.00000000000E+00  0.00000000000E+00  0.13735630077E+04  0.13735630077E+04  0.00000000000E+00 0. -1.
         -2   -1    0    0    0  501 -0.00000000000E+00 -0.00000000000E+00 -0.12943379150E+04  0.12943379150E+04  0.00000000000E+00 0.  1.
         23    2    1    2    0    0  0.96345536736E+03  0.79246254752E+03 -0.42683758763E+03  0.13216681901E+04  0.91505979670E+02 0.  0.
         11    1    3    3    0    0  0.33315737835E+03  0.22968915508E+03 -0.16551731867E+03  0.43720353325E+03  0.00000000000E+00 0.  1.
        -11    1    3    3    0    0  0.63029798901E+03  0.56277339244E+03 -0.26132026897E+03  0.88446465682E+03  0.00000000000E+00 0. -1.
         22    1    1    2    0    0 -0.96345536736E+03 -0.79246254752E+03  0.50606268033E+03  0.13462327327E+04  0.00000000000E+00 0. -1.
<mgrwt>
<rscale>  0 0.26667243E+04</rscale>
<asrwt>0</asrwt>
<pdfrwt beam="1">  1        2 0.21131739E+00 0.26667243E+04</pdfrwt>
<pdfrwt beam="2">  1       -2 0.19912891E+00 0.26667243E+04</pdfrwt>
<totfact> 0.17767251E+00</totfact>
</mgrwt>
</event>
<event>
 6    1  0.1001928E-005  0.5377273E+04  0.7818608E-02  0.7772806E-01
          2   -1    0    0  501    0  0.00000000000E+00  0.00000000000E+00  0.30646345320E+04  0.30646345320E+04  0.00000000000E+00 0.  1.
         -2   -1    0    0    0  501 -0.00000000000E+00 -0.00000000000E+00 -0.23587690778E+04  0.23587690778E+04  0.00000000000E+00 0. -1.
         23    2    1    2    0    0 -0.75068263348E+03  0.14962577326E+04 -0.17679240577E+04  0.24364409104E+04  0.91527139263E+02 0.  0.
         11    1    3    3    0    0 -0.44208748234E+03  0.80356681579E+03 -0.10103842247E+04  0.13645648577E+04  0.00000000000E+00 0. -1.
        -11    1    3    3    0    0 -0.30859515113E+03  0.69269091686E+03 -0.75753983300E+03  0.10718760526E+04  0.00000000000E+00 0.  1.
         22    1    1    2    0    0  0.75068263348E+03 -0.14962577326E+04  0.24737895119E+04  0.29869626994E+04  0.00000000000E+00 0.  1.
<mgrwt>
<rscale>  0 0.53772726E+04</rscale>
<asrwt>0</asrwt>
<pdfrwt beam="1">  1        2 0.47148224E+00 0.53772726E+04</pdfrwt>
<pdfrwt beam="2">  1       -2 0.36288755E+00 0.53772726E+04</pdfrwt>
<totfact> 0.14431944E-02</totfact>
</mgrwt>
</event>
<event>
 6    1  0.1001928E-005  0.5768528E+03  0.7818608E-02  0.9954628E-01
          2   -1    0    0  501    0  0.00000000000E+00  0.00000000000E+00  0.18561686026E+03  0.18561686026E+03  0.00000000000E+00 0. -1.
         -2   -1    0    0    0  501 -0.00000000000E+00 -0.00000000000E+00 -0.44818017785E+03  0.44818017785E+03  0.00000000000E+00 0.  1.
         23    2    1    2    0    0  0.20465270444E+03 -0.19814504192E+03 -0.14007579982E+03  0.32372062965E+03  0.63479361171E+02 0.  0.
         13    1    3    3    0    0  0.11674698737E+03 -0.15358335923E+03 -0.84931409586E+02  0.21078674443E+03  0.00000000000E+00 0.  1.
        -13    1    3    3    0    0  0.87905717065E+02 -0.44561682692E+02 -0.55144390236E+02  0.11293388522E+03  0.00000000000E+00 0. -1.
         22    1    1    2    0    0 -0.20465270444E+03  0.19814504192E+03 -0.12248751777E+03  0.31007640846E+03  0.00000000000E+00 0.  1.
<mgrwt>
<rscale>  0 0.57685283E+03</rscale>
<asrwt>0</asrwt>
<pdfrwt beam="1">  1        2 0.28556440E-01 0.57685283E+03</pdfrwt>
<pdfrwt beam="2">  1       -2 0.68950796E-01 0.57685283E+03</pdfrwt>
<totfact> 0.36527927E+02</totfact>
</mgrwt>
</event>
<event>
 6    1  0.1001928E-005  0.1598379E+04  0.7818608E-02  0.8821544E-01
          2   -1    0    0  501    0  0.00000000000E+00  0.00000000000E+00  0.25819856925E+04  0.25819856925E+04  0.00000000000E+00 0.  1.
         -2   -1    0    0    0  501 -0.00000000000E+00 -0.00000000000E+00 -0.24736937399E+03  0.24736937399E+03  0.00000000000E+00 0. -1.
         23    2    1    2    0    0 -0.68648859100E+03  0.40388984039E+03  0.11479609677E+04  0.14001789016E+04  0.91065824330E+02 0.  0.
         11    1    3    3    0    0 -0.10365577387E+03  0.10144749110E+03  0.20542367606E+03  0.25146570262E+03  0.00000000000E+00 0. -1.
        -11    1    3    3    0    0 -0.58283281713E+03  0.30244234929E+03  0.94253729164E+03  0.11487131990E+04  0.00000000000E+00 0.  1.
         22    1    1    2    0    0  0.68648859100E+03 -0.40388984039E+03  0.11866553508E+04  0.14291761649E+04  0.00000000000E+00 0. -1.
<mgrwt>
<rscale>  0 0.15983794E+04</rscale>
<asrwt>0</asrwt>
<pdfrwt beam="1">  1        2 0.39722855E+00 0.15983794E+04</pdfrwt>
<pdfrwt beam="2">  1       -2 0.38056829E-01 0.15983794E+04</pdfrwt>
<totfact> 0.19544226E+01</totfact>
</mgrwt>
</event>
<event>
 6    1  0.1001928E-005  0.1890499E+04  0.7818608E-02  0.8659600E-01
          1   -1    0    0  501    0  0.00000000000E+00  0.00000000000E+00  0.29804207556E+04  0.29804207556E+04  0.00000000000E+00 0. -1.
         -1   -1    0    0    0  501 -0.00000000000E+00 -0.00000000000E+00 -0.29978860067E+03  0.29978860067E+03  0.00000000000E+00 0.  1.
         23    2    1    2    0    0  0.69720321673E+03  0.42922816889E+03  0.53134685679E+03  0.98026230487E+03  0.90860099832E+02 0.  0.
         13    1    3    3    0    0  0.22994796561E+03  0.15768683983E+03  0.13317847385E+03  0.30899467996E+03  0.00000000000E+00 0.  1.
        -13    1    3    3    0    0  0.46725525112E+03  0.27154132906E+03  0.39816838293E+03  0.67126762491E+03  0.00000000000E+00 0. -1.
         22    1    1    2    0    0 -0.69720321673E+03 -0.42922816889E+03  0.21492852981E+04  0.22999470514E+04  0.00000000000E+00 0. -1.
<mgrwt>
<rscale>  0 0.18904985E+04</rscale>
<asrwt>0</asrwt>
<pdfrwt beam="1">  1        1 0.45852625E+00 0.18904985E+04</pdfrwt>
<pdfrwt beam="2">  1       -1 0.46121325E-01 0.18904985E+04</pdfrwt>
<totfact> 0.27116502E+00</totfact>
</mgrwt>
</event>
<event>
 6    1  0.1001928E-005  0.2193139E+04  0.7818608E-02  0.8521289E-01
         -1   -1    0    0    0  501 -0.00000000000E+00  0.00000000000E+00  0.25020899059E+04  0.25020899059E+04  0.00000000000E+00 0.  1.
          1   -1    0    0  501    0  0.00000000000E+00 -0.00000000000E+00 -0.48058428458E+03  0.48058428458E+03  0.00000000000E+00 0. -1.
         23    2    1    2    0    0  0.46822489705E+03  0.91506735799E+03  0.15244720097E+04  0.18409101015E+04  0.91390751352E+02 0.  0.
         13    1    3    3    0    0  0.28214364634E+03  0.54938243285E+03  0.83490803854E+03  0.10385073555E+04  0.00000000000E+00 0.  1.
        -13    1    3    3    0    0  0.18608125071E+03  0.36568492514E+03  0.68956397117E+03  0.80240274593E+03  0.00000000000E+00 0. -1.
         22    1    1    2    0    0 -0.46822489705E+03 -0.91506735799E+03  0.49703361162E+03  0.11417640890E+04  0.00000000000E+00 0. -1.
<mgrwt>
<rscale>  0 0.21931394E+04</rscale>
<asrwt>0</asrwt>
<pdfrwt beam="1">  1        1 0.73936045E-01 0.21931394E+04</pdfrwt>
<pdfrwt beam="2">  1       -1 0.38493690E+00 0.21931394E+04</pdfrwt>
<totfact> 0.38724914E-01</totfact>
</mgrwt>
</event>
<event>
 6    1  0.1001928E-005  0.1711931E+04  0.7818608E-02  0.8754589E-01
          2   -1    0    0  501    0  0.00000000000E+00  0.00000000000E+00  0.47295315412E+03  0.47295315412E+03  0.00000000000E+00 0.  1.
         -2   -1    0    0    0  501 -0.00000000000E+00 -0.00000000000E+00 -0.15491539732E+04  0.15491539732E+04  0.00000000000E+00 0. -1.
         23    2    1    2    0    0  0.43498568191E+03 -0.27811379296E+03  0.26323724345E+03  0.58660925249E+03  0.90866624555E+02 0.  0.
         11    1    3    3    0    0  0.30261581148E+03 -0.19750409445E+03  0.13607681697E+03  0.38613611175E+03  0.00000000000E+00 0. -1.
        -11    1    3    3    0    0  0.13236987043E+03 -0.80609698515E+02  0.12716042649E+03  0.20047314074E+03  0.00000000000E+00 0.  1.
         22    1    1    2    0    0 -0.43498568191E+03  0.27811379296E+03 -0.13394380626E+04  0.14354978749E+04  0.00000000000E+00 0. -1.
<mgrwt>
<rscale>  0 0.17119314E+04</rscale>
<asrwt>0</asrwt>
<pdfrwt beam="1">  1        2 0.72762023E-01 0.17119314E+04</pdfrwt>
<pdfrwt beam="2">  1       -2 0.23833138E+00 0.17119314E+04</pdfrwt>
<totfact> 0.47354293E+00</totfact>
</mgrwt>
</event>
<event>
 6    1  0.1001928E-005  0.9402632E+03  0.7818608E-02  0.9376604E-01
         -2   -1    0    0    0  501 -0.00000000000E+00  0.00000000000E+00  0.26681717244E+03  0.26681717244E+03  0.00000000000E+00 0.  1.
          2   -1    0    0  501    0  0.00000000000E+00 -0.00000000000E+00 -0.82837133976E+03  0.82837133976E+03  0.00000000000E+00 0. -1.
         23    2    1    2    0    0 -0.16379715964E+03  0.34248734591E+03 -0.59695220877E+03  0.71390107083E+03  0.95789914710E+02 0.  0.
         11    1    3    3    0    0 -0.43875888277E+02  0.16211565484E+03 -0.32868751765E+03  0.36910982563E+03  0.00000000000E+00 0. -1.
        -11    1    3    3    0    0 -0.11992127136E+03  0.18037169108E+03 -0.26826469111E+03  0.34479124519E+03  0.00000000000E+00 0.  1.
         22    1    1    2    0    0  0.16379715964E+03 -0.34248734591E+03  0.35398041444E+02  0.38128744138E+03  0.00000000000E+00 0. -1.
<mgrwt>
<rscale>  0 0.94026315E+03</rscale>
<asrwt>0</asrwt>
<pdfrwt beam="1">  1        2 0.12744174E+00 0.94026315E+03</pdfrwt>
<pdfrwt beam="2">  1       -2 0.41048796E-01 0.94026315E+03</pdfrwt>
<totfact> 0.18487659E+02</totfact>
</mgrwt>
</event>
<event>
 6    1  0.1001928E-005  0.2099836E+04  0.7818608E-02  0.8561316E-01
          1   -1    0    0  501    0  0.00000000000E+00  0.00000000000E+00  0.34732138536E+03  0.34732138536E+03  0.00000000000E+00 0. -1.
         -1   -1    0    0    0  501 -0.00000000000E+00 -0.00000000000E+00 -0.31737965130E+04  0.31737965130E+04  0.00000000000E+00 0.  1.
         23    2    1    2    0    0  0.64059538285E+03 -0.81921592478E+03 -0.16333448932E+04  0.19383870519E+04  0.89730969807E+02 0.  0.
         13    1    3    3    0    0  0.48238204592E+03 -0.67178435687E+03 -0.13189258315E+04  0.15567761591E+04  0.00000000000E+00 0. -1.
        -13    1    3    3    0    0  0.15821333693E+03 -0.14743156791E+03 -0.31441906172E+03  0.38161089289E+03  0.00000000000E+00 0.  1.
         22    1    1    2    0    0 -0.64059538285E+03  0.81921592478E+03 -0.11931302344E+04  0.15827308464E+04  0.00000000000E+00 0. -1.
<mgrwt>
<rscale>  0 0.20998356E+04</rscale>
<asrwt>0</asrwt>
<pdfrwt beam="1">  1        1 0.53434062E-01 0.20998356E+04</pdfrwt>
<pdfrwt beam="2">  1       -1 0.48827636E+00 0.20998356E+04</pdfrwt>
<totfact> 0.11799637E-01</totfact>
</mgrwt>
</event>
<event>
 6    1  0.1001928E-005  0.2837161E+04  0.7818608E-02  0.8291823E-01
         -1   -1    0    0    0  501 -0.00000000000E+00  0.00000000000E+00  0.11562361450E+04  0.11562361450E+04  0.00000000000E+00 0.  1.
          1   -1    0    0  501    0  0.00000000000E+00 -0.00000000000E+00 -0.17404500561E+04  0.17404500561E+04  0.00000000000E+00 0. -1.
         23    2    1    2    0    0  0.13128578090E+04  0.12187398567E+03  0.23788305127E+03  0.13428868863E+04  0.91147946615E+02 0.  0.
         11    1    3    3    0    0  0.77841440884E+03  0.10119581287E+03  0.17621007711E+03  0.80449958093E+03  0.00000000000E+00 0. -1.
        -11    1    3    3    0    0  0.53444340018E+03  0.20678172805E+02  0.61672974159E+02  0.53838730536E+03  0.00000000000E+00 0.  1.
         22    1    1    2    0    0 -0.13128578090E+04 -0.12187398567E+03 -0.82209696240E+03  0.15537993148E+04  0.00000000000E+00 0. -1.
<mgrwt>
<rscale>  0 0.28371614E+04</rscale>
<asrwt>0</asrwt>
<pdfrwt beam="1">  1        1 0.26776155E+00 0.28371614E+04</pdfrwt>
<pdfrwt beam="2">  1       -1 0.17788248E+00 0.28371614E+04</pdfrwt>
<totfact> 0.83202470E-01</totfact>
</mgrwt>
</event>
<event>
 6    1  0.1001928E-005  0.1664397E+04  0.7818608E-02  0.8781935E-01
         -2   -1    0    0    0  501 -0.00000000000E+00  0.00000000000E+00  0.33925640888E+03  0.33925640888E+03  0.00000000000E+00 0.  1.
          2   -1    0    0  501    0  0.00000000000E+00 -0.00000000000E+00 -0.20413887704E+04  0.20413887704E+04  0.00000000000E+00 0. -1.
         23    2    1    2    0    0  0.69782246821E+03  0.15766627447E+03 -0.25273768037E+03  0.76430369525E+03  0.92026910503E+02 0.  0.
         13    1    3    3    0    0  0.35118552625E+02  0.11803657192E+01  0.64290936542E+01  0.35721691546E+02  0.00000000000E+00 0.  1.
        -13    1    3    3    0    0  0.66270391558E+03  0.15648590875E+03 -0.25916677402E+03  0.72858200371E+03  0.00000000000E+00 0. -1.
         22    1    1    2    0    0 -0.69782246821E+03 -0.15766627447E+03 -0.14493946812E+04  0.16163414841E+04  0.00000000000E+00 0. -1.
<mgrwt>
<rscale>  0 0.16643969E+04</rscale>
<asrwt>0</asrwt>
<pdfrwt beam="1">  1        2 0.31405981E+00 0.16643969E+04</pdfrwt>
<pdfrwt beam="2">  1       -2 0.52193294E-01 0.16643969E+04</pdfrwt>
<totfact> 0.20953497E+01</totfact>
</mgrwt>
</event>
<event>
 6    1  0.1001928E-005  0.1248524E+04  0.7818608E-02  0.9071413E-01
          2   -1    0    0  501    0  0.00000000000E+00  0.00000000000E+00  0.77742780711E+03  0.77742780711E+03  0.00000000000E+00 0. -1.
         -2   -1    0    0    0  501 -0.00000000000E+00 -0.00000000000E+00 -0.50127196509E+03  0.50127196509E+03  0.00000000000E+00 0.  1.
         23    2    1    2    0    0  0.28077694801E+03 -0.47086566735E+03  0.43721140971E+03  0.70730755393E+03  0.92628223839E+02 0.  0.
         13    1    3    3    0    0  0.63840182063E+02 -0.73494089726E+02  0.11992594870E+03  0.15446418110E+03  0.00000000000E+00 0. -1.
        -13    1    3    3    0    0  0.21693676595E+03 -0.39737157762E+03  0.31728546101E+03  0.55284337284E+03  0.00000000000E+00 0.  1.
         22    1    1    2    0    0 -0.28077694801E+03  0.47086566735E+03 -0.16105556769E+03  0.57139221827E+03  0.00000000000E+00 0.  1.
<mgrwt>
<rscale>  0 0.12485236E+04</rscale>
<asrwt>0</asrwt>
<pdfrwt beam="1">  1        2 0.11960428E+00 0.12485236E+04</pdfrwt>
<pdfrwt beam="2">  1       -2 0.77118764E-01 0.12485236E+04</pdfrwt>
<totfact> 0.52838650E+01</totfact>
</mgrwt>
</event>
<event>
 6    1  0.1001928E-005  0.2929669E+04  0.7818608E-02  0.8264105E-01
          2   -1    0    0  501    0  0.00000000000E+00  0.00000000000E+00  0.14924598273E+04  0.14924598273E+04  0.00000000000E+00 0. -1.
         -2   -1    0    0    0  501 -0.00000000000E+00 -0.00000000000E+00 -0.14377201120E+04  0.14377201120E+04  0.00000000000E+00 0.  1.
         23    2    1    2    0    0  0.13644666159E+04 -0.63951606214E+02 -0.49781986976E+03  0.14566871335E+04  0.90850582507E+02 0.  0.
         13    1    3    3    0    0  0.42109350519E+03 -0.61102776814E+02 -0.16296264182E+03  0.45564252663E+03  0.00000000000E+00 0.  1.
        -13    1    3    3    0    0  0.94337311070E+03 -0.28488294000E+01 -0.33485722794E+03  0.10010446069E+04  0.00000000000E+00 0. -1.
         22    1    1    2    0    0 -0.13644666159E+04  0.63951606214E+02  0.55255958510E+03  0.14734928058E+04  0.00000000000E+00 0.  1.
<mgrwt>
<rscale>  0 0.29296686E+04</rscale>
<asrwt>0</asrwt>
<pdfrwt beam="1">  1        2 0.22960920E+00 0.29296686E+04</pdfrwt>
<pdfrwt beam="2">  1       -2 0.22118771E+00 0.29296686E+04</pdfrwt>
<totfact> 0.10721653E+00</totfact>
</mgrwt>
</event>
<event>
 6    1  0.1001928E-005  0.1224832E+04  0.7818608E-02  0.9091395E-01
          2   -1    0    0  501    0  0.00000000000E+00  0.00000000000E+00  0.15112499217E+04  0.15112499217E+04  0.00000000000E+00 0. -1.
         -2   -1    0    0    0  501 -0.00000000000E+00 -0.00000000000E+00 -0.24817429072E+03  0.24817429072E+03  0.00000000000E+00 0.  1.
         23    2    1    2    0    0  0.35077840597E+03 -0.42870264082E+03  0.99873654406E+03  0.11456599277E+04  0.90722329609E+02 0.  0.
         11    1    3    3    0    0  0.17353534377E+03 -0.28016651059E+03  0.56310194892E+03  0.65245045335E+03  0.00000000000E+00 0. -1.
        -11    1    3    3    0    0  0.17724306219E+03 -0.14853613023E+03  0.43563459514E+03  0.49320947432E+03  0.00000000000E+00 0.  1.
         22    1    1    2    0    0 -0.35077840597E+03  0.42870264082E+03  0.26433908690E+03  0.61376428472E+03  0.00000000000E+00 0.  1.
<mgrwt>
<rscale>  0 0.12248320E+04</rscale>
<asrwt>0</asrwt>
<pdfrwt beam="1">  1        2 0.23249998E+00 0.12248320E+04</pdfrwt>
<pdfrwt beam="2">  1       -2 0.38180661E-01 0.12248320E+04</pdfrwt>
<totfact> 0.79778810E+01</totfact>
</mgrwt>
</event>
<event>
 6    1  0.1001928E-005  0.7436300E+03  0.7818608E-02  0.9645397E-01
         -1   -1    0    0    0  501 -0.00000000000E+00  0.00000000000E+00  0.23065278440E+03  0.23065278440E+03  0.00000000000E+00 0.  1.
          1   -1    0    0  501    0  0.00000000000E+00 -0.00000000000E+00 -0.59937016749E+03  0.59937016749E+03  0.00000000000E+00 0. -1.
         23    2    1    2    0    0 -0.17052383005E+03 -0.29730500472E+03 -0.43362781750E+02  0.35745099010E+03  0.91772746703E+02 0.  0.
         13    1    3    3    0    0 -0.12948943347E+03 -0.14346107037E+03 -0.44105427873E+02  0.19822684193E+03  0.00000000000E+00 0. -1.
        -13    1    3    3    0    0 -0.41034396582E+02 -0.15384393435E+03  0.74264612356E+00  0.15922414818E+03  0.00000000000E+00 0.  1.
         22    1    1    2    0    0  0.17052383005E+03  0.29730500472E+03 -0.32535460134E+03  0.47257196178E+03  0.00000000000E+00 0.  1.
<mgrwt>
<rscale>  0 0.74363001E+03</rscale>
<asrwt>0</asrwt>
<pdfrwt beam="1">  1        1 0.92210794E-01 0.74363001E+03</pdfrwt>
<pdfrwt beam="2">  1       -1 0.35485044E-01 0.74363001E+03</pdfrwt>
<totfact> 0.26265095E+02</totfact>
</mgrwt>
</event>
<event>
 6    1  0.1001928E-005  0.7604901E+03  0.7818608E-02  0.9619035E-01
         -1   -1    0    0    0  501 -0.00000000000E+00  0.00000000000E+00  0.17880200767E+03  0.17880200767E+03  0.00000000000E+00 0.  1.
          1   -1    0    0  501    0  0.00000000000E+00 -0.00000000000E+00 -0.80863914262E+03  0.80863914262E+03  0.00000000000E+00 0. -1.
         23    2    1    2    0    0  0.33447254363E+02  0.37145412877E+03 -0.27322166095E+03  0.47142614576E+03  0.92171830234E+02 0.  0.
         13    1    3    3    0    0  0.53558735235E+02  0.19213426551E+03 -0.17831673552E+03  0.26754620586E+03  0.00000000000E+00 0. -1.
        -13    1    3    3    0    0 -0.20111480872E+02  0.17931986326E+03 -0.94904925425E+02  0.20387993990E+03  0.00000000000E+00 0.  1.
         22    1    1    2    0    0 -0.33447254363E+02 -0.37145412877E+03 -0.35661547400E+03  0.51601500453E+03  0.00000000000E+00 0. -1.
<mgrwt>
<rscale>  0 0.76049011E+03</rscale>
<asrwt>0</asrwt>
<pdfrwt beam="1">  1        1 0.12440602E+00 0.76049011E+03</pdfrwt>
<pdfrwt beam="2">  1       -1 0.27508002E-01 0.76049011E+03</pdfrwt>
<totfact> 0.26072353E+02</totfact>
</mgrwt>
</event>
<event>
 6    1  0.1001928E-005  0.3981915E+04  0.7818608E-02  0.8008205E-01
         -1   -1    0    0    0  501 -0.00000000000E+00  0.00000000000E+00  0.19659910543E+04  0.19659910543E+04  0.00000000000E+00 0.  1.
          1   -1    0    0  501    0  0.00000000000E+00 -0.00000000000E+00 -0.20162405173E+04  0.20162405173E+04  0.00000000000E+00 0. -1.
         23    2    1    2    0    0  0.73319176256E+03 -0.18288814316E+04  0.25311930549E+03  0.19886393211E+04  0.90771776070E+02 0.  0.
         13    1    3    3    0    0  0.31472992500E+03 -0.87310317582E+03  0.87610942926E+02  0.93222301980E+03  0.00000000000E+00 0. -1.
        -13    1    3    3    0    0  0.41846183756E+03 -0.95577825575E+03  0.16550836256E+03  0.10564163013E+04  0.00000000000E+00 0.  1.
         22    1    1    2    0    0 -0.73319176256E+03  0.18288814316E+04 -0.30336876851E+03  0.19935922505E+04  0.00000000000E+00 0.  1.
<mgrwt>
<rscale>  0 0.39819145E+04</rscale>
<asrwt>0</asrwt>
<pdfrwt beam="1">  1        1 0.31019085E+00 0.39819145E+04</pdfrwt>
<pdfrwt beam="2">  1       -1 0.30246016E+00 0.39819145E+04</pdfrwt>
<totfact> 0.72488368E-02</totfact>
</mgrwt>
</event>
<event>
 6    1  0.1001928E-005  0.1591436E+04  0.7818608E-02  0.8825827E-01
          2   -1    0    0  501    0  0.00000000000E+00  0.00000000000E+00  0.12646318172E+04  0.12646318172E+04  0.00000000000E+00 0. -1.
         -2   -1    0    0    0  501 -0.00000000000E+00 -0.00000000000E+00 -0.50067306124E+03  0.50067306124E+03  0.00000000000E+00 0.  1.
         23    2    1    2    0    0 -0.62294498562E+03  0.29681527662E+03  0.81716434403E+03  0.10732134119E+04  0.88711322412E+02 0.  0.
         13    1    3    3    0    0 -0.33914071888E+03  0.13078307228E+03  0.48204016363E+03  0.60372457176E+03  0.00000000000E+00 0. -1.
        -13    1    3    3    0    0 -0.28380426675E+03  0.16603220434E+03  0.33512418039E+03  0.46948884011E+03  0.00000000000E+00 0.  1.
         22    1    1    2    0    0  0.62294498562E+03 -0.29681527662E+03 -0.53205588027E+02  0.69209146660E+03  0.00000000000E+00 0.  1.
<mgrwt>
<rscale>  0 0.15914359E+04</rscale>
<asrwt>0</asrwt>
<pdfrwt beam="1">  1        2 0.19455874E+00 0.15914359E+04</pdfrwt>
<pdfrwt beam="2">  1       -2 0.77026625E-01 0.15914359E+04</pdfrwt>
<totfact> 0.25039651E+01</totfact>
</mgrwt>
</event>
<event>
 6    1  0.1001928E-005  0.2323086E+04  0.7818608E-02  0.8468874E-01
         -2   -1    0    0    0  501 -0.00000000000E+00  0.00000000000E+00  0.88123059781E+03  0.88123059781E+03  0.00000000000E+00 0. -1.
          2   -1    0    0  501    0  0.00000000000E+00 -0.00000000000E+00 -0.15310203221E+04  0.15310203221E+04  0.00000000000E+00 0.  1.
         23    2    1    2    0    0  0.46504794937E+03  0.99856940581E+03 -0.70190414248E+03  0.13094697240E+04  0.92903602759E+02 0.  0.
         13    1    3    3    0    0  0.21280249281E+03  0.56616427115E+03 -0.38815708932E+03  0.71867434131E+03  0.00000000000E+00 0.  1.
        -13    1    3    3    0    0  0.25224545656E+03  0.43240513466E+03 -0.31374705316E+03  0.59079538269E+03  0.00000000000E+00 0. -1.
         22    1    1    2    0    0 -0.46504794937E+03 -0.99856940581E+03  0.52114418222E+02  0.11027811959E+04  0.00000000000E+00 0. -1.
<mgrwt>
<rscale>  0 0.23230858E+04</rscale>
<asrwt>0</asrwt>
<pdfrwt beam="1">  1        2 0.23554159E+00 0.23230858E+04</pdfrwt>
<pdfrwt beam="2">  1       -2 0.13557394E+00 0.23230858E+04</pdfrwt>
<totfact> 0.43064013E+00</totfact>
</mgrwt>
</event>
<event>
 6    1  0.1001928E-005  0.1170257E+04  0.7818608E-02  0.9139297E-01
         -1   -1    0    0    0  501 -0.00000000000E+00  0.00000000000E+00  0.46493624396E+03  0.46493624396E+03  0.00000000000E+00 0.  1.
          1   -1    0    0  501    0  0.00000000000E+00 -0.00000000000E+00 -0.73639174969E+03  0.73639174969E+03  0.00000000000E+00 0. -1.
         23    2    1    2    0    0  0.37686491949E+03  0.37405466731E+03  0.10699201159E+03  0.54928000075E+03  0.91198503265E+02 0.  0.
         11    1    3    3    0    0  0.21516061961E+03  0.23904879815E+03  0.10596145860E+03  0.33862405531E+03  0.00000000000E+00 0. -1.
        -11    1    3    3    0    0  0.16170429988E+03  0.13500586916E+03  0.10305529906E+01  0.21065594543E+03  0.00000000000E+00 0.  1.
         22    1    1    2    0    0 -0.37686491949E+03 -0.37405466731E+03 -0.37844751732E+03  0.65204799290E+03  0.00000000000E+00 0. -1.
<mgrwt>
<rscale>  0 0.11702567E+04</rscale>
<asrwt>0</asrwt>
<pdfrwt beam="1">  1        1 0.11329104E+00 0.11702567E+04</pdfrwt>
<pdfrwt beam="2">  1       -1 0.71528653E-01 0.11702567E+04</pdfrwt>
<totfact> 0.49339718E+01</totfact>
</mgrwt>
</event>
<event>
 6    1  0.1001928E-005  0.1173172E+04  0.7818608E-02  0.9136669E-01
          2   -1    0    0  501    0  0.00000000000E+00  0.00000000000E+00  0.10779717432E+04  0.10779717432E+04  0.00000000000E+00 0. -1.
         -2   -1    0    0    0  501 -0.00000000000E+00 -0.00000000000E+00 -0.31919494051E+03  0.31919494051E+03  0.00000000000E+00 0.  1.
         23    2    1    2    0    0 -0.30501946796E+03  0.10910992702E+03  0.95885706460E+03  0.10164122179E+04  0.93515102700E+02 0.  0.
         11    1    3    3    0    0 -0.24407814458E+03  0.82307235280E+02  0.85578113963E+03  0.89370575728E+03  0.00000000000E+00 0.  1.
        -11    1    3    3    0    0 -0.60941323382E+02  0.26802691741E+02  0.10307592497E+03  0.12270646066E+03  0.00000000000E+00 0. -1.
         22    1    1    2    0    0  0.30501946796E+03 -0.10910992702E+03 -0.20008026190E+03  0.38075446578E+03  0.00000000000E+00 0.  1.
<mgrwt>
<rscale>  0 0.11731720E+04</rscale>
<asrwt>0</asrwt>
<pdfrwt beam="1">  1        2 0.16584181E+00 0.11731720E+04</pdfrwt>
<pdfrwt beam="2">  1       -2 0.49106914E-01 0.11731720E+04</pdfrwt>
<totfact> 0.87221916E+01</totfact>
</mgrwt>
</event>
<event>
 6    1  0.1001928E-005  0.2913517E+04  0.7818608E-02  0.8268867E-01
          2   -1    0    0  501    0  0.00000000000E+00  0.00000000000E+00  0.28893920641E+04  0.28893920641E+04  0.00000000000E+00 0.  1.
         -2   -1    0    0    0  501 -0.00000000000E+00 -0.00000000000E+00 -0.73446069672E+03  0.73446069672E+03  0.00000000000E+00 0. -1.
         23    2    1    2    0    0 -0.61765405648E+03  0.17446607233E+03 -0.54653098311E+03  0.84719401783E+03  0.84300916127E+02 0.  0.
         11    1    3    3    0    0 -0.42168455062E+03  0.15725564443E+03 -0.36393150052E+03  0.57878608743E+03  0.00000000000E+00 0. -1.
        -11    1    3    3    0    0 -0.19596950587E+03  0.17210427907E+02 -0.18259948259E+03  0.26840793040E+03  0.00000000000E+00 0.  1.
         22    1    1    2    0    0  0.61765405648E+03 -0.17446607233E+03  0.27014623504E+04  0.27766587429E+04  0.00000000000E+00 0.  1.
<mgrwt>
<rscale>  0 0.29135167E+04</rscale>
<asrwt>0</asrwt>
<pdfrwt beam="1">  1        2 0.44452185E+00 0.29135167E+04</pdfrwt>
<pdfrwt beam="2">  1       -2 0.11299396E+00 0.29135167E+04</pdfrwt>
<totfact> 0.10817222E+00</totfact>
</mgrwt>
</event>
<event>
 6    1  0.1001928E-005  0.3449426E+04  0.7818608E-02  0.8125881E-01
          2   -1    0    0  501    0  0.00000000000E+00  0.00000000000E+00  0.24998024068E+04  0.24998024068E+04  0.00000000000E+00 0.  1.
         -2   -1    0    0    0  501 -0.00000000000E+00 -0.00000000000E+00 -0.11899479957E+04  0.11899479957E+04  0.00000000000E+00 0. -1.
         23    2    1    2    0    0 -0.37526369910E+03 -0.64796228439E+03  0.23158818466E+04  0.24356494628E+04  0.91660308856E+02 0.  0.
         13    1    3    3    0    0 -0.31125638789E+03 -0.46115185881E+03  0.16680157092E+04  0.17583566141E+04  0.00000000000E+00 0. -1.
        -13    1    3    3    0    0 -0.64007311211E+02 -0.18681042558E+03  0.64786613739E+03  0.67729284875E+03  0.00000000000E+00 0.  1.
         22    1    1    2    0    0  0.37526369910E+03  0.64796228439E+03 -0.10060274356E+04  0.12541009397E+04  0.00000000000E+00 0. -1.
<mgrwt>
<rscale>  0 0.34494260E+04</rscale>
<asrwt>0</asrwt>
<pdfrwt beam="1">  1        2 0.38458498E+00 0.34494260E+04</pdfrwt>
<pdfrwt beam="2">  1       -2 0.18306892E+00 0.34494260E+04</pdfrwt>
<totfact> 0.49616771E-01</totfact>
</mgrwt>
</event>
<event>
 6    1  0.1001928E-005  0.2097440E+04  0.7818608E-02  0.8562372E-01
          1   -1    0    0  501    0  0.00000000000E+00  0.00000000000E+00  0.25065121270E+04  0.25065121270E+04  0.00000000000E+00 0. -1.
         -1   -1    0    0    0  501 -0.00000000000E+00 -0.00000000000E+00 -0.43878258591E+03  0.43878258591E+03  0.00000000000E+00 0.  1.
         23    2    1    2    0    0 -0.59073016913E+03 -0.85036316585E+03  0.81880503975E+03  0.13229839977E+04  0.88121045153E+02 0.  0.
         11    1    3    3    0    0 -0.39926611429E+03 -0.62197012441E+03  0.54539611110E+03  0.91854079043E+03  0.00000000000E+00 0. -1.
        -11    1    3    3    0    0 -0.19146405484E+03 -0.22839304144E+03  0.27340892865E+03  0.40444320731E+03  0.00000000000E+00 0.  1.
         22    1    1    2    0    0  0.59073016913E+03  0.85036316585E+03  0.12489245013E+04  0.16223107152E+04  0.00000000000E+00 0.  1.
<mgrwt>
<rscale>  0 0.20974402E+04</rscale>
<asrwt>0</asrwt>
<pdfrwt beam="1">  1        1 0.38561724E+00 0.20974402E+04</pdfrwt>
<pdfrwt beam="2">  1       -1 0.67505015E-01 0.20974402E+04</pdfrwt>
<totfact> 0.27416119E+00</totfact>
</mgrwt>
</event>
<event>
 6    1  0.1001928E-005  0.4765988E+04  0.7818608E-02  0.7865656E-01
         -2   -1    0    0    0  501 -0.00000000000E+00  0.00000000000E+00  0.16486067717E+04  0.16486067717E+04  0.00000000000E+00 0.  1.
          2   -1    0    0  501    0  0.00000000000E+00 -0.00000000000E+00 -0.34445215132E+04  0.34445215132E+04  0.00000000000E+00 0. -1.
         23    2    1    2    0    0  0.45630519903E+03  0.18495676595E+04 -0.24272884855E+04  0.30862033321E+04  0.61698083057E+02 0.  0.
         13    1    3    3    0    0  0.32717971243E+03  0.13995613825E+04 -0.17983048221E+04  0.23021118263E+04  0.00000000000E+00 0.  1.
        -13    1    3    3    0    0  0.12912548661E+03  0.45000627699E+03 -0.62898366343E+03  0.78409150582E+03  0.00000000000E+00 0. -1.
         22    1    1    2    0    0 -0.45630519903E+03 -0.18495676595E+04  0.63137374394E+03  0.20069249528E+04  0.00000000000E+00 0.  1.
<mgrwt>
<rscale>  0 0.47659885E+04</rscale>
<asrwt>0</asrwt>
<pdfrwt beam="1">  1        2 0.52992638E+00 0.47659885E+04</pdfrwt>
<pdfrwt beam="2">  1       -2 0.25363181E+00 0.47659885E+04</pdfrwt>
<totfact> 0.40155966E-02</totfact>
</mgrwt>
</event>
<event>
 6    1  0.1001928E-005  0.2781329E+04  0.7818608E-02  0.8309088E-01
         -1   -1    0    0    0  501 -0.00000000000E+00  0.00000000000E+00  0.16398952979E+04  0.16398952979E+04  0.00000000000E+00 0.  1.
          1   -1    0    0  501    0  0.00000000000E+00 -0.00000000000E+00 -0.11793119488E+04  0.11793119488E+04  0.00000000000E+00 0. -1.
         23    2    1    2    0    0  0.74514562066E+03 -0.48333288889E+03 -0.85214235514E+03  0.12342462212E+04  0.91457442239E+02 0.  0.
         13    1    3    3    0    0  0.50346713564E+03 -0.29340139782E+03 -0.51085372830E+03  0.77494197759E+03  0.00000000000E+00 0.  1.
        -13    1    3    3    0    0  0.24167848502E+03 -0.18993149107E+03 -0.34128862684E+03  0.45930424365E+03  0.00000000000E+00 0. -1.
         22    1    1    2    0    0 -0.74514562066E+03  0.48333288889E+03  0.13127257042E+04  0.15849610254E+04  0.00000000000E+00 0.  1.
<mgrwt>
<rscale>  0 0.27813293E+04</rscale>
<asrwt>0</asrwt>
<pdfrwt beam="1">  1        1 0.18143261E+00 0.27813293E+04</pdfrwt>
<pdfrwt beam="2">  1       -1 0.25229158E+00 0.27813293E+04</pdfrwt>
<totfact> 0.64629266E-01</totfact>
</mgrwt>
</event>
<event>
 6    1  0.1001928E-005  0.2645182E+04  0.7818608E-02  0.8353014E-01
         -2   -1    0    0    0  501 -0.00000000000E+00  0.00000000000E+00  0.80333907646E+03  0.80333907646E+03  0.00000000000E+00 0. -1.
          2   -1    0    0  501    0  0.00000000000E+00 -0.00000000000E+00 -0.21774699789E+04  0.21774699789E+04  0.00000000000E+00 0.  1.
         23    2    1    2    0    0 -0.10947396075E+04  0.35961458086E+03 -0.14158133456E+04  0.18277631409E+04  0.91723576679E+02 0.  0.
         11    1    3    3    0    0 -0.90736499713E+03  0.30553334444E+03 -0.11200648098E+04  0.14735016257E+04  0.00000000000E+00 0. -1.
        -11    1    3    3    0    0 -0.18737461033E+03  0.54081236411E+02 -0.29574853582E+03  0.35426151522E+03  0.00000000000E+00 0.  1.
         22    1    1    2    0    0  0.10947396075E+04 -0.35961458086E+03  0.41682443170E+02  0.11530459145E+04  0.00000000000E+00 0. -1.
<mgrwt>
<rscale>  0 0.26451818E+04</rscale>
<asrwt>0</asrwt>
<pdfrwt beam="1">  1        2 0.33499538E+00 0.26451818E+04</pdfrwt>
<pdfrwt beam="2">  1       -2 0.12359063E+00 0.26451818E+04</pdfrwt>
<totfact> 0.23112447E+00</totfact>
</mgrwt>
</event>
<event>
 6    1  0.1001928E-005  0.1880207E+04  0.7818608E-02  0.8664772E-01
         -1   -1    0    0    0  501 -0.00000000000E+00  0.00000000000E+00  0.96270473075E+03  0.96270473075E+03  0.00000000000E+00 0.  1.
          1   -1    0    0  501    0  0.00000000000E+00 -0.00000000000E+00 -0.91803278474E+03  0.91803278474E+03  0.00000000000E+00 0. -1.
         23    2    1    2    0    0 -0.83025988207E+03  0.29111703198E+03  0.34731117837E+03  0.95032303632E+03  0.91696350276E+02 0.  0.
         11    1    3    3    0    0 -0.21294155604E+03  0.59983917304E+02  0.47974525695E+02  0.22637078376E+03  0.00000000000E+00 0. -1.
        -11    1    3    3    0    0 -0.61731832603E+03  0.23113311467E+03  0.29933665268E+03  0.72395225256E+03  0.00000000000E+00 0.  1.
         22    1    1    2    0    0  0.83025988207E+03 -0.29111703198E+03 -0.30263923236E+03  0.93041447917E+03  0.00000000000E+00 0. -1.
<mgrwt>
<rscale>  0 0.18802069E+04</rscale>
<asrwt>0</asrwt>
<pdfrwt beam="1">  1        1 0.14123581E+00 0.18802069E+04</pdfrwt>
<pdfrwt beam="2">  1       -1 0.14810842E+00 0.18802069E+04</pdfrwt>
<totfact> 0.59519114E+00</totfact>
</mgrwt>
</event>
<event>
 6    1  0.1001928E-005  0.1077647E+04  0.7818608E-02  0.9227256E-01
         -3   -1    0    0    0  501 -0.00000000000E+00  0.00000000000E+00  0.20563642423E+03  0.20563642423E+03  0.00000000000E+00 0.  1.
          3   -1    0    0  501    0  0.00000000000E+00 -0.00000000000E+00 -0.14118650750E+04  0.14118650750E+04  0.00000000000E+00 0. -1.
         23    2    1    2    0    0  0.17655918092E+03  0.50116879898E+03 -0.70041065365E+03  0.88388364529E+03  0.91279270506E+02 0.  0.
         13    1    3    3    0    0  0.14672356866E+03  0.36859058387E+03 -0.57758757879E+03  0.70070980819E+03  0.00000000000E+00 0. -1.
        -13    1    3    3    0    0  0.29835612257E+02  0.13257821511E+03 -0.12282307487E+03  0.18317383711E+03  0.00000000000E+00 0.  1.
         22    1    1    2    0    0 -0.17655918092E+03 -0.50116879898E+03 -0.50581799715E+03  0.73361785398E+03  0.00000000000E+00 0. -1.
<mgrwt>
<rscale>  0 0.10776472E+04</rscale>
<asrwt>0</asrwt>
<pdfrwt beam="1">  1        3 0.21721002E+00 0.10776472E+04</pdfrwt>
<pdfrwt beam="2">  1       -3 0.31636372E-01 0.10776472E+04</pdfrwt>
<totfact> 0.29572878E+00</totfact>
</mgrwt>
</event>
<event>
 6    1  0.1001928E-005  0.2385274E+04  0.7818608E-02  0.8445037E-01
          1   -1    0    0  501    0  0.00000000000E+00  0.00000000000E+00  0.39097600095E+04  0.39097600095E+04  0.00000000000E+00 0. -1.
         -1   -1    0    0    0  501 -0.00000000000E+00 -0.00000000000E+00 -0.36380317498E+03  0.36380317498E+03  0.00000000000E+00 0.  1.
         23    2    1    2    0    0  0.84263862914E+03 -0.40300840265E+03  0.30991567957E+04  0.32381473711E+04  0.91487270776E+02 0.  0.
         11    1    3    3    0    0  0.43912304330E+03 -0.22109123340E+03  0.17839347437E+04  0.18504414474E+04  0.00000000000E+00 0. -1.
        -11    1    3    3    0    0  0.40351558584E+03 -0.18191716925E+03  0.13152220520E+04  0.13877059236E+04  0.00000000000E+00 0.  1.
         22    1    1    2    0    0 -0.84263862914E+03  0.40300840265E+03  0.44680003885E+03  0.10354158134E+04  0.00000000000E+00 0.  1.
<mgrwt>
<rscale>  0 0.23852741E+04</rscale>
<asrwt>0</asrwt>
<pdfrwt beam="1">  1        1 0.60150151E+00 0.23852741E+04</pdfrwt>
<pdfrwt beam="2">  1       -1 0.55969722E-01 0.23852741E+04</pdfrwt>
<totfact> 0.33422545E-01</totfact>
</mgrwt>
</event>
<event>
 6    1  0.1001928E-005  0.2443294E+04  0.7818608E-02  0.8423470E-01
          1   -1    0    0  501    0  0.00000000000E+00  0.00000000000E+00  0.49608070783E+04  0.49608070783E+04  0.00000000000E+00 0. -1.
         -1   -1    0    0    0  501 -0.00000000000E+00 -0.00000000000E+00 -0.30084253936E+03  0.30084253936E+03  0.00000000000E+00 0.  1.
         23    2    1    2    0    0 -0.70715637701E+03  0.93288141798E+03  0.30724227664E+04  0.32891824415E+04  0.92744791045E+02 0.  0.
         11    1    3    3    0    0 -0.14893246705E+03  0.18168975209E+03  0.72304866837E+03  0.76025747125E+03  0.00000000000E+00 0. -1.
        -11    1    3    3    0    0 -0.55822390996E+03  0.75119166589E+03  0.23493740981E+04  0.25289249703E+04  0.00000000000E+00 0.  1.
         22    1    1    2    0    0  0.70715637701E+03 -0.93288141798E+03  0.15875417725E+04  0.19724671761E+04  0.00000000000E+00 0.  1.
<mgrwt>
<rscale>  0 0.24432943E+04</rscale>
<asrwt>0</asrwt>
<pdfrwt beam="1">  1        1 0.76320103E+00 0.24432943E+04</pdfrwt>
<pdfrwt beam="2">  1       -1 0.46283471E-01 0.24432943E+04</pdfrwt>
<totfact> 0.40591080E-02</totfact>
</mgrwt>
</event>
<event>
 6    1  0.1001928E-005  0.3036063E+04  0.7818608E-02  0.8233507E-01
         -2   -1    0    0    0  501 -0.00000000000E+00  0.00000000000E+00  0.10227577091E+04  0.10227577091E+04  0.00000000000E+00 0.  1.
          2   -1    0    0  501    0  0.00000000000E+00 -0.00000000000E+00 -0.22531439310E+04  0.22531439310E+04  0.00000000000E+00 0. -1.
         23    2    1    2    0    0  0.46760028239E+03  0.10843046802E+04  0.41118606914E+03  0.12537428307E+04  0.91817419662E+02 0.  0.
         13    1    3    3    0    0  0.12471285560E+03  0.22308812922E+03  0.11809043206E+03  0.28154388627E+03  0.00000000000E+00 0. -1.
        -13    1    3    3    0    0  0.34288742678E+03  0.86121655100E+03  0.29309563708E+03  0.97219894447E+03  0.00000000000E+00 0.  1.
         22    1    1    2    0    0 -0.46760028239E+03 -0.10843046802E+04 -0.16415722910E+04  0.20221588094E+04  0.00000000000E+00 0. -1.
<mgrwt>
<rscale>  0 0.30360635E+04</rscale>
<asrwt>0</asrwt>
<pdfrwt beam="1">  1        2 0.34663753E+00 0.30360635E+04</pdfrwt>
<pdfrwt beam="2">  1       -2 0.15734734E+00 0.30360635E+04</pdfrwt>
<totfact> 0.10842106E+00</totfact>
</mgrwt>
</event>
<event>
 6    1  0.1001928E-005  0.2973342E+04  0.7818608E-02  0.8251385E-01
         -1   -1    0    0    0  501 -0.00000000000E+00  0.00000000000E+00  0.23009793943E+04  0.23009793943E+04  0.00000000000E+00 0.  1.
          1   -1    0    0  501    0  0.00000000000E+00 -0.00000000000E+00 -0.96054316527E+03  0.96054316527E+03  0.00000000000E+00 0. -1.
         23    2    1    2    0    0 -0.89560869429E+02 -0.12308459940E+04  0.15774216424E+04  0.20048742012E+04  0.90876369907E+02 0.  0.
         13    1    3    3    0    0 -0.28167208639E+01 -0.34267941620E+03  0.49443091880E+03  0.60158045984E+03  0.00000000000E+00 0. -1.
        -13    1    3    3    0    0 -0.86744148565E+02 -0.88816657779E+03  0.10829907236E+04  0.14032937414E+04  0.00000000000E+00 0.  1.
         22    1    1    2    0    0  0.89560869429E+02  0.12308459940E+04 -0.23698541341E+03  0.12566483583E+04  0.00000000000E+00 0. -1.
<mgrwt>
<rscale>  0 0.29733416E+04</rscale>
<asrwt>0</asrwt>
<pdfrwt beam="1">  1        1 0.14777587E+00 0.29733416E+04</pdfrwt>
<pdfrwt beam="2">  1       -1 0.35399683E+00 0.29733416E+04</pdfrwt>
<totfact> 0.20262713E-01</totfact>
</mgrwt>
</event>
<event>
 6    1  0.1001928E-005  0.3302160E+04  0.7818608E-02  0.8162346E-01
          1   -1    0    0  501    0  0.00000000000E+00  0.00000000000E+00  0.16484881625E+04  0.16484881625E+04  0.00000000000E+00 0. -1.
         -1   -1    0    0    0  501 -0.00000000000E+00 -0.00000000000E+00 -0.16536757596E+04  0.16536757596E+04  0.00000000000E+00 0.  1.
         23    2    1    2    0    0 -0.14443467764E+04  0.67954610965E+03 -0.41988814889E+03  0.16529528764E+04  0.89591451743E+02 0.  0.
         13    1    3    3    0    0 -0.11469358013E+04  0.51300832187E+03 -0.35871954938E+03  0.13066441695E+04  0.00000000000E+00 0. -1.
        -13    1    3    3    0    0 -0.29741097517E+03  0.16653778778E+03 -0.61168599511E+02  0.34630870690E+03  0.00000000000E+00 0.  1.
         22    1    1    2    0    0  0.14443467764E+04 -0.67954610965E+03  0.41470055174E+03  0.16492110457E+04  0.00000000000E+00 0.  1.
<mgrwt>
<rscale>  0 0.33021598E+04</rscale>
<asrwt>0</asrwt>
<pdfrwt beam="1">  1        1 0.25361357E+00 0.33021598E+04</pdfrwt>
<pdfrwt beam="2">  1       -1 0.25441165E+00 0.33021598E+04</pdfrwt>
<totfact> 0.27972554E-01</totfact>
</mgrwt>
</event>
<event>
 6    1  0.1001928E-005  0.9222910E+03  0.7818608E-02  0.9398138E-01
          2   -1    0    0  501    0  0.00000000000E+00  0.00000000000E+00  0.60537250363E+03  0.60537250363E+03  0.00000000000E+00 0. -1.
         -2   -1    0    0    0  501 -0.00000000000E+00 -0.00000000000E+00 -0.35127987796E+03  0.35127987796E+03  0.00000000000E+00 0.  1.
         23    2    1    2    0    0  0.96500029663E+02 -0.33110418740E+03  0.43918973949E+03  0.56524060330E+03  0.87561827909E+02 0.  0.
         13    1    3    3    0    0  0.73893084335E+02 -0.12742569645E+03  0.22391639987E+03  0.26802248069E+03  0.00000000000E+00 0. -1.
        -13    1    3    3    0    0  0.22606945327E+02 -0.20367849095E+03  0.21527333963E+03  0.29721812261E+03  0.00000000000E+00 0.  1.
         22    1    1    2    0    0 -0.96500029663E+02  0.33110418740E+03 -0.18509711382E+03  0.39141177829E+03  0.00000000000E+00 0.  1.
<mgrwt>
<rscale>  0 0.92229102E+03</rscale>
<asrwt>0</asrwt>
<pdfrwt beam="1">  1        2 0.93134231E-01 0.92229102E+03</pdfrwt>
<pdfrwt beam="2">  1       -2 0.54043058E-01 0.92229102E+03</pdfrwt>
<totfact> 0.15861038E+02</totfact>
</mgrwt>
</event>
<event>
 6    1  0.1001928E-005  0.9327600E+03  0.7818608E-02  0.9385532E-01
         -1   -1    0    0    0  501 -0.00000000000E+00  0.00000000000E+00  0.17474967151E+03  0.17474967151E+03  0.00000000000E+00 0.  1.
          1   -1    0    0  501    0  0.00000000000E+00 -0.00000000000E+00 -0.12446966227E+04  0.12446966227E+04  0.00000000000E+00 0. -1.
         23    2    1    2    0    0 -0.36956903236E+03 -0.12045216420E+02 -0.96097881445E+03  0.10339590548E+04  0.94152473655E+02 0.  0.
         11    1    3    3    0    0 -0.62561941463E+02 -0.38328805637E+02 -0.19239199310E+03  0.20590719480E+03  0.00000000000E+00 0. -1.
        -11    1    3    3    0    0 -0.30700709090E+03  0.26283589217E+02 -0.76858682135E+03  0.82805186002E+03  0.00000000000E+00 0.  1.
         22    1    1    2    0    0  0.36956903236E+03  0.12045216420E+02 -0.10896813677E+03  0.38548723942E+03  0.00000000000E+00 0.  1.
<mgrwt>
<rscale>  0 0.93276005E+03</rscale>
<asrwt>0</asrwt>
<pdfrwt beam="1">  1        1 0.19149178E+00 0.93276005E+03</pdfrwt>
<pdfrwt beam="2">  1       -1 0.26884566E-01 0.93276005E+03</pdfrwt>
<totfact> 0.12313573E+02</totfact>
</mgrwt>
</event>
<event>
 6    1  0.1001928E-005  0.2373079E+04  0.7818608E-02  0.8449652E-01
          2   -1    0    0  501    0  0.00000000000E+00  0.00000000000E+00  0.20107572828E+04  0.20107572828E+04  0.00000000000E+00 0. -1.
         -2   -1    0    0    0  501 -0.00000000000E+00 -0.00000000000E+00 -0.70017192604E+03  0.70017192604E+03  0.00000000000E+00 0.  1.
         23    2    1    2    0    0 -0.42654057294E+03  0.30129025968E+03 -0.55883079174E+03  0.76994249656E+03  0.88356738658E+02 0.  0.
         11    1    3    3    0    0 -0.17889196300E+03  0.14326122262E+03 -0.30627240137E+03  0.38252960170E+03  0.00000000000E+00 0. -1.
        -11    1    3    3    0    0 -0.24764860993E+03  0.15802903706E+03 -0.25255839037E+03  0.38741289486E+03  0.00000000000E+00 0.  1.
         22    1    1    2    0    0  0.42654057294E+03 -0.30129025968E+03  0.18694161485E+04  0.19409867122E+04  0.00000000000E+00 0. -1.
<mgrwt>
<rscale>  0 0.23730788E+04</rscale>
<asrwt>0</asrwt>
<pdfrwt beam="1">  1        2 0.30934727E+00 0.23730788E+04</pdfrwt>
<pdfrwt beam="2">  1       -2 0.10771876E+00 0.23730788E+04</pdfrwt>
<totfact> 0.41045981E+00</totfact>
</mgrwt>
</event>
<event>
 6    1  0.1001928E-005  0.1790212E+04  0.7818608E-02  0.8711522E-01
         -1   -1    0    0    0  501 -0.00000000000E+00  0.00000000000E+00  0.39853604606E+03  0.39853604606E+03  0.00000000000E+00 0.  1.
          1   -1    0    0  501    0  0.00000000000E+00 -0.00000000000E+00 -0.20103954863E+04  0.20103954863E+04  0.00000000000E+00 0. -1.
         23    2    1    2    0    0  0.83658136381E+03  0.12319538660E+03 -0.42270441873E+03  0.94977590435E+03  0.91377028370E+02 0.  0.
         11    1    3    3    0    0  0.27863016804E+03  0.56053133196E+02 -0.18795361265E+03  0.34073932088E+03  0.00000000000E+00 0.  1.
        -11    1    3    3    0    0  0.55795119577E+03  0.67142253403E+02 -0.23475080609E+03  0.60903658348E+03  0.00000000000E+00 0. -1.
         22    1    1    2    0    0 -0.83658136381E+03 -0.12319538660E+03 -0.11891550215E+04  0.14591556280E+04  0.00000000000E+00 0. -1.
<mgrwt>
<rscale>  0 0.17902124E+04</rscale>
<asrwt>0</asrwt>
<pdfrwt beam="1">  1        1 0.30929162E+00 0.17902124E+04</pdfrwt>
<pdfrwt beam="2">  1       -1 0.61313237E-01 0.17902124E+04</pdfrwt>
<totfact> 0.74713402E+00</totfact>
</mgrwt>
</event>
<event>
 6    1  0.1001928E-005  0.5202301E+04  0.7818608E-02  0.7798036E-01
          2   -1    0    0  501    0  0.00000000000E+00  0.00000000000E+00  0.24150724612E+04  0.24150724612E+04  0.00000000000E+00 0. -1.
         -2   -1    0    0    0  501 -0.00000000000E+00 -0.00000000000E+00 -0.28015659944E+04  0.28015659944E+04  0.00000000000E+00 0.  1.
         23    2    1    2    0    0 -0.10179226531E+04 -0.23092200166E+04 -0.82225286530E+03  0.26556718787E+04  0.88485819245E+02 0.  0.
         13    1    3    3    0    0 -0.34058485895E+03 -0.78475300938E+03 -0.23513781156E+03  0.88720072267E+03  0.00000000000E+00 0.  1.
        -13    1    3    3    0    0 -0.67733779411E+03 -0.15244670072E+04 -0.58711505374E+03  0.17684711561E+04  0.00000000000E+00 0. -1.
         22    1    1    2    0    0  0.10179226531E+04  0.23092200166E+04  0.43575933209E+03  0.25609665769E+04  0.00000000000E+00 0.  1.
<mgrwt>
<rscale>  0 0.52023014E+04</rscale>
<asrwt>0</asrwt>
<pdfrwt beam="1">  1        2 0.37154961E+00 0.52023014E+04</pdfrwt>
<pdfrwt beam="2">  1       -2 0.43101016E+00 0.52023014E+04</pdfrwt>
<totfact> 0.12972987E-02</totfact>
</mgrwt>
</event>
<event>
 6    1  0.1001928E-005  0.2738308E+04  0.7818608E-02  0.8322681E-01
          1   -1    0    0  501    0  0.00000000000E+00  0.00000000000E+00  0.12489106152E+04  0.12489106152E+04  0.00000000000E+00 0. -1.
         -1   -1    0    0    0  501 -0.00000000000E+00 -0.00000000000E+00 -0.15009742167E+04  0.15009742167E+04  0.00000000000E+00 0.  1.
         23    2    1    2    0    0 -0.13471492774E+04 -0.17205064928E+03  0.35553007007E+02  0.13616716225E+04  0.92048843932E+02 0.  0.
         13    1    3    3    0    0 -0.60882566781E+03 -0.66518672454E+02  0.60479396314E+02  0.61542764396E+03  0.00000000000E+00 0.  1.
        -13    1    3    3    0    0 -0.73832360957E+03 -0.10553197682E+03 -0.24926389306E+02  0.74624397851E+03  0.00000000000E+00 0. -1.
         22    1    1    2    0    0  0.13471492774E+04  0.17205064928E+03 -0.28761660848E+03  0.13882132095E+04  0.00000000000E+00 0.  1.
<mgrwt>
<rscale>  0 0.27383080E+04</rscale>
<asrwt>0</asrwt>
<pdfrwt beam="1">  1        1 0.19214010E+00 0.27383080E+04</pdfrwt>
<pdfrwt beam="2">  1       -1 0.23091911E+00 0.27383080E+04</pdfrwt>
<totfact> 0.79745742E-01</totfact>
</mgrwt>
</event>
<event>
 6    1  0.1001928E-005  0.1998814E+04  0.7818608E-02  0.8607175E-01
         -1   -1    0    0    0  501 -0.00000000000E+00  0.00000000000E+00  0.48193066922E+03  0.48193066922E+03  0.00000000000E+00 0.  1.
          1   -1    0    0  501    0  0.00000000000E+00 -0.00000000000E+00 -0.20725275686E+04  0.20725275686E+04  0.00000000000E+00 0. -1.
         23    2    1    2    0    0  0.53870599040E+03 -0.25231853053E+03  0.22503804049E+03  0.64385649496E+03  0.10020120502E+03 0.  0.
         11    1    3    3    0    0  0.22329891762E+03 -0.90840722738E+02  0.40854643966E+02  0.24450673907E+03  0.00000000000E+00 0. -1.
        -11    1    3    3    0    0  0.31540707278E+03 -0.16147780779E+03  0.18418339653E+03  0.39934975588E+03  0.00000000000E+00 0.  1.
         22    1    1    2    0    0 -0.53870599040E+03  0.25231853053E+03 -0.18156349398E+04  0.19106017428E+04  0.00000000000E+00 0. -1.
<mgrwt>
<rscale>  0 0.19988142E+04</rscale>
<asrwt>0</asrwt>
<pdfrwt beam="1">  1        1 0.31885039E+00 0.19988142E+04</pdfrwt>
<pdfrwt beam="2">  1       -1 0.74143180E-01 0.19988142E+04</pdfrwt>
<totfact> 0.45201292E+00</totfact>
</mgrwt>
</event>
<event>
 6    1  0.1001928E-005  0.1283851E+04  0.7818608E-02  0.9042471E-01
         -1   -1    0    0    0  501 -0.00000000000E+00  0.00000000000E+00  0.28741645129E+03  0.28741645129E+03  0.00000000000E+00 0.  1.
          1   -1    0    0  501    0  0.00000000000E+00 -0.00000000000E+00 -0.14336968196E+04  0.14336968196E+04  0.00000000000E+00 0. -1.
         23    2    1    2    0    0  0.37981347260E+02 -0.31349307571E+03  0.16830750959E+03  0.36912888489E+03  0.90599252839E+02 0.  0.
         11    1    3    3    0    0  0.40612031762E+02 -0.57713110872E+02  0.19562801138E+02  0.73231437776E+02  0.00000000000E+00 0. -1.
        -11    1    3    3    0    0 -0.26306845020E+01 -0.25577996484E+03  0.14874470846E+03  0.29589744711E+03  0.00000000000E+00 0.  1.
         22    1    1    2    0    0 -0.37981347260E+02  0.31349307571E+03 -0.13145878779E+04  0.13519843860E+04  0.00000000000E+00 0. -1.
<mgrwt>
<rscale>  0 0.12838505E+04</rscale>
<asrwt>0</asrwt>
<pdfrwt beam="1">  1        1 0.22056875E+00 0.12838505E+04</pdfrwt>
<pdfrwt beam="2">  1       -1 0.44217914E-01 0.12838505E+04</pdfrwt>
<totfact> 0.36211171E+01</totfact>
</mgrwt>
</event>
<event>
 6    1  0.1001928E-005  0.1748234E+04  0.7818608E-02  0.8734323E-01
          2   -1    0    0  501    0  0.00000000000E+00  0.00000000000E+00  0.21768910226E+04  0.21768910226E+04  0.00000000000E+00 0. -1.
         -2   -1    0    0    0  501 -0.00000000000E+00 -0.00000000000E+00 -0.35099628719E+03  0.35099628719E+03  0.00000000000E+00 0.  1.
         23    2    1    2    0    0 -0.56502090601E+03 -0.47788139083E+03  0.15824295516E+04  0.17488529436E+04  0.82365556110E+02 0.  0.
         11    1    3    3    0    0 -0.27987172952E+03 -0.24435186626E+03  0.89009217081E+03  0.96452065404E+03  0.00000000000E+00 0. -1.
        -11    1    3    3    0    0 -0.28514917650E+03 -0.23352952458E+03  0.69233738077E+03  0.78433228961E+03  0.00000000000E+00 0.  1.
         22    1    1    2    0    0  0.56502090601E+03  0.47788139083E+03  0.24346518388E+03  0.77903436619E+03  0.00000000000E+00 0. -1.
<mgrwt>
<rscale>  0 0.17482342E+04</rscale>
<asrwt>0</asrwt>
<pdfrwt beam="1">  1        2 0.33490630E+00 0.17482342E+04</pdfrwt>
<pdfrwt beam="2">  1       -2 0.53999430E-01 0.17482342E+04</pdfrwt>
<totfact> 0.16296490E+01</totfact>
</mgrwt>
</event>
<event>
 6    1  0.1001928E-005  0.2481788E+04  0.7818608E-02  0.8409502E-01
         -1   -1    0    0    0  501 -0.00000000000E+00  0.00000000000E+00  0.85021991402E+03  0.85021991402E+03  0.00000000000E+00 0.  1.
          1   -1    0    0  501    0  0.00000000000E+00 -0.00000000000E+00 -0.18110820869E+04  0.18110820869E+04  0.00000000000E+00 0. -1.
         23    2    1    2    0    0 -0.15116026808E+03  0.50612448421E+03 -0.16831101969E+04  0.17665094952E+04  0.93190351618E+02 0.  0.
         11    1    3    3    0    0 -0.10701952490E+03  0.36293177326E+03 -0.10559172410E+04  0.11216656679E+04  0.00000000000E+00 0. -1.
        -11    1    3    3    0    0 -0.44140743182E+02  0.14319271095E+03 -0.62719295586E+03  0.64484382726E+03  0.00000000000E+00 0.  1.
         22    1    1    2    0    0  0.15116026808E+03 -0.50612448421E+03  0.72224802399E+03  0.89479250573E+03  0.00000000000E+00 0.  1.
<mgrwt>
<rscale>  0 0.24817881E+04</rscale>
<asrwt>0</asrwt>
<pdfrwt beam="1">  1        1 0.27862801E+00 0.24817881E+04</pdfrwt>
<pdfrwt beam="2">  1       -1 0.13080306E+00 0.24817881E+04</pdfrwt>
<totfact> 0.17787080E+00</totfact>
</mgrwt>
</event>
<event>
 6    1  0.1001928E-005  0.2655758E+04  0.7818608E-02  0.8349504E-01
          2   -1    0    0  501    0  0.00000000000E+00  0.00000000000E+00  0.39287434656E+04  0.39287434656E+04  0.00000000000E+00 0. -1.
         -2   -1    0    0    0  501 -0.00000000000E+00 -0.00000000000E+00 -0.44881096161E+03  0.44881096161E+03  0.00000000000E+00 0.  1.
         23    2    1    2    0    0  0.20832321309E+03  0.38950642986E+03  0.38033685311E+04  0.38300832556E+04  0.93870875347E+02 0.  0.
         11    1    3    3    0    0  0.11596309548E+03  0.30131532305E+03  0.26057459683E+04  0.26256714217E+04  0.00000000000E+00 0.  1.
        -11    1    3    3    0    0  0.92360117607E+02  0.88191106815E+02  0.11976225629E+04  0.12044118339E+04  0.00000000000E+00 0. -1.
         22    1    1    2    0    0 -0.20832321309E+03 -0.38950642986E+03 -0.32343602718E+03  0.54747117157E+03  0.00000000000E+00 0.  1.
<mgrwt>
<rscale>  0 0.26557584E+04</rscale>
<asrwt>0</asrwt>
<pdfrwt beam="1">  1        2 0.60442205E+00 0.26557584E+04</pdfrwt>
<pdfrwt beam="2">  1       -2 0.69047843E-01 0.26557584E+04</pdfrwt>
<totfact> 0.65906915E-01</totfact>
</mgrwt>
</event>
<event>
 6    1  0.1001928E-005  0.3151619E+04  0.7818608E-02  0.8201713E-01
          1   -1    0    0  501    0  0.00000000000E+00  0.00000000000E+00  0.90680826214E+03  0.90680826214E+03  0.00000000000E+00 0. -1.
         -1   -1    0    0    0  501 -0.00000000000E+00 -0.00000000000E+00 -0.27383690315E+04  0.27383690315E+04  0.00000000000E+00 0.  1.
         23    2    1    2    0    0 -0.35841681397E+03  0.10241004339E+04 -0.22362274986E+04  0.24871619772E+04  0.89537501815E+02 0.  0.
         11    1    3    3    0    0 -0.28068421465E+03  0.77746888559E+03 -0.17848291365E+04  0.19669409099E+04  0.00000000000E+00 0. -1.
        -11    1    3    3    0    0 -0.77732599320E+02  0.24663154829E+03 -0.45139836204E+03  0.52022106730E+03  0.00000000000E+00 0.  1.
         22    1    1    2    0    0  0.35841681397E+03 -0.10241004339E+04  0.40466672928E+03  0.11580153164E+04  0.00000000000E+00 0. -1.
<mgrwt>
<rscale>  0 0.31516191E+04</rscale>
<asrwt>0</asrwt>
<pdfrwt beam="1">  1        1 0.13950896E+00 0.31516191E+04</pdfrwt>
<pdfrwt beam="2">  1       -1 0.42128754E+00 0.31516191E+04</pdfrwt>
<totfact> 0.77020305E-02</totfact>
</mgrwt>
</event>
<event>
 6    1  0.1001928E-005  0.2342096E+04  0.7818608E-02  0.8461506E-01
         -2   -1    0    0    0  501 -0.00000000000E+00  0.00000000000E+00  0.10888018747E+04  0.10888018747E+04  0.00000000000E+00 0.  1.
          2   -1    0    0  501    0  0.00000000000E+00 -0.00000000000E+00 -0.12595068289E+04  0.12595068289E+04  0.00000000000E+00 0. -1.
         23    2    1    2    0    0 -0.10385527202E+04  0.53678093094E+03 -0.10616955947E+03  0.11774584409E+04  0.91710872608E+02 0.  0.
         13    1    3    3    0    0 -0.91393041340E+03  0.46142503835E+03 -0.12162585007E+03  0.10310066508E+04  0.00000000000E+00 0. -1.
        -13    1    3    3    0    0 -0.12462230682E+03  0.75355892587E+02  0.15456290593E+02  0.14645179010E+03  0.00000000000E+00 0.  1.
         22    1    1    2    0    0  0.10385527202E+04 -0.53678093094E+03 -0.64535394729E+02  0.11708502627E+04  0.00000000000E+00 0. -1.
<mgrwt>
<rscale>  0 0.23420960E+04</rscale>
<asrwt>0</asrwt>
<pdfrwt beam="1">  1        2 0.19377028E+00 0.23420960E+04</pdfrwt>
<pdfrwt beam="2">  1       -2 0.16750798E+00 0.23420960E+04</pdfrwt>
<totfact> 0.35034752E+00</totfact>
</mgrwt>
</event>
<event>
 6    1  0.1001928E-005  0.2371501E+04  0.7818608E-02  0.8450251E-01
          2   -1    0    0  501    0  0.00000000000E+00  0.00000000000E+00  0.34454951031E+04  0.34454951031E+04  0.00000000000E+00 0. -1.
         -2   -1    0    0    0  501 -0.00000000000E+00 -0.00000000000E+00 -0.40807031353E+03  0.40807031353E+03  0.00000000000E+00 0.  1.
         23    2    1    2    0    0 -0.12897586054E+03 -0.98318944996E+03  0.46972799559E+03  0.11010460084E+04  0.91442088476E+02 0.  0.
         11    1    3    3    0    0 -0.11152510683E+03 -0.51899191685E+03  0.23388649255E+03  0.58008046908E+03  0.00000000000E+00 0. -1.
        -11    1    3    3    0    0 -0.17450753708E+02 -0.46419753311E+03  0.23584150304E+03  0.52096553927E+03  0.00000000000E+00 0.  1.
         22    1    1    2    0    0  0.12897586054E+03  0.98318944996E+03  0.25676967940E+04  0.27525194083E+04  0.00000000000E+00 0. -1.
<mgrwt>
<rscale>  0 0.23715010E+04</rscale>
<asrwt>0</asrwt>
<pdfrwt beam="1">  1        2 0.53007615E+00 0.23715010E+04</pdfrwt>
<pdfrwt beam="2">  1       -2 0.62780050E-01 0.23715010E+04</pdfrwt>
<totfact> 0.18844410E+00</totfact>
</mgrwt>
</event>
<event>
 6    1  0.1001928E-005  0.2091980E+04  0.7818608E-02  0.8564785E-01
          2   -1    0    0  501    0  0.00000000000E+00  0.00000000000E+00  0.95665087150E+03  0.95665087150E+03  0.00000000000E+00 0. -1.
         -2   -1    0    0    0  501 -0.00000000000E+00 -0.00000000000E+00 -0.11436720151E+04  0.11436720151E+04  0.00000000000E+00 0.  1.
         23    2    1    2    0    0 -0.48746274237E+03 -0.85268207789E+03 -0.44891617632E+03  0.10838212096E+04  0.91956673456E+02 0.  0.
         11    1    3    3    0    0 -0.16482466514E+03 -0.37518786375E+03 -0.20191206514E+03  0.45683868640E+03  0.00000000000E+00 0. -1.
        -11    1    3    3    0    0 -0.32263807723E+03 -0.47749421414E+03 -0.24700411119E+03  0.62698252317E+03  0.00000000000E+00 0.  1.
         22    1    1    2    0    0  0.48746274237E+03  0.85268207789E+03  0.26189503275E+03  0.10165016770E+04  0.00000000000E+00 0. -1.
<mgrwt>
<rscale>  0 0.20919798E+04</rscale>
<asrwt>0</asrwt>
<pdfrwt beam="1">  1        2 0.14717706E+00 0.20919798E+04</pdfrwt>
<pdfrwt beam="2">  1       -2 0.17594954E+00 0.20919798E+04</pdfrwt>
<totfact> 0.47943909E+00</totfact>
</mgrwt>
</event>
<event>
 6    1  0.1001928E-005  0.4191440E+04  0.7818608E-02  0.7967003E-01
          2   -1    0    0  501    0  0.00000000000E+00  0.00000000000E+00  0.40841150505E+04  0.40841150505E+04  0.00000000000E+00 0. -1.
         -2   -1    0    0    0  501 -0.00000000000E+00 -0.00000000000E+00 -0.10753960757E+04  0.10753960757E+04  0.00000000000E+00 0.  1.
         23    2    1    2    0    0 -0.22834676184E+03  0.14349275347E+04 -0.35231518001E+03  0.14978571470E+04  0.91053682860E+02 0.  0.
         13    1    3    3    0    0 -0.18119425185E+03  0.11560019294E+04 -0.24627431900E+03  0.11957520052E+04  0.00000000000E+00 0.  1.
        -13    1    3    3    0    0 -0.47152509981E+02  0.27892560525E+03 -0.10604086101E+03  0.30210514174E+03  0.00000000000E+00 0. -1.
         22    1    1    2    0    0  0.22834676184E+03 -0.14349275347E+04  0.33610341548E+04  0.36616539792E+04  0.00000000000E+00 0. -1.
<mgrwt>
<rscale>  0 0.41914395E+04</rscale>
<asrwt>0</asrwt>
<pdfrwt beam="1">  1        2 0.62832538E+00 0.41914395E+04</pdfrwt>
<pdfrwt beam="2">  1       -2 0.16544555E+00 0.41914395E+04</pdfrwt>
<totfact> 0.51858216E-02</totfact>
</mgrwt>
</event>
<event>
 6    1  0.1001928E-005  0.1521660E+04  0.7818608E-02  0.8870176E-01
         -2   -1    0    0    0  501 -0.00000000000E+00  0.00000000000E+00  0.13935555871E+04  0.13935555871E+04  0.00000000000E+00 0.  1.
          2   -1    0    0  501    0  0.00000000000E+00 -0.00000000000E+00 -0.41538507266E+03  0.41538507266E+03  0.00000000000E+00 0. -1.
         23    2    1    2    0    0 -0.10031130645E+03  0.58520268204E+03 -0.69490351808E+02  0.60473227747E+03  0.91365645346E+02 0.  0.
         13    1    3    3    0    0 -0.31023610843E+02  0.41152481680E+03 -0.31254920568E+02  0.41387438835E+03  0.00000000000E+00 0. -1.
        -13    1    3    3    0    0 -0.69287695610E+02  0.17367786525E+03 -0.38235431240E+02  0.19085788913E+03  0.00000000000E+00 0.  1.
         22    1    1    2    0    0  0.10031130645E+03 -0.58520268204E+03  0.10476608662E+04  0.12042083822E+04  0.00000000000E+00 0.  1.
<mgrwt>
<rscale>  0 0.15216599E+04</rscale>
<asrwt>0</asrwt>
<pdfrwt beam="1">  1        2 0.63905396E-01 0.15216599E+04</pdfrwt>
<pdfrwt beam="2">  1       -2 0.21439317E+00 0.15216599E+04</pdfrwt>
<totfact> 0.78806224E+00</totfact>
</mgrwt>
</event>
<event>
 6    1  0.1001928E-005  0.3207262E+04  0.7818608E-02  0.8186902E-01
          1   -1    0    0  501    0  0.00000000000E+00  0.00000000000E+00  0.29470005164E+04  0.29470005164E+04  0.00000000000E+00 0. -1.
         -1   -1    0    0    0  501 -0.00000000000E+00 -0.00000000000E+00 -0.87262698888E+03  0.87262698888E+03  0.00000000000E+00 0.  1.
         23    2    1    2    0    0  0.58294503122E+03 -0.11666281718E+03 -0.73412245796E+03  0.94889853465E+03  0.89652236139E+02 0.  0.
         11    1    3    3    0    0  0.15578701269E+03 -0.21346201568E+02 -0.13696658540E+03  0.20853081106E+03  0.00000000000E+00 0. -1.
        -11    1    3    3    0    0  0.42715801853E+03 -0.95316615609E+02 -0.59715587256E+03  0.74036772360E+03  0.00000000000E+00 0.  1.
         22    1    1    2    0    0 -0.58294503122E+03  0.11666281718E+03  0.28084959855E+04  0.28707289706E+04  0.00000000000E+00 0. -1.
<mgrwt>
<rscale>  0 0.32072619E+04</rscale>
<asrwt>0</asrwt>
<pdfrwt beam="1">  1        1 0.45338469E+00 0.32072619E+04</pdfrwt>
<pdfrwt beam="2">  1       -1 0.13425031E+00 0.32072619E+04</pdfrwt>
<totfact> 0.25503429E-01</totfact>
</mgrwt>
</event>
<event>
 6    1  0.1001928E-005  0.3966033E+04  0.7818608E-02  0.8011434E-01
          2   -1    0    0  501    0  0.00000000000E+00  0.00000000000E+00  0.33250497879E+04  0.33250497879E+04  0.00000000000E+00 0. -1.
         -2   -1    0    0    0  501 -0.00000000000E+00 -0.00000000000E+00 -0.11826452821E+04  0.11826452821E+04  0.00000000000E+00 0.  1.
         23    2    1    2    0    0 -0.50096533186E+03  0.18096406281E+04  0.35071516780E+03  0.19123307121E+04  0.90786324286E+02 0.  0.
         11    1    3    3    0    0 -0.26263668626E+03  0.95098613412E+03  0.13814000894E+03  0.99621047893E+03  0.00000000000E+00 0.  1.
        -11    1    3    3    0    0 -0.23832864560E+03  0.85865449401E+03  0.21257515886E+03  0.91612023314E+03  0.00000000000E+00 0. -1.
         22    1    1    2    0    0  0.50096533186E+03 -0.18096406281E+04  0.17916893380E+04  0.25953643580E+04  0.00000000000E+00 0. -1.
<mgrwt>
<rscale>  0 0.39660330E+04</rscale>
<asrwt>0</asrwt>
<pdfrwt beam="1">  1        2 0.51154612E+00 0.39660330E+04</pdfrwt>
<pdfrwt beam="2">  1       -2 0.18194543E+00 0.39660330E+04</pdfrwt>
<totfact> 0.14884336E-01</totfact>
</mgrwt>
</event>
<event>
 6    1  0.1001928E-005  0.3279914E+04  0.7818608E-02  0.8168025E-01
          1   -1    0    0  501    0  0.00000000000E+00  0.00000000000E+00  0.17817738160E+04  0.17817738160E+04  0.00000000000E+00 0. -1.
         -1   -1    0    0    0  501 -0.00000000000E+00 -0.00000000000E+00 -0.15094275970E+04  0.15094275970E+04  0.00000000000E+00 0.  1.
         23    2    1    2    0    0 -0.74421234327E+03 -0.14724489029E+03 -0.13212956261E+04  0.15262007331E+04  0.89070066404E+02 0.  0.
         11    1    3    3    0    0 -0.30603090376E+03 -0.42647418347E+02 -0.45887183100E+03  0.55320617643E+03  0.00000000000E+00 0. -1.
        -11    1    3    3    0    0 -0.43818143951E+03 -0.10459747195E+03 -0.86242379509E+03  0.97299455672E+03  0.00000000000E+00 0.  1.
         22    1    1    2    0    0  0.74421234327E+03  0.14724489029E+03  0.15936418451E+04  0.17650006799E+04  0.00000000000E+00 0. -1.
<mgrwt>
<rscale>  0 0.32799138E+04</rscale>
<asrwt>0</asrwt>
<pdfrwt beam="1">  1        1 0.27411905E+00 0.32799138E+04</pdfrwt>
<pdfrwt beam="2">  1       -1 0.23221963E+00 0.32799138E+04</pdfrwt>
<totfact> 0.31789180E-01</totfact>
</mgrwt>
</event>
<event>
 6    1  0.1001928E-005  0.2724605E+04  0.7818608E-02  0.8327065E-01
         -2   -1    0    0    0  501 -0.00000000000E+00  0.00000000000E+00  0.72378538735E+03  0.72378538735E+03  0.00000000000E+00 0. -1.
          2   -1    0    0  501    0  0.00000000000E+00 -0.00000000000E+00 -0.25641145578E+04  0.25641145578E+04  0.00000000000E+00 0.  1.
         23    2    1    2    0    0  0.13418262476E+04  0.18130892649E+03 -0.75809586536E+03  0.15545218755E+04  0.91969097596E+02 0.  0.
         13    1    3    3    0    0  0.10806284506E+04  0.13030894008E+03 -0.57038239651E+03  0.12288508235E+04  0.00000000000E+00 0. -1.
        -13    1    3    3    0    0  0.26119779702E+03  0.50999986414E+02 -0.18771346885E+03  0.32567105209E+03  0.00000000000E+00 0.  1.
         22    1    1    2    0    0 -0.13418262476E+04 -0.18130892649E+03 -0.10822333050E+04  0.17333780696E+04  0.00000000000E+00 0.  1.
<mgrwt>
<rscale>  0 0.27246054E+04</rscale>
<asrwt>0</asrwt>
<pdfrwt beam="1">  1        2 0.39447916E+00 0.27246054E+04</pdfrwt>
<pdfrwt beam="2">  1       -2 0.11135160E+00 0.27246054E+04</pdfrwt>
<totfact> 0.17833561E+00</totfact>
</mgrwt>
</event>
<event>
 6    1  0.1001928E-005  0.3918532E+04  0.7818608E-02  0.8021186E-01
          2   -1    0    0  501    0  0.00000000000E+00  0.00000000000E+00  0.21963633878E+04  0.21963633878E+04  0.00000000000E+00 0. -1.
         -2   -1    0    0    0  501 -0.00000000000E+00 -0.00000000000E+00 -0.17477633356E+04  0.17477633356E+04  0.00000000000E+00 0.  1.
         23    2    1    2    0    0 -0.39647318169E+03 -0.25108282461E+03 -0.16891201737E+04  0.17555012797E+04  0.91783513663E+02 0.  0.
         11    1    3    3    0    0 -0.98189291625E+02 -0.87716260953E+02 -0.61047219751E+03  0.62450907388E+03  0.00000000000E+00 0. -1.
        -11    1    3    3    0    0 -0.29828389007E+03 -0.16336656366E+03 -0.10786479761E+04  0.11309922058E+04  0.00000000000E+00 0.  1.
         22    1    1    2    0    0  0.39647318169E+03  0.25108282461E+03  0.21377202259E+04  0.21886254437E+04  0.00000000000E+00 0. -1.
<mgrwt>
<rscale>  0 0.39185321E+04</rscale>
<asrwt>0</asrwt>
<pdfrwt beam="1">  1        2 0.33790206E+00 0.39185321E+04</pdfrwt>
<pdfrwt beam="2">  1       -2 0.26888667E+00 0.39185321E+04</pdfrwt>
<totfact> 0.20284384E-01</totfact>
</mgrwt>
</event>
<event>
 6    1  0.1001928E-005  0.3448961E+04  0.7818608E-02  0.8125993E-01
         -2   -1    0    0    0  501 -0.00000000000E+00  0.00000000000E+00  0.96981461987E+03  0.96981461987E+03  0.00000000000E+00 0.  1.
          2   -1    0    0  501    0  0.00000000000E+00 -0.00000000000E+00 -0.30663927415E+04  0.30663927415E+04  0.00000000000E+00 0. -1.
         23    2    1    2    0    0 -0.67621801739E+03  0.13779416433E+04 -0.13228126068E+03  0.15433262697E+04  0.91453065435E+02 0.  0.
         11    1    3    3    0    0 -0.14763096127E+03  0.34806273434E+03 -0.66242603344E+02  0.38383674949E+03  0.00000000000E+00 0.  1.
        -11    1    3    3    0    0 -0.52858705612E+03  0.10298789090E+04 -0.66038657335E+02  0.11594895202E+04  0.00000000000E+00 0. -1.
         22    1    1    2    0    0  0.67621801739E+03 -0.13779416433E+04 -0.19642968610E+04  0.24928810917E+04  0.00000000000E+00 0. -1.
<mgrwt>
<rscale>  0 0.34489607E+04</rscale>
<asrwt>0</asrwt>
<pdfrwt beam="1">  1        2 0.47175273E+00 0.34489607E+04</pdfrwt>
<pdfrwt beam="2">  1       -2 0.14920225E+00 0.34489607E+04</pdfrwt>
<totfact> 0.39609477E-01</totfact>
</mgrwt>
</event>
<event>
 6    1  0.1001928E-005  0.5540784E+04  0.7818608E-02  0.7750102E-01
         -2   -1    0    0    0  501 -0.00000000000E+00  0.00000000000E+00  0.28270171608E+04  0.28270171608E+04  0.00000000000E+00 0.  1.
          2   -1    0    0  501    0  0.00000000000E+00 -0.00000000000E+00 -0.27149014335E+04  0.27149014335E+04  0.00000000000E+00 0. -1.
         23    2    1    2    0    0 -0.13742409021E+04  0.18167863572E+04 -0.15196115840E+04  0.27398149660E+04  0.90088608249E+02 0.  0.
         13    1    3    3    0    0 -0.11333262399E+04  0.14436302316E+04 -0.12070560100E+04  0.21966977085E+04  0.00000000000E+00 0.  1.
        -13    1    3    3    0    0 -0.24091466226E+03  0.37315612558E+03 -0.31255557403E+03  0.54311725751E+03  0.00000000000E+00 0. -1.
         22    1    1    2    0    0  0.13742409021E+04 -0.18167863572E+04  0.16317273114E+04  0.28021036282E+04  0.00000000000E+00 0.  1.
<mgrwt>
<rscale>  0 0.55407844E+04</rscale>
<asrwt>0</asrwt>
<pdfrwt beam="1">  1        2 0.41767714E+00 0.55407844E+04</pdfrwt>
<pdfrwt beam="2">  1       -2 0.43492572E+00 0.55407844E+04</pdfrwt>
<totfact> 0.79484089E-03</totfact>
</mgrwt>
</event>
<event>
 6    1  0.1001928E-005  0.7376583E+03  0.7818608E-02  0.9654914E-01
         -1   -1    0    0    0  501 -0.00000000000E+00  0.00000000000E+00  0.21076986842E+03  0.21076986842E+03  0.00000000000E+00 0.  1.
          1   -1    0    0  501    0  0.00000000000E+00 -0.00000000000E+00 -0.64541926031E+03  0.64541926031E+03  0.00000000000E+00 0. -1.
         23    2    1    2    0    0  0.29652815740E+03 -0.39506579625E+02  0.18132340553E+02  0.31350965133E+03  0.92031525765E+02 0.  0.
         13    1    3    3    0    0  0.21964412252E+03 -0.18176408797E+02 -0.26671221119E+02  0.22200287482E+03  0.00000000000E+00 0. -1.
        -13    1    3    3    0    0  0.76884034887E+02 -0.21330170828E+02  0.44803561672E+02  0.91506776506E+02  0.00000000000E+00 0.  1.
         22    1    1    2    0    0 -0.29652815740E+03  0.39506579625E+02 -0.45278173244E+03  0.54267947740E+03  0.00000000000E+00 0. -1.
<mgrwt>
<rscale>  0 0.73765827E+03</rscale>
<asrwt>0</asrwt>
<pdfrwt beam="1">  1        1 0.99295269E-01 0.73765827E+03</pdfrwt>
<pdfrwt beam="2">  1       -1 0.32426134E-01 0.73765827E+03</pdfrwt>
<totfact> 0.27680918E+02</totfact>
</mgrwt>
</event>
<event>
 6    1  0.1001928E-005  0.3122650E+04  0.7818608E-02  0.8209549E-01
          2   -1    0    0  501    0  0.00000000000E+00  0.00000000000E+00  0.17316557852E+04  0.17316557852E+04  0.00000000000E+00 0.  1.
         -2   -1    0    0    0  501 -0.00000000000E+00 -0.00000000000E+00 -0.14077485625E+04  0.14077485625E+04  0.00000000000E+00 0. -1.
         23    2    1    2    0    0  0.10578587368E+04  0.77787932704E+03  0.10088631576E+04  0.16584161684E+04  0.91531208345E+02 0.  0.
         11    1    3    3    0    0  0.88616566565E+03  0.67403316927E+03  0.81888725878E+03  0.13820950195E+04  0.00000000000E+00 0. -1.
        -11    1    3    3    0    0  0.17169307120E+03  0.10384615777E+03  0.18997589885E+03  0.27632114889E+03  0.00000000000E+00 0.  1.
         22    1    1    2    0    0 -0.10578587368E+04 -0.77787932704E+03 -0.68495593488E+03  0.14809881793E+04  0.00000000000E+00 0. -1.
<mgrwt>
<rscale>  0 0.31226501E+04</rscale>
<asrwt>0</asrwt>
<pdfrwt beam="1">  1        2 0.26640858E+00 0.31226501E+04</pdfrwt>
<pdfrwt beam="2">  1       -2 0.21657670E+00 0.31226501E+04</pdfrwt>
<totfact> 0.82935734E-01</totfact>
</mgrwt>
</event>
<event>
 6    1  0.1001928E-005  0.1251053E+04  0.7818608E-02  0.9069307E-01
          1   -1    0    0  501    0  0.00000000000E+00  0.00000000000E+00  0.60300329986E+03  0.60300329986E+03  0.00000000000E+00 0. -1.
         -1   -1    0    0    0  501 -0.00000000000E+00 -0.00000000000E+00 -0.64889129345E+03  0.64889129345E+03  0.00000000000E+00 0.  1.
         23    2    1    2    0    0 -0.38001121578E+03  0.32988906134E+03 -0.38929234592E+03  0.64266404080E+03  0.90737102855E+02 0.  0.
         13    1    3    3    0    0 -0.15784730656E+03  0.18605975192E+03 -0.21969032967E+03  0.32832582053E+03  0.00000000000E+00 0.  1.
        -13    1    3    3    0    0 -0.22216390922E+03  0.14382930941E+03 -0.16960201625E+03  0.31433822027E+03  0.00000000000E+00 0. -1.
         22    1    1    2    0    0  0.38001121578E+03 -0.32988906134E+03  0.34340435233E+03  0.60923055251E+03  0.00000000000E+00 0. -1.
<mgrwt>
<rscale>  0 0.12510533E+04</rscale>
<asrwt>0</asrwt>
<pdfrwt beam="1">  1        1 0.92769738E-01 0.12510533E+04</pdfrwt>
<pdfrwt beam="2">  1       -1 0.99829430E-01 0.12510533E+04</pdfrwt>
<totfact> 0.32099044E+01</totfact>
</mgrwt>
</event>
<event>
 6    1  0.1001928E-005  0.5990977E+04  0.7818608E-02  0.7691522E-01
          1   -1    0    0  501    0  0.00000000000E+00  0.00000000000E+00  0.34982293430E+04  0.34982293430E+04  0.00000000000E+00 0. -1.
         -1   -1    0    0    0  501 -0.00000000000E+00 -0.00000000000E+00 -0.25649978682E+04  0.25649978682E+04  0.00000000000E+00 0.  1.
         23    2    1    2    0    0  0.32621500210E+03 -0.17984514523E+04 -0.19341964068E+04  0.26627880470E+04  0.92090118012E+02 0.  0.
         11    1    3    3    0    0  0.12966499901E+03 -0.96483365565E+03 -0.10129348858E+04  0.14049035831E+04  0.00000000000E+00 0. -1.
        -11    1    3    3    0    0  0.19655000308E+03 -0.83361779660E+03 -0.92126152097E+03  0.12578844639E+04  0.00000000000E+00 0.  1.
         22    1    1    2    0    0 -0.32621500210E+03  0.17984514523E+04  0.28674278815E+04  0.34004391642E+04  0.00000000000E+00 0. -1.
<mgrwt>
<rscale>  0 0.59909768E+04</rscale>
<asrwt>0</asrwt>
<pdfrwt beam="1">  1        1 0.53818913E+00 0.59909768E+04</pdfrwt>
<pdfrwt beam="2">  1       -1 0.39461506E+00 0.59909768E+04</pdfrwt>
<totfact> 0.13043581E-03</totfact>
</mgrwt>
</event>
<event>
 6    1  0.1001928E-005  0.1950178E+04  0.7818608E-02  0.8630275E-01
          2   -1    0    0  501    0  0.00000000000E+00  0.00000000000E+00  0.74594668528E+03  0.74594668528E+03  0.00000000000E+00 0. -1.
         -2   -1    0    0    0  501 -0.00000000000E+00 -0.00000000000E+00 -0.12746200645E+04  0.12746200645E+04  0.00000000000E+00 0.  1.
         23    2    1    2    0    0  0.46988574902E+03  0.74010697334E+03 -0.70221490970E+03  0.11268846968E+04  0.90622245374E+02 0.  0.
         11    1    3    3    0    0  0.17960014065E+03  0.20825148976E+03 -0.23554672014E+03  0.36208721447E+03  0.00000000000E+00 0. -1.
        -11    1    3    3    0    0  0.29028560837E+03  0.53185548358E+03 -0.46666818956E+03  0.76479748233E+03  0.00000000000E+00 0.  1.
         22    1    1    2    0    0 -0.46988574902E+03 -0.74010697334E+03  0.17354153043E+03  0.89368205303E+03  0.00000000000E+00 0.  1.
<mgrwt>
<rscale>  0 0.19501781E+04</rscale>
<asrwt>0</asrwt>
<pdfrwt beam="1">  1        2 0.11476103E+00 0.19501781E+04</pdfrwt>
<pdfrwt beam="2">  1       -2 0.19609539E+00 0.19501781E+04</pdfrwt>
<totfact> 0.49686857E+00</totfact>
</mgrwt>
</event>
<event>
 6    1  0.1001928E-005  0.4718544E+04  0.7818608E-02  0.7873455E-01
         -2   -1    0    0    0  501 -0.00000000000E+00  0.00000000000E+00  0.18941743617E+04  0.18941743617E+04  0.00000000000E+00 0.  1.
          2   -1    0    0  501    0  0.00000000000E+00 -0.00000000000E+00 -0.29385697204E+04  0.29385697204E+04  0.00000000000E+00 0. -1.
         23    2    1    2    0    0  0.78525905793E+03 -0.19467671007E+04  0.57853011861E+03  0.21793649087E+04  0.91653557261E+02 0.  0.
         13    1    3    3    0    0  0.54890922065E+03 -0.14046894028E+04  0.45460865917E+03  0.15751579869E+04  0.00000000000E+00 0. -1.
        -13    1    3    3    0    0  0.23634983728E+03 -0.54207769798E+03  0.12392145944E+03  0.60420692179E+03  0.00000000000E+00 0.  1.
         22    1    1    2    0    0 -0.78525905793E+03  0.19467671007E+04 -0.16229254773E+04  0.26533791733E+04  0.00000000000E+00 0.  1.
<mgrwt>
<rscale>  0 0.47185436E+04</rscale>
<asrwt>0</asrwt>
<pdfrwt beam="1">  1        2 0.45208765E+00 0.47185436E+04</pdfrwt>
<pdfrwt beam="2">  1       -2 0.29141144E+00 0.47185436E+04</pdfrwt>
<totfact> 0.50764085E-02</totfact>
</mgrwt>
</event>
<event>
 6    1  0.1001928E-005  0.2969034E+04  0.7818608E-02  0.8252629E-01
          1   -1    0    0  501    0  0.00000000000E+00  0.00000000000E+00  0.11869017472E+04  0.11869017472E+04  0.00000000000E+00 0. -1.
         -1   -1    0    0    0  501 -0.00000000000E+00 -0.00000000000E+00 -0.18567596339E+04  0.18567596339E+04  0.00000000000E+00 0.  1.
         23    2    1    2    0    0  0.82358202616E+03 -0.21072922533E+03 -0.15810982460E+04  0.17974458490E+04  0.90806147222E+02 0.  0.
         11    1    3    3    0    0  0.17570089130E+03 -0.35966145805E+02 -0.41422214747E+03  0.45138049836E+03  0.00000000000E+00 0.  1.
        -11    1    3    3    0    0  0.64788113487E+03 -0.17476307953E+03 -0.11668760985E+04  0.13460653506E+04  0.00000000000E+00 0. -1.
         22    1    1    2    0    0 -0.82358202616E+03  0.21072922533E+03  0.91124035927E+03  0.12462155322E+04  0.00000000000E+00 0. -1.
<mgrwt>
<rscale>  0 0.29690344E+04</rscale>
<asrwt>0</asrwt>
<pdfrwt beam="1">  1        1 0.18260027E+00 0.29690344E+04</pdfrwt>
<pdfrwt beam="2">  1       -1 0.28565533E+00 0.29690344E+04</pdfrwt>
<totfact> 0.38131791E-01</totfact>
</mgrwt>
</event>
<event>
 6    1  0.1001928E-005  0.3265136E+04  0.7818608E-02  0.8171824E-01
         -2   -1    0    0    0  501 -0.00000000000E+00  0.00000000000E+00  0.29426353903E+04  0.29426353903E+04  0.00000000000E+00 0.  1.
          2   -1    0    0  501    0  0.00000000000E+00 -0.00000000000E+00 -0.90574528952E+03  0.90574528952E+03  0.00000000000E+00 0. -1.
         23    2    1    2    0    0 -0.71120858804E+03  0.28129340015E+03 -0.67897234322E+03  0.10268824169E+04  0.92414407376E+02 0.  0.
         11    1    3    3    0    0 -0.27999380743E+03  0.12687340594E+03 -0.33052857616E+03  0.45137848086E+03  0.00000000000E+00 0.  1.
        -11    1    3    3    0    0 -0.43121478061E+03  0.15441999422E+03 -0.34844376707E+03  0.57550393607E+03  0.00000000000E+00 0. -1.
         22    1    1    2    0    0  0.71120858804E+03 -0.28129340015E+03  0.27158624440E+04  0.28214982629E+04  0.00000000000E+00 0.  1.
<mgrwt>
<rscale>  0 0.32651359E+04</rscale>
<asrwt>0</asrwt>
<pdfrwt beam="1">  1        2 0.13934543E+00 0.32651359E+04</pdfrwt>
<pdfrwt beam="2">  1       -2 0.45271313E+00 0.32651359E+04</pdfrwt>
<totfact> 0.80946769E-02</totfact>
</mgrwt>
</event>
<event>
 6    1  0.1001928E-005  0.1959624E+04  0.7818608E-02  0.8625734E-01
         -1   -1    0    0    0  501 -0.00000000000E+00  0.00000000000E+00  0.81452144667E+03  0.81452144667E+03  0.00000000000E+00 0.  1.
          1   -1    0    0  501    0  0.00000000000E+00 -0.00000000000E+00 -0.11786448681E+04  0.11786448681E+04  0.00000000000E+00 0. -1.
         23    2    1    2    0    0 -0.10295234539E+03  0.30660431418E+03 -0.11208277093E+04  0.11702405768E+04  0.92751619001E+02 0.  0.
         13    1    3    3    0    0 -0.12829776522E+02  0.16159985603E+03 -0.46055543639E+03  0.48825242102E+03  0.00000000000E+00 0. -1.
        -13    1    3    3    0    0 -0.90122568864E+02  0.14500445815E+03 -0.66027227289E+03  0.68198815580E+03  0.00000000000E+00 0.  1.
         22    1    1    2    0    0  0.10295234539E+03 -0.30660431418E+03  0.75670428787E+03  0.82292573795E+03  0.00000000000E+00 0.  1.
<mgrwt>
<rscale>  0 0.19596240E+04</rscale>
<asrwt>0</asrwt>
<pdfrwt beam="1">  1        1 0.18132998E+00 0.19596240E+04</pdfrwt>
<pdfrwt beam="2">  1       -1 0.12531099E+00 0.19596240E+04</pdfrwt>
<totfact> 0.57362191E+00</totfact>
</mgrwt>
</event>
<event>
 6    1  0.1001928E-005  0.8881502E+03  0.7818608E-02  0.9440517E-01
          1   -1    0    0  501    0  0.00000000000E+00  0.00000000000E+00  0.19494047143E+04  0.19494047143E+04  0.00000000000E+00 0. -1.
         -1   -1    0    0    0  501 -0.00000000000E+00 -0.00000000000E+00 -0.10116046938E+03  0.10116046938E+03  0.00000000000E+00 0.  1.
         23    2    1    2    0    0 -0.13912832868E+03 -0.33021882499E+03  0.15205605008E+04  0.15649956208E+04  0.93305371889E+02 0.  0.
         13    1    3    3    0    0 -0.13116006605E+01  0.40001200173E+01  0.67739213738E+02  0.67869892694E+02  0.00000000000E+00 0. -1.
        -13    1    3    3    0    0 -0.13781672802E+03 -0.33421894501E+03  0.14528212870E+04  0.14971257281E+04  0.00000000000E+00 0.  1.
         22    1    1    2    0    0  0.13912832868E+03  0.33021882499E+03  0.32768374417E+03  0.48556956290E+03  0.00000000000E+00 0.  1.
<mgrwt>
<rscale>  0 0.88815020E+03</rscale>
<asrwt>0</asrwt>
<pdfrwt beam="1">  1        1 0.29990839E+00 0.88815020E+03</pdfrwt>
<pdfrwt beam="2">  1       -1 0.15563151E-01 0.88815020E+03</pdfrwt>
<totfact> 0.10152642E+02</totfact>
</mgrwt>
</event>
<event>
 6    1  0.1001928E-005  0.1498560E+04  0.7818608E-02  0.8885411E-01
          1   -1    0    0  501    0  0.00000000000E+00  0.00000000000E+00  0.70298009816E+03  0.70298009816E+03  0.00000000000E+00 0.  1.
         -1   -1    0    0    0  501 -0.00000000000E+00 -0.00000000000E+00 -0.79862933936E+03  0.79862933936E+03  0.00000000000E+00 0. -1.
         23    2    1    2    0    0  0.44592155952E+03 -0.47241367144E+03 -0.41647991524E+03  0.77707300945E+03  0.91467087049E+02 0.  0.
         11    1    3    3    0    0  0.17208818658E+03 -0.24851943963E+03 -0.19620036973E+03  0.36037597161E+03  0.00000000000E+00 0. -1.
        -11    1    3    3    0    0  0.27383337294E+03 -0.22389423181E+03 -0.22027954551E+03  0.41669703784E+03  0.00000000000E+00 0.  1.
         22    1    1    2    0    0 -0.44592155952E+03  0.47241367144E+03  0.32083067404E+03  0.72453642808E+03  0.00000000000E+00 0.  1.
<mgrwt>
<rscale>  0 0.14985600E+04</rscale>
<asrwt>0</asrwt>
<pdfrwt beam="1">  1        1 0.10815079E+00 0.14985600E+04</pdfrwt>
<pdfrwt beam="2">  1       -1 0.12286605E+00 0.14985600E+04</pdfrwt>
<totfact> 0.15300382E+01</totfact>
</mgrwt>
</event>
<event>
 6    1  0.1001928E-005  0.1881391E+04  0.7818608E-02  0.8664175E-01
          1   -1    0    0  501    0  0.00000000000E+00  0.00000000000E+00  0.16785766829E+04  0.16785766829E+04  0.00000000000E+00 0. -1.
         -1   -1    0    0    0  501 -0.00000000000E+00 -0.00000000000E+00 -0.52717744428E+03  0.52717744428E+03  0.00000000000E+00 0.  1.
         23    2    1    2    0    0 -0.34830911938E+03  0.49325165912E+03  0.14188866130E+04  0.15453255260E+04  0.10087278667E+03 0.  0.
         11    1    3    3    0    0 -0.17036823148E+03  0.20545199998E+03  0.74274900677E+03  0.78924770867E+03  0.00000000000E+00 0. -1.
        -11    1    3    3    0    0 -0.17794088790E+03  0.28779965914E+03  0.67613760619E+03  0.75607781736E+03  0.00000000000E+00 0.  1.
         22    1    1    2    0    0  0.34830911938E+03 -0.49325165912E+03 -0.26748737430E+03  0.66042860120E+03  0.00000000000E+00 0.  1.
<mgrwt>
<rscale>  0 0.18813907E+04</rscale>
<asrwt>0</asrwt>
<pdfrwt beam="1">  1        1 0.25824256E+00 0.18813907E+04</pdfrwt>
<pdfrwt beam="2">  1       -1 0.81104223E-01 0.18813907E+04</pdfrwt>
<totfact> 0.69969499E+00</totfact>
</mgrwt>
</event>
<event>
 6    1  0.1001928E-005  0.1109867E+04  0.7818608E-02  0.9195628E-01
         -2   -1    0    0    0  501 -0.00000000000E+00  0.00000000000E+00  0.60906504912E+03  0.60906504912E+03  0.00000000000E+00 0.  1.
          2   -1    0    0  501    0  0.00000000000E+00 -0.00000000000E+00 -0.50561251916E+03  0.50561251916E+03  0.00000000000E+00 0. -1.
         23    2    1    2    0    0 -0.48659034879E+03  0.71998407973E+02 -0.19825738121E+03  0.53763094210E+03  0.88244560207E+02 0.  0.
         13    1    3    3    0    0 -0.32345543450E+03  0.55232351756E+02 -0.87052829153E+02  0.33948818219E+03  0.00000000000E+00 0.  1.
        -13    1    3    3    0    0 -0.16313491430E+03  0.16766056217E+02 -0.11120455206E+03  0.19814275990E+03  0.00000000000E+00 0. -1.
         22    1    1    2    0    0  0.48659034879E+03 -0.71998407973E+02  0.30170991117E+03  0.57704662618E+03  0.00000000000E+00 0.  1.
<mgrwt>
<rscale>  0 0.11098665E+04</rscale>
<asrwt>0</asrwt>
<pdfrwt beam="1">  1        2 0.77786541E-01 0.11098665E+04</pdfrwt>
<pdfrwt beam="2">  1       -2 0.93702315E-01 0.11098665E+04</pdfrwt>
<totfact> 0.58071882E+01</totfact>
</mgrwt>
</event>
<event>
 6    1  0.1001928E-005  0.2133439E+04  0.7818608E-02  0.8546655E-01
          2   -1    0    0  501    0  0.00000000000E+00  0.00000000000E+00  0.10140194406E+04  0.10140194406E+04  0.00000000000E+00 0. -1.
         -2   -1    0    0    0  501 -0.00000000000E+00 -0.00000000000E+00 -0.11221585973E+04  0.11221585973E+04  0.00000000000E+00 0.  1.
         23    2    1    2    0    0  0.84318186151E+03  0.34148004556E+03 -0.60817642225E+03  0.10981021543E+04  0.91572417805E+02 0.  0.
         11    1    3    3    0    0  0.73802556529E+03  0.31797495635E+03 -0.56332309624E+03  0.98138815901E+03  0.00000000000E+00 0. -1.
        -11    1    3    3    0    0  0.10515629622E+03  0.23505089217E+02 -0.44853326015E+02  0.11671399534E+03  0.00000000000E+00 0.  1.
         22    1    1    2    0    0 -0.84318186151E+03 -0.34148004556E+03  0.50003726557E+03  0.10380758836E+04  0.00000000000E+00 0. -1.
<mgrwt>
<rscale>  0 0.21334391E+04</rscale>
<asrwt>0</asrwt>
<pdfrwt beam="1">  1        2 0.15600299E+00 0.21334391E+04</pdfrwt>
<pdfrwt beam="2">  1       -2 0.17263978E+00 0.21334391E+04</pdfrwt>
<totfact> 0.46281326E+00</totfact>
</mgrwt>
</event>
<event>
 6    1  0.1001928E-005  0.8941432E+03  0.7818608E-02  0.9432932E-01
         -1   -1    0    0    0  501 -0.00000000000E+00  0.00000000000E+00  0.49111630622E+03  0.49111630622E+03  0.00000000000E+00 0.  1.
          1   -1    0    0  501    0  0.00000000000E+00 -0.00000000000E+00 -0.40697696956E+03  0.40697696956E+03  0.00000000000E+00 0. -1.
         23    2    1    2    0    0  0.14135509513E+02  0.36757151151E+03  0.29187854394E+03  0.47564303381E+03  0.75727026194E+02 0.  0.
         11    1    3    3    0    0 -0.28824064817E+02  0.14158282769E+03  0.12996260893E+03  0.19433683009E+03  0.00000000000E+00 0. -1.
        -11    1    3    3    0    0  0.42959574330E+02  0.22598868382E+03  0.16191593501E+03  0.28130620372E+03  0.00000000000E+00 0.  1.
         22    1    1    2    0    0 -0.14135509513E+02 -0.36757151151E+03 -0.20773920727E+03  0.42245024197E+03  0.00000000000E+00 0. -1.
<mgrwt>
<rscale>  0 0.89414322E+03</rscale>
<asrwt>0</asrwt>
<pdfrwt beam="1">  1        1 0.62611842E-01 0.89414322E+03</pdfrwt>
<pdfrwt beam="2">  1       -1 0.75556354E-01 0.89414322E+03</pdfrwt>
<totfact> 0.10410867E+02</totfact>
</mgrwt>
</event>
<event>
 6    1  0.1001928E-005  0.2514746E+04  0.7818608E-02  0.8397751E-01
         -1   -1    0    0    0  501 -0.00000000000E+00  0.00000000000E+00  0.36246344809E+03  0.36246344809E+03  0.00000000000E+00 0.  1.
          1   -1    0    0  501    0  0.00000000000E+00 -0.00000000000E+00 -0.43617816216E+04  0.43617816216E+04  0.00000000000E+00 0. -1.
         23    2    1    2    0    0  0.56626641851E+03 -0.62426662617E+03 -0.37510165471E+04  0.38455982835E+04  0.90191706254E+02 0.  0.
         13    1    3    3    0    0  0.23448887229E+03 -0.22923619197E+03 -0.12831134983E+04  0.13243543757E+04  0.00000000000E+00 0. -1.
        -13    1    3    3    0    0  0.33177754622E+03 -0.39503043420E+03 -0.24679030488E+04  0.25212439077E+04  0.00000000000E+00 0.  1.
         22    1    1    2    0    0 -0.56626641851E+03  0.62426662617E+03 -0.24830162641E+03  0.87864678624E+03  0.00000000000E+00 0.  1.
<mgrwt>
<rscale>  0 0.25147456E+04</rscale>
<asrwt>0</asrwt>
<pdfrwt beam="1">  1        1 0.67104335E+00 0.25147456E+04</pdfrwt>
<pdfrwt beam="2">  1       -1 0.55763605E-01 0.25147456E+04</pdfrwt>
<totfact> 0.12844939E-01</totfact>
</mgrwt>
</event>
<event>
 6    1  0.1001928E-005  0.1896252E+04  0.7818608E-02  0.8656724E-01
          1   -1    0    0  501    0  0.00000000000E+00  0.00000000000E+00  0.10178612096E+04  0.10178612096E+04  0.00000000000E+00 0. -1.
         -1   -1    0    0    0  501 -0.00000000000E+00 -0.00000000000E+00 -0.88316830190E+03  0.88316830190E+03  0.00000000000E+00 0.  1.
         23    2    1    2    0    0  0.38197737275E+03 -0.48934348067E+03 -0.64799936630E+03  0.90204455108E+03  0.91746596859E+02 0.  0.
         11    1    3    3    0    0  0.16371636243E+03 -0.20526758358E+03 -0.21007577075E+03  0.33625831982E+03  0.00000000000E+00 0.  1.
        -11    1    3    3    0    0  0.21826101032E+03 -0.28407589709E+03 -0.43792359556E+03  0.56578623126E+03  0.00000000000E+00 0. -1.
         22    1    1    2    0    0 -0.38197737275E+03  0.48934348067E+03  0.78269227402E+03  0.99898496044E+03  0.00000000000E+00 0. -1.
<mgrwt>
<rscale>  0 0.18962518E+04</rscale>
<asrwt>0</asrwt>
<pdfrwt beam="1">  1        1 0.15659403E+00 0.18962518E+04</pdfrwt>
<pdfrwt beam="2">  1       -1 0.13587205E+00 0.18962518E+04</pdfrwt>
<totfact> 0.62143918E+00</totfact>
</mgrwt>
</event>
<event>
 6    1  0.1001928E-005  0.9590010E+03  0.7818608E-02  0.9354691E-01
         -2   -1    0    0    0  501 -0.00000000000E+00  0.00000000000E+00  0.14489533102E+04  0.14489533102E+04  0.00000000000E+00 0.  1.
          2   -1    0    0  501    0  0.00000000000E+00 -0.00000000000E+00 -0.15868056993E+03  0.15868056993E+03  0.00000000000E+00 0. -1.
         23    2    1    2    0    0  0.40155106100E+03 -0.20345670903E+03  0.90674099871E+03  0.10162503465E+04  0.89149543039E+02 0.  0.
         13    1    3    3    0    0  0.23488745798E+03 -0.15200216596E+03  0.48586393806E+03  0.56066080894E+03  0.00000000000E+00 0.  1.
        -13    1    3    3    0    0  0.16666360303E+03 -0.51454543074E+02  0.42087706065E+03  0.45558953758E+03  0.00000000000E+00 0. -1.
         22    1    1    2    0    0 -0.40155106100E+03  0.20345670903E+03  0.38353174157E+03  0.59138353362E+03  0.00000000000E+00 0. -1.
<mgrwt>
<rscale>  0 0.95900102E+03</rscale>
<asrwt>0</asrwt>
<pdfrwt beam="1">  1        2 0.24412396E-01 0.95900102E+03</pdfrwt>
<pdfrwt beam="2">  1       -2 0.22291588E+00 0.95900102E+03</pdfrwt>
<totfact> 0.21457287E+01</totfact>
</mgrwt>
</event>
<event>
 6    1  0.1001928E-005  0.4031833E+04  0.7818608E-02  0.7998156E-01
          2   -1    0    0  501    0  0.00000000000E+00  0.00000000000E+00  0.31869900184E+04  0.31869900184E+04  0.00000000000E+00 0. -1.
         -2   -1    0    0    0  501 -0.00000000000E+00 -0.00000000000E+00 -0.12751589351E+04  0.12751589351E+04  0.00000000000E+00 0.  1.
         23    2    1    2    0    0 -0.56146192200E+02 -0.19473360273E+04  0.15254203889E+04  0.24760514678E+04  0.93024245346E+02 0.  0.
         13    1    3    3    0    0 -0.67493571197E+02 -0.90290753383E+03  0.68186836430E+03  0.11334645398E+04  0.00000000000E+00 0. -1.
        -13    1    3    3    0    0  0.11347378997E+02 -0.10444284935E+04  0.84355202460E+03  0.13425869280E+04  0.00000000000E+00 0.  1.
         22    1    1    2    0    0  0.56146192200E+02  0.19473360273E+04  0.38641069437E+03  0.19860974857E+04  0.00000000000E+00 0.  1.
<mgrwt>
<rscale>  0 0.40318327E+04</rscale>
<asrwt>0</asrwt>
<pdfrwt beam="1">  1        2 0.49030615E+00 0.40318327E+04</pdfrwt>
<pdfrwt beam="2">  1       -2 0.19617830E+00 0.40318327E+04</pdfrwt>
<totfact> 0.14652117E-01</totfact>
</mgrwt>
</event>
<event>
 6    1  0.1001928E-005  0.1740736E+04  0.7818608E-02  0.8738466E-01
         -1   -1    0    0    0  501 -0.00000000000E+00  0.00000000000E+00  0.82857942101E+03  0.82857942101E+03  0.00000000000E+00 0.  1.
          1   -1    0    0  501    0  0.00000000000E+00 -0.00000000000E+00 -0.91426411437E+03  0.91426411437E+03  0.00000000000E+00 0. -1.
         23    2    1    2    0    0 -0.58615991644E+03  0.60491799563E+03  0.16675394444E+03  0.86350600353E+03  0.91249718166E+02 0.  0.
         13    1    3    3    0    0 -0.38258285787E+03  0.45475603218E+03  0.11618115226E+03  0.60553344423E+03  0.00000000000E+00 0. -1.
        -13    1    3    3    0    0 -0.20357705856E+03  0.15016196346E+03  0.50572792178E+02  0.25797255930E+03  0.00000000000E+00 0.  1.
         22    1    1    2    0    0  0.58615991644E+03 -0.60491799563E+03 -0.25243863780E+03  0.87933753186E+03  0.00000000000E+00 0. -1.
<mgrwt>
<rscale>  0 0.17407360E+04</rscale>
<asrwt>0</asrwt>
<pdfrwt beam="1">  1        1 0.14065602E+00 0.17407360E+04</pdfrwt>
<pdfrwt beam="2">  1       -1 0.12747376E+00 0.17407360E+04</pdfrwt>
<totfact> 0.89532420E+00</totfact>
</mgrwt>
</event>
<event>
 6    1  0.1001928E-005  0.4019941E+04  0.7818608E-02  0.8000536E-01
         -2   -1    0    0    0  501 -0.00000000000E+00  0.00000000000E+00  0.21675513926E+04  0.21675513926E+04  0.00000000000E+00 0.  1.
          2   -1    0    0  501    0  0.00000000000E+00 -0.00000000000E+00 -0.18638460979E+04  0.18638460979E+04  0.00000000000E+00 0. -1.
         23    2    1    2    0    0  0.17912759644E+04  0.90527115747E+03  0.65802830171E+02  0.20103128728E+04  0.94033956524E+02 0.  0.
         11    1    3    3    0    0  0.69330436463E+03  0.38606551057E+03  0.59181979544E+02  0.79575123448E+03  0.00000000000E+00 0.  1.
        -11    1    3    3    0    0  0.10979715997E+04  0.51920564691E+03  0.66208506272E+01  0.12145616383E+04  0.00000000000E+00 0. -1.
         22    1    1    2    0    0 -0.17912759644E+04 -0.90527115747E+03  0.23790246448E+03  0.20210846177E+04  0.00000000000E+00 0.  1.
<mgrwt>
<rscale>  0 0.40199414E+04</rscale>
<asrwt>0</asrwt>
<pdfrwt beam="1">  1        2 0.28674555E+00 0.40199414E+04</pdfrwt>
<pdfrwt beam="2">  1       -2 0.33346945E+00 0.40199414E+04</pdfrwt>
<totfact> 0.12369849E-01</totfact>
</mgrwt>
</event>
<event>
 6    1  0.1001928E-005  0.3335383E+04  0.7818608E-02  0.8153950E-01
         -2   -1    0    0    0  501 -0.00000000000E+00  0.00000000000E+00  0.11990273583E+04  0.11990273583E+04  0.00000000000E+00 0.  1.
          2   -1    0    0  501    0  0.00000000000E+00 -0.00000000000E+00 -0.23195429626E+04  0.23195429626E+04  0.00000000000E+00 0. -1.
         23    2    1    2    0    0 -0.40934880810E+03  0.24842731516E+03 -0.22445403674E+04  0.22968034669E+04  0.89789346598E+02 0.  0.
         13    1    3    3    0    0 -0.11094855541E+03  0.69161334186E+02 -0.44083000954E+03  0.45980862258E+03  0.00000000000E+00 0. -1.
        -13    1    3    3    0    0 -0.29840025269E+03  0.17926598097E+03 -0.18037103579E+04  0.18369948443E+04  0.00000000000E+00 0.  1.
         22    1    1    2    0    0  0.40934880810E+03 -0.24842731516E+03  0.11240247631E+04  0.12217668540E+04  0.00000000000E+00 0.  1.
<mgrwt>
<rscale>  0 0.33353833E+04</rscale>
<asrwt>0</asrwt>
<pdfrwt beam="1">  1        2 0.35685276E+00 0.33353833E+04</pdfrwt>
<pdfrwt beam="2">  1       -2 0.18446575E+00 0.33353833E+04</pdfrwt>
<totfact> 0.62180795E-01</totfact>
</mgrwt>
</event>
<event>
 6    1  0.1001928E-005  0.1651694E+04  0.7818608E-02  0.8789405E-01
          1   -1    0    0  501    0  0.00000000000E+00  0.00000000000E+00  0.93531735414E+03  0.93531735414E+03  0.00000000000E+00 0. -1.
         -1   -1    0    0    0  501 -0.00000000000E+00 -0.00000000000E+00 -0.72918943611E+03  0.72918943611E+03  0.00000000000E+00 0.  1.
         23    2    1    2    0    0  0.55224393835E+03 -0.26430788063E+03  0.65783165454E+03  0.90367284727E+03  0.95132044890E+02 0.  0.
         13    1    3    3    0    0  0.52873065239E+02 -0.76124125828E+01  0.92964658146E+02  0.10721910985E+03  0.00000000000E+00 0.  1.
        -13    1    3    3    0    0  0.49937087311E+03 -0.25669546805E+03  0.56486699639E+03  0.79645373741E+03  0.00000000000E+00 0. -1.
         22    1    1    2    0    0 -0.55224393835E+03  0.26430788063E+03 -0.45170373651E+03  0.76083394298E+03  0.00000000000E+00 0.  1.
<mgrwt>
<rscale>  0 0.16516943E+04</rscale>
<asrwt>0</asrwt>
<pdfrwt beam="1">  1        1 0.14389498E+00 0.16516943E+04</pdfrwt>
<pdfrwt beam="2">  1       -1 0.11218299E+00 0.16516943E+04</pdfrwt>
<totfact> 0.11855300E+01</totfact>
</mgrwt>
</event>
<event>
 6    1  0.1001928E-005  0.1046030E+04  0.7818608E-02  0.9259452E-01
          2   -1    0    0  501    0  0.00000000000E+00  0.00000000000E+00  0.19074821536E+04  0.19074821536E+04  0.00000000000E+00 0. -1.
         -2   -1    0    0    0  501 -0.00000000000E+00 -0.00000000000E+00 -0.14340621635E+03  0.14340621635E+03  0.00000000000E+00 0.  1.
         23    2    1    2    0    0  0.20097596472E+03 -0.13954652505E+03  0.17862623695E+04  0.18052121423E+04  0.90515496221E+02 0.  0.
         13    1    3    3    0    0  0.11641838378E+03 -0.13101614314E+03  0.11428887804E+04  0.11562496418E+04  0.00000000000E+00 0.  1.
        -13    1    3    3    0    0  0.84557580937E+02 -0.85303819151E+01  0.64337358915E+03  0.64896250055E+03  0.00000000000E+00 0. -1.
         22    1    1    2    0    0 -0.20097596472E+03  0.13954652505E+03 -0.22186432243E+02  0.24567622764E+03  0.00000000000E+00 0.  1.
<mgrwt>
<rscale>  0 0.10460302E+04</rscale>
<asrwt>0</asrwt>
<pdfrwt beam="1">  1        2 0.29345877E+00 0.10460302E+04</pdfrwt>
<pdfrwt beam="2">  1       -2 0.22062496E-01 0.10460302E+04</pdfrwt>
<totfact> 0.13481506E+02</totfact>
</mgrwt>
</event>
<event>
 6    1  0.1001928E-005  0.1785320E+04  0.7818608E-02  0.8714145E-01
          2   -1    0    0  501    0  0.00000000000E+00  0.00000000000E+00  0.92840783683E+03  0.92840783683E+03  0.00000000000E+00 0. -1.
         -2   -1    0    0    0  501 -0.00000000000E+00 -0.00000000000E+00 -0.85828830002E+03  0.85828830002E+03  0.00000000000E+00 0.  1.
         23    2    1    2    0    0 -0.74226670680E+03  0.23664185504E+03 -0.39627010603E+03  0.87868813549E+03  0.90020058515E+02 0.  0.
         11    1    3    3    0    0 -0.59124008145E+03  0.21880408033E+03 -0.34199102498E+03  0.71721539348E+03  0.00000000000E+00 0. -1.
        -11    1    3    3    0    0 -0.15102662536E+03  0.17837774711E+02 -0.54279081053E+02  0.16147274201E+03  0.00000000000E+00 0.  1.
         22    1    1    2    0    0  0.74226670680E+03 -0.23664185504E+03  0.46638964285E+03  0.90800800136E+03  0.00000000000E+00 0. -1.
<mgrwt>
<rscale>  0 0.17853197E+04</rscale>
<asrwt>0</asrwt>
<pdfrwt beam="1">  1        2 0.14283197E+00 0.17853197E+04</pdfrwt>
<pdfrwt beam="2">  1       -2 0.13204435E+00 0.17853197E+04</pdfrwt>
<totfact> 0.11070087E+01</totfact>
</mgrwt>
</event>
<event>
 6    1  0.1001928E-005  0.2008428E+04  0.7818608E-02  0.8602690E-01
         -2   -1    0    0    0  501 -0.00000000000E+00  0.00000000000E+00  0.24848738687E+04  0.24848738687E+04  0.00000000000E+00 0.  1.
          2   -1    0    0  501    0  0.00000000000E+00 -0.00000000000E+00 -0.40583393827E+03  0.40583393827E+03  0.00000000000E+00 0. -1.
         23    2    1    2    0    0  0.84275709933E+03 -0.50848692312E+03  0.13131439699E+04  0.16435530043E+04  0.90116107416E+02 0.  0.
         11    1    3    3    0    0  0.16943734185E+03 -0.82258049594E+02  0.20192074262E+03  0.27612929189E+03  0.00000000000E+00 0. -1.
        -11    1    3    3    0    0  0.67331975748E+03 -0.42622887353E+03  0.11112232273E+04  0.13674237124E+04  0.00000000000E+00 0.  1.
         22    1    1    2    0    0 -0.84275709933E+03  0.50848692312E+03  0.76589596053E+03  0.12471548027E+04  0.00000000000E+00 0. -1.
<mgrwt>
<rscale>  0 0.20084284E+04</rscale>
<asrwt>0</asrwt>
<pdfrwt beam="1">  1        2 0.62435992E-01 0.20084284E+04</pdfrwt>
<pdfrwt beam="2">  1       -2 0.38228828E+00 0.20084284E+04</pdfrwt>
<totfact> 0.70483604E-01</totfact>
</mgrwt>
</event>
<event>
 6    1  0.1001928E-005  0.1213311E+04  0.7818608E-02  0.9101284E-01
          2   -1    0    0  501    0  0.00000000000E+00  0.00000000000E+00  0.13599870423E+04  0.13599870423E+04  0.00000000000E+00 0. -1.
         -2   -1    0    0    0  501 -0.00000000000E+00 -0.00000000000E+00 -0.27061368646E+03  0.27061368646E+03  0.00000000000E+00 0.  1.
         23    2    1    2    0    0 -0.58693755518E+03 -0.61907950159E+02  0.71545496506E+03  0.93192823685E+03  0.91028257386E+02 0.  0.
         11    1    3    3    0    0 -0.78058945544E+02 -0.90204463220E+01  0.15024311966E+03  0.16955106144E+03  0.00000000000E+00 0.  1.
        -11    1    3    3    0    0 -0.50887860963E+03 -0.52887503837E+02  0.56521184540E+03  0.76237717541E+03  0.00000000000E+00 0. -1.
         22    1    1    2    0    0  0.58693755518E+03  0.61907950159E+02  0.37391839075E+03  0.69867249188E+03  0.00000000000E+00 0.  1.
<mgrwt>
<rscale>  0 0.12133113E+04</rscale>
<asrwt>0</asrwt>
<pdfrwt beam="1">  1        2 0.20922877E+00 0.12133113E+04</pdfrwt>
<pdfrwt beam="2">  1       -2 0.41632876E-01 0.12133113E+04</pdfrwt>
<totfact> 0.82184824E+01</totfact>
</mgrwt>
</event>
<event>
 6    1  0.1001928E-005  0.1639119E+04  0.7818608E-02  0.8796870E-01
         -2   -1    0    0    0  501 -0.00000000000E+00  0.00000000000E+00  0.81094456479E+03  0.81094456479E+03  0.00000000000E+00 0.  1.
          2   -1    0    0  501    0  0.00000000000E+00 -0.00000000000E+00 -0.82826624821E+03  0.82826624821E+03  0.00000000000E+00 0. -1.
         23    2    1    2    0    0 -0.25571465816E+03  0.10075163040E+02 -0.78460302969E+03  0.83037698605E+03  0.91828805131E+02 0.  0.
         11    1    3    3    0    0 -0.62801662813E+02 -0.30708774442E+02 -0.28058651639E+03  0.28916408986E+03  0.00000000000E+00 0.  1.
        -11    1    3    3    0    0 -0.19291299535E+03  0.40783937482E+02 -0.50401651329E+03  0.54121289619E+03  0.00000000000E+00 0. -1.
         22    1    1    2    0    0  0.25571465816E+03 -0.10075163040E+02  0.76728134626E+03  0.80883382696E+03  0.00000000000E+00 0.  1.
<mgrwt>
<rscale>  0 0.16391193E+04</rscale>
<asrwt>0</asrwt>
<pdfrwt beam="1">  1        2 0.12742558E+00 0.16391193E+04</pdfrwt>
<pdfrwt beam="2">  1       -2 0.12476070E+00 0.16391193E+04</pdfrwt>
<totfact> 0.15142395E+01</totfact>
</mgrwt>
</event>
<event>
 6    1  0.1001928E-005  0.1189580E+04  0.7818608E-02  0.9122026E-01
          2   -1    0    0  501    0  0.00000000000E+00  0.00000000000E+00  0.92442723957E+03  0.92442723957E+03  0.00000000000E+00 0. -1.
         -2   -1    0    0    0  501 -0.00000000000E+00 -0.00000000000E+00 -0.38269650937E+03  0.38269650937E+03  0.00000000000E+00 0.  1.
         23    2    1    2    0    0  0.54935019225E+03  0.16545692958E+03  0.42960027004E+03  0.72254281410E+03  0.91378864779E+02 0.  0.
         11    1    3    3    0    0  0.39574688484E+03  0.13398321046E+03  0.26266036304E+03  0.49351551532E+03  0.00000000000E+00 0. -1.
        -11    1    3    3    0    0  0.15360330741E+03  0.31473719115E+02  0.16693990699E+03  0.22902729878E+03  0.00000000000E+00 0.  1.
         22    1    1    2    0    0 -0.54935019225E+03 -0.16545692958E+03  0.11213046016E+03  0.58458093483E+03  0.00000000000E+00 0.  1.
<mgrwt>
<rscale>  0 0.11895799E+04</rscale>
<asrwt>0</asrwt>
<pdfrwt beam="1">  1        2 0.14221957E+00 0.11895799E+04</pdfrwt>
<pdfrwt beam="2">  1       -2 0.58876386E-01 0.11895799E+04</pdfrwt>
<totfact> 0.75154066E+01</totfact>
</mgrwt>
</event>
<event>
 6    1  0.1001928E-005  0.4567647E+03  0.7818608E-02  0.1025724E+00
          2   -1    0    0  501    0  0.00000000000E+00  0.00000000000E+00  0.32159994324E+03  0.32159994324E+03  0.00000000000E+00 0. -1.
         -2   -1    0    0    0  501 -0.00000000000E+00 -0.00000000000E+00 -0.16218440199E+03  0.16218440199E+03  0.00000000000E+00 0.  1.
         23    2    1    2    0    0  0.17687918704E+03  0.10896700663E+02 -0.54526904418E+02  0.20597801889E+03  0.89714971259E+02 0.  0.
         13    1    3    3    0    0  0.88893627073E+02 -0.26766719323E+02  0.55080465827E+01  0.92999315991E+02  0.00000000000E+00 0.  1.
        -13    1    3    3    0    0  0.87985559968E+02  0.37663419986E+02 -0.60034951000E+02  0.11297870290E+03  0.00000000000E+00 0. -1.
         22    1    1    2    0    0 -0.17687918704E+03 -0.10896700663E+02  0.21394244567E+03  0.27780632634E+03  0.00000000000E+00 0. -1.
<mgrwt>
<rscale>  0 0.45676469E+03</rscale>
<asrwt>0</asrwt>
<pdfrwt beam="1">  1        2 0.49476914E-01 0.45676469E+03</pdfrwt>
<pdfrwt beam="2">  1       -2 0.24951447E-01 0.45676469E+03</pdfrwt>
<totfact> 0.14557702E+03</totfact>
</mgrwt>
</event>
<event>
 6    1  0.1001928E-005  0.1264134E+04  0.7818608E-02  0.9058501E-01
          2   -1    0    0  501    0  0.00000000000E+00  0.00000000000E+00  0.55470342408E+03  0.55470342408E+03  0.00000000000E+00 0. -1.
         -2   -1    0    0    0  501 -0.00000000000E+00 -0.00000000000E+00 -0.72021979150E+03  0.72021979150E+03  0.00000000000E+00 0.  1.
         23    2    1    2    0    0 -0.53502067786E+02 -0.57456131469E+03 -0.33545548086E+03  0.67337315294E+03  0.88982289636E+02 0.  0.
         13    1    3    3    0    0  0.17012408857E+02 -0.27281114929E+03 -0.17305132925E+03  0.32351523579E+03  0.00000000000E+00 0.  1.
        -13    1    3    3    0    0 -0.70514476643E+02 -0.30175016540E+03 -0.16240415161E+03  0.34985791715E+03  0.00000000000E+00 0. -1.
         22    1    1    2    0    0  0.53502067786E+02  0.57456131469E+03  0.16993911344E+03  0.60155006265E+03  0.00000000000E+00 0.  1.
<mgrwt>
<rscale>  0 0.12641335E+04</rscale>
<asrwt>0</asrwt>
<pdfrwt beam="1">  1        2 0.85338989E-01 0.12641335E+04</pdfrwt>
<pdfrwt beam="2">  1       -2 0.11080304E+00 0.12641335E+04</pdfrwt>
<totfact> 0.34565986E+01</totfact>
</mgrwt>
</event>
<event>
 6    1  0.1001928E-005  0.1995522E+04  0.7818608E-02  0.8608717E-01
          1   -1    0    0  501    0  0.00000000000E+00  0.00000000000E+00  0.15880975606E+04  0.15880975606E+04  0.00000000000E+00 0. -1.
         -1   -1    0    0    0  501 -0.00000000000E+00 -0.00000000000E+00 -0.62686789633E+03  0.62686789633E+03  0.00000000000E+00 0.  1.
         23    2    1    2    0    0 -0.38455407530E+03 -0.51199390882E+03 -0.36453146597E+03  0.74266719436E+03  0.93014904194E+02 0.  0.
         11    1    3    3    0    0 -0.14139814745E+03 -0.13757207830E+03 -0.77771397279E+02  0.21205636766E+03  0.00000000000E+00 0.  1.
        -11    1    3    3    0    0 -0.24315592784E+03 -0.37442183052E+03 -0.28676006869E+03  0.53061082670E+03  0.00000000000E+00 0. -1.
         22    1    1    2    0    0  0.38455407530E+03  0.51199390882E+03  0.13257611302E+04  0.14722982626E+04  0.00000000000E+00 0. -1.
<mgrwt>
<rscale>  0 0.19955224E+04</rscale>
<asrwt>0</asrwt>
<pdfrwt beam="1">  1        1 0.24432270E+00 0.19955224E+04</pdfrwt>
<pdfrwt beam="2">  1       -1 0.96441216E-01 0.19955224E+04</pdfrwt>
<totfact> 0.54613007E+00</totfact>
</mgrwt>
</event>
<event>
 6    1  0.1001928E-005  0.9220702E+03  0.7818608E-02  0.9398406E-01
          2   -1    0    0  501    0  0.00000000000E+00  0.00000000000E+00  0.17226871132E+04  0.17226871132E+04  0.00000000000E+00 0. -1.
         -2   -1    0    0    0  501 -0.00000000000E+00 -0.00000000000E+00 -0.12338476624E+03  0.12338476624E+03  0.00000000000E+00 0.  1.
         23    2    1    2    0    0  0.42501473083E+03  0.14368113044E+03  0.97586457384E+03  0.10779856566E+04  0.91976196901E+02 0.  0.
         11    1    3    3    0    0  0.31958320354E+03  0.64383588780E+02  0.70170801737E+03  0.77373949888E+03  0.00000000000E+00 0.  1.
        -11    1    3    3    0    0  0.10543152730E+03  0.79297541661E+02  0.27415655646E+03  0.30424615776E+03  0.00000000000E+00 0. -1.
         22    1    1    2    0    0 -0.42501473083E+03 -0.14368113044E+03  0.62343777310E+03  0.76808622276E+03  0.00000000000E+00 0.  1.
<mgrwt>
<rscale>  0 0.92207016E+03</rscale>
<asrwt>0</asrwt>
<pdfrwt beam="1">  1        2 0.26502877E+00 0.92207016E+03</pdfrwt>
<pdfrwt beam="2">  1       -2 0.18982273E-01 0.92207016E+03</pdfrwt>
<totfact> 0.22396732E+02</totfact>
</mgrwt>
</event>
<event>
 6    1  0.1001928E-005  0.5342174E+04  0.7818608E-02  0.7777787E-01
          2   -1    0    0  501    0  0.00000000000E+00  0.00000000000E+00  0.29861614677E+04  0.29861614677E+04  0.00000000000E+00 0. -1.
         -2   -1    0    0    0  501 -0.00000000000E+00 -0.00000000000E+00 -0.23892569635E+04  0.23892569635E+04  0.00000000000E+00 0.  1.
         23    2    1    2    0    0 -0.15656827868E+04  0.16990329087E+04 -0.10481536266E+04  0.25391723792E+04  0.10341630745E+03 0.  0.
         13    1    3    3    0    0 -0.96364383108E+03  0.97864663881E+03 -0.64741757250E+03  0.15183899993E+04  0.00000000000E+00 0. -1.
        -13    1    3    3    0    0 -0.60203895575E+03  0.72038626989E+03 -0.40073605414E+03  0.10207823799E+04  0.00000000000E+00 0.  1.
         22    1    1    2    0    0  0.15656827868E+04 -0.16990329087E+04  0.16450581308E+04  0.28362460520E+04  0.00000000000E+00 0. -1.
<mgrwt>
<rscale>  0 0.53421745E+04</rscale>
<asrwt>0</asrwt>
<pdfrwt beam="1">  1        2 0.45940946E+00 0.53421745E+04</pdfrwt>
<pdfrwt beam="2">  1       -2 0.36757799E+00 0.53421745E+04</pdfrwt>
<totfact> 0.15140948E-02</totfact>
</mgrwt>
</event>
<event>
 6    1  0.1001928E-005  0.1118834E+04  0.7818608E-02  0.9187027E-01
         -2   -1    0    0    0  501 -0.00000000000E+00  0.00000000000E+00  0.61984194784E+03  0.61984194784E+03  0.00000000000E+00 0.  1.
          2   -1    0    0  501    0  0.00000000000E+00 -0.00000000000E+00 -0.50488215494E+03  0.50488215494E+03  0.00000000000E+00 0. -1.
         23    2    1    2    0    0 -0.41785036187E+03 -0.18665814559E+03 -0.25674887880E+03  0.53514160233E+03  0.10495884693E+03 0.  0.
         11    1    3    3    0    0 -0.28190829490E+03 -0.17467457054E+03 -0.16265389294E+03  0.36937755917E+03  0.00000000000E+00 0.  1.
        -11    1    3    3    0    0 -0.13594206696E+03 -0.11983575055E+02 -0.94094985856E+02  0.16576404316E+03  0.00000000000E+00 0. -1.
         22    1    1    2    0    0  0.41785036187E+03  0.18665814559E+03  0.37170867170E+03  0.58958250046E+03  0.00000000000E+00 0.  1.
<mgrwt>
<rscale>  0 0.11188336E+04</rscale>
<asrwt>0</asrwt>
<pdfrwt beam="1">  1        2 0.77674178E-01 0.11188336E+04</pdfrwt>
<pdfrwt beam="2">  1       -2 0.95360300E-01 0.11188336E+04</pdfrwt>
<totfact> 0.55802065E+01</totfact>
</mgrwt>
</event>
<event>
 6    1  0.1001928E-005  0.1524512E+04  0.7818608E-02  0.8868314E-01
          2   -1    0    0  501    0  0.00000000000E+00  0.00000000000E+00  0.31592069841E+04  0.31592069841E+04  0.00000000000E+00 0.  1.
         -2   -1    0    0    0  501 -0.00000000000E+00 -0.00000000000E+00 -0.18391780183E+03  0.18391780183E+03  0.00000000000E+00 0. -1.
         23    2    1    2    0    0 -0.42581559750E+03  0.19400349929E+03  0.18110275515E+03  0.51002858736E+03  0.91513229555E+02 0.  0.
         13    1    3    3    0    0 -0.31262464782E+03  0.14430052071E+03  0.17503641732E+03  0.38625711397E+03  0.00000000000E+00 0.  1.
        -13    1    3    3    0    0 -0.11319094968E+03  0.49702978576E+02  0.60663378264E+01  0.12377147339E+03  0.00000000000E+00 0. -1.
         22    1    1    2    0    0  0.42581559750E+03 -0.19400349929E+03  0.27941864271E+04  0.28330961986E+04  0.00000000000E+00 0.  1.
<mgrwt>
<rscale>  0 0.15245123E+04</rscale>
<asrwt>0</asrwt>
<pdfrwt beam="1">  1        2 0.48603180E+00 0.15245123E+04</pdfrwt>
<pdfrwt beam="2">  1       -2 0.28295049E-01 0.15245123E+04</pdfrwt>
<totfact> 0.15333530E+01</totfact>
</mgrwt>
</event>
<event>
 6    1  0.1001928E-005  0.2739159E+04  0.7818608E-02  0.8322410E-01
          1   -1    0    0  501    0  0.00000000000E+00  0.00000000000E+00  0.95553137693E+03  0.95553137693E+03  0.00000000000E+00 0. -1.
         -1   -1    0    0    0  501 -0.00000000000E+00 -0.00000000000E+00 -0.19630414851E+04  0.19630414851E+04  0.00000000000E+00 0.  1.
         23    2    1    2    0    0 -0.98929996021E+03 -0.93856273819E+03 -0.38779138049E+03  0.14206857747E+04  0.91386492331E+02 0.  0.
         13    1    3    3    0    0 -0.22597611679E+03 -0.26590966257E+03 -0.84785886070E+02  0.35911251786E+03  0.00000000000E+00 0.  1.
        -13    1    3    3    0    0 -0.76332384342E+03 -0.67265307561E+03 -0.30300549442E+03  0.10615732569E+04  0.00000000000E+00 0. -1.
         22    1    1    2    0    0  0.98929996021E+03  0.93856273819E+03 -0.61971872765E+03  0.14978870873E+04  0.00000000000E+00 0. -1.
<mgrwt>
<rscale>  0 0.27391588E+04</rscale>
<asrwt>0</asrwt>
<pdfrwt beam="1">  1        1 0.14700483E+00 0.27391588E+04</pdfrwt>
<pdfrwt beam="2">  1       -1 0.30200638E+00 0.27391588E+04</pdfrwt>
<totfact> 0.45758564E-01</totfact>
</mgrwt>
</event>
<event>
 6    1  0.1001928E-005  0.4276037E+04  0.7818608E-02  0.7951064E-01
          2   -1    0    0  501    0  0.00000000000E+00  0.00000000000E+00  0.20679076348E+04  0.20679076348E+04  0.00000000000E+00 0. -1.
         -2   -1    0    0    0  501 -0.00000000000E+00 -0.00000000000E+00 -0.22105062719E+04  0.22105062719E+04  0.00000000000E+00 0.  1.
         23    2    1    2    0    0  0.26193098770E+03  0.18527238053E+04  0.96163771696E+03  0.21057355443E+04  0.90452985741E+02 0.  0.
         13    1    3    3    0    0  0.24085780811E+03  0.15328607358E+04  0.76932726590E+03  0.17319177120E+04  0.00000000000E+00 0.  1.
        -13    1    3    3    0    0  0.21073179593E+02  0.31986306956E+03  0.19231045106E+03  0.37381783231E+03  0.00000000000E+00 0. -1.
         22    1    1    2    0    0 -0.26193098770E+03 -0.18527238053E+04 -0.11042363540E+04  0.21726783625E+04  0.00000000000E+00 0.  1.
<mgrwt>
<rscale>  0 0.42760369E+04</rscale>
<asrwt>0</asrwt>
<pdfrwt beam="1">  1        2 0.31813964E+00 0.42760369E+04</pdfrwt>
<pdfrwt beam="2">  1       -2 0.34007789E+00 0.42760369E+04</pdfrwt>
<totfact> 0.84847846E-02</totfact>
</mgrwt>
</event>
<event>
 6    1  0.1001928E-005  0.3655565E+04  0.7818608E-02  0.8077881E-01
          2   -1    0    0  501    0  0.00000000000E+00  0.00000000000E+00  0.18066734784E+04  0.18066734784E+04  0.00000000000E+00 0. -1.
         -2   -1    0    0    0  501 -0.00000000000E+00 -0.00000000000E+00 -0.18491380639E+04  0.18491380639E+04  0.00000000000E+00 0.  1.
         23    2    1    2    0    0  0.87501211274E+03  0.12212896967E+04  0.10178402668E+04  0.18169420254E+04  0.89915483102E+02 0.  0.
         11    1    3    3    0    0  0.68705608249E+03  0.89290539439E+03  0.76958135093E+03  0.13643978744E+04  0.00000000000E+00 0. -1.
        -11    1    3    3    0    0  0.18795603025E+03  0.32838430231E+03  0.24825891586E+03  0.45254415101E+03  0.00000000000E+00 0.  1.
         22    1    1    2    0    0 -0.87501211274E+03 -0.12212896967E+04 -0.10603048523E+04  0.18388695170E+04  0.00000000000E+00 0.  1.
<mgrwt>
<rscale>  0 0.36555649E+04</rscale>
<asrwt>0</asrwt>
<pdfrwt beam="1">  1        2 0.27794976E+00 0.36555649E+04</pdfrwt>
<pdfrwt beam="2">  1       -2 0.28448278E+00 0.36555649E+04</pdfrwt>
<totfact> 0.27448026E-01</totfact>
</mgrwt>
</event>
<event>
 6    1  0.1001928E-005  0.1611750E+04  0.7818608E-02  0.8813362E-01
          2   -1    0    0  501    0  0.00000000000E+00  0.00000000000E+00  0.14456515473E+04  0.14456515473E+04  0.00000000000E+00 0. -1.
         -2   -1    0    0    0  501 -0.00000000000E+00 -0.00000000000E+00 -0.44923302662E+03  0.44923302662E+03  0.00000000000E+00 0.  1.
         23    2    1    2    0    0 -0.29292346205E+03  0.25168170245E+03  0.13279553351E+04  0.13859007891E+04  0.90043273041E+02 0.  0.
         11    1    3    3    0    0 -0.11597907283E+03  0.12698820800E+03  0.45248470575E+03  0.48406565592E+03  0.00000000000E+00 0.  1.
        -11    1    3    3    0    0 -0.17694438923E+03  0.12469349444E+03  0.87547062940E+03  0.90183513314E+03  0.00000000000E+00 0. -1.
         22    1    1    2    0    0  0.29292346205E+03 -0.25168170245E+03 -0.33153681443E+03  0.50898378490E+03  0.00000000000E+00 0.  1.
<mgrwt>
<rscale>  0 0.16117499E+04</rscale>
<asrwt>0</asrwt>
<pdfrwt beam="1">  1        2 0.22240793E+00 0.16117499E+04</pdfrwt>
<pdfrwt beam="2">  1       -2 0.69112774E-01 0.16117499E+04</pdfrwt>
<totfact> 0.24954511E+01</totfact>
</mgrwt>
</event>
<event>
 6    1  0.1001928E-005  0.1161891E+04  0.7818608E-02  0.9146883E-01
         -2   -1    0    0    0  501 -0.00000000000E+00  0.00000000000E+00  0.23356451421E+03  0.23356451421E+03  0.00000000000E+00 0.  1.
          2   -1    0    0  501    0  0.00000000000E+00 -0.00000000000E+00 -0.14449879038E+04  0.14449879038E+04  0.00000000000E+00 0. -1.
         23    2    1    2    0    0 -0.15149594188E+03  0.41674542044E+03 -0.11435943273E+04  0.12299673675E+04  0.91564041826E+02 0.  0.
         11    1    3    3    0    0 -0.13248301249E+03  0.35984474325E+03 -0.10587814392E+04  0.11260808691E+04  0.00000000000E+00 0. -1.
        -11    1    3    3    0    0 -0.19012929388E+02  0.56900677188E+02 -0.84812888088E+02  0.10388649832E+03  0.00000000000E+00 0.  1.
         22    1    1    2    0    0  0.15149594188E+03 -0.41674542044E+03 -0.67829062286E+02  0.44858505053E+03  0.00000000000E+00 0.  1.
<mgrwt>
<rscale>  0 0.11618914E+04</rscale>
<asrwt>0</asrwt>
<pdfrwt beam="1">  1        2 0.22230583E+00 0.11618914E+04</pdfrwt>
<pdfrwt beam="2">  1       -2 0.35933002E-01 0.11618914E+04</pdfrwt>
<totfact> 0.98193922E+01</totfact>
</mgrwt>
</event>
<event>
 6    1  0.1001928E-005  0.1911740E+04  0.7818608E-02  0.8649035E-01
         -1   -1    0    0    0  501 -0.00000000000E+00  0.00000000000E+00  0.18073495103E+04  0.18073495103E+04  0.00000000000E+00 0. -1.
          1   -1    0    0  501    0  0.00000000000E+00 -0.00000000000E+00 -0.50553993984E+03  0.50553993984E+03  0.00000000000E+00 0.  1.
         23    2    1    2    0    0  0.38627590445E+03  0.48221190504E+03  0.15314325642E+04  0.16537505308E+04  0.88700190253E+02 0.  0.
         13    1    3    3    0    0  0.19750938754E+03  0.21646183416E+03  0.61942301779E+03  0.68523759295E+03  0.00000000000E+00 0. -1.
        -13    1    3    3    0    0  0.18876651690E+03  0.26575007088E+03  0.91200954636E+03  0.96851293782E+03  0.00000000000E+00 0.  1.
         22    1    1    2    0    0 -0.38627590445E+03 -0.48221190504E+03 -0.22962299374E+03  0.65913891933E+03  0.00000000000E+00 0.  1.
<mgrwt>
<rscale>  0 0.19117399E+04</rscale>
<asrwt>0</asrwt>
<pdfrwt beam="1">  1        1 0.77775376E-01 0.19117399E+04</pdfrwt>
<pdfrwt beam="2">  1       -1 0.27805377E+00 0.19117399E+04</pdfrwt>
<totfact> 0.18701438E+00</totfact>
</mgrwt>
</event>
<event>
 6    1  0.1001928E-005  0.3293269E+04  0.7818608E-02  0.8164610E-01
         -1   -1    0    0    0  501 -0.00000000000E+00  0.00000000000E+00  0.61150321240E+03  0.61150321240E+03  0.00000000000E+00 0.  1.
          1   -1    0    0  501    0  0.00000000000E+00 -0.00000000000E+00 -0.44339989825E+04  0.44339989825E+04  0.00000000000E+00 0. -1.
         23    2    1    2    0    0 -0.12289403022E+04  0.30901690516E+02 -0.35886756961E+04  0.37941345399E+04  0.74929793295E+02 0.  0.
         11    1    3    3    0    0 -0.75218019650E+03 -0.23182247905E+01 -0.22849932205E+04  0.24056131110E+04  0.00000000000E+00 0. -1.
        -11    1    3    3    0    0 -0.47676010575E+03  0.33219915307E+02 -0.13036824756E+04  0.13885214289E+04  0.00000000000E+00 0.  1.
         22    1    1    2    0    0  0.12289403022E+04 -0.30901690516E+02 -0.23382007396E+03  0.12513676550E+04  0.00000000000E+00 0.  1.
<mgrwt>
<rscale>  0 0.32932687E+04</rscale>
<asrwt>0</asrwt>
<pdfrwt beam="1">  1        1 0.68215371E+00 0.32932687E+04</pdfrwt>
<pdfrwt beam="2">  1       -1 0.94077414E-01 0.32932687E+04</pdfrwt>
<totfact> 0.34061911E-02</totfact>
</mgrwt>
</event>
<event>
 6    1  0.1001928E-005  0.1395521E+04  0.7818608E-02  0.8957067E-01
          2   -1    0    0  501    0  0.00000000000E+00  0.00000000000E+00  0.63054153161E+03  0.63054153161E+03  0.00000000000E+00 0. -1.
         -2   -1    0    0    0  501 -0.00000000000E+00 -0.00000000000E+00 -0.77214568483E+03  0.77214568483E+03  0.00000000000E+00 0.  1.
         23    2    1    2    0    0 -0.35433231206E+03  0.20661359077E+03  0.49258876541E+03  0.64741162350E+03  0.90871090966E+02 0.  0.
         13    1    3    3    0    0 -0.20758281540E+03  0.11630758077E+03  0.21500098192E+03  0.32069222133E+03  0.00000000000E+00 0. -1.
        -13    1    3    3    0    0 -0.14674949666E+03  0.90306009997E+02  0.27758778349E+03  0.32671940217E+03  0.00000000000E+00 0.  1.
         22    1    1    2    0    0  0.35433231206E+03 -0.20661359077E+03 -0.63419291863E+03  0.75527559294E+03  0.00000000000E+00 0.  1.
<mgrwt>
<rscale>  0 0.13955213E+04</rscale>
<asrwt>0</asrwt>
<pdfrwt beam="1">  1        2 0.97006390E-01 0.13955213E+04</pdfrwt>
<pdfrwt beam="2">  1       -2 0.11879164E+00 0.13955213E+04</pdfrwt>
<totfact> 0.24744273E+01</totfact>
</mgrwt>
</event>
<event>
 6    1  0.1001928E-005  0.1426025E+04  0.7818608E-02  0.8935193E-01
          1   -1    0    0  501    0  0.00000000000E+00  0.00000000000E+00  0.67367678457E+03  0.67367678457E+03  0.00000000000E+00 0. -1.
         -1   -1    0    0    0  501 -0.00000000000E+00 -0.00000000000E+00 -0.75464522978E+03  0.75464522978E+03  0.00000000000E+00 0.  1.
         23    2    1    2    0    0  0.63042334183E+03  0.29745485377E+03  0.94046179451E+02  0.70961268590E+03  0.93768332438E+02 0.  0.
         13    1    3    3    0    0  0.55002832449E+03  0.23633829704E+03  0.54398980807E+02  0.60112078445E+03  0.00000000000E+00 0. -1.
        -13    1    3    3    0    0  0.80395017342E+02  0.61116556731E+02  0.39647198644E+02  0.10849190145E+03  0.00000000000E+00 0.  1.
         22    1    1    2    0    0 -0.63042334183E+03 -0.29745485377E+03 -0.17501462467E+03  0.71870932845E+03  0.00000000000E+00 0. -1.
<mgrwt>
<rscale>  0 0.14260252E+04</rscale>
<asrwt>0</asrwt>
<pdfrwt beam="1">  1        1 0.10364258E+00 0.14260252E+04</pdfrwt>
<pdfrwt beam="2">  1       -1 0.11609927E+00 0.14260252E+04</pdfrwt>
<totfact> 0.18854125E+01</totfact>
</mgrwt>
</event>
<event>
 6    1  0.1001928E-005  0.2181443E+04  0.7818608E-02  0.8526192E-01
          1   -1    0    0  501    0  0.00000000000E+00  0.00000000000E+00  0.31034453670E+04  0.31034453670E+04  0.00000000000E+00 0. -1.
         -1   -1    0    0    0  501 -0.00000000000E+00 -0.00000000000E+00 -0.38333943095E+03  0.38333943095E+03  0.00000000000E+00 0.  1.
         23    2    1    2    0    0 -0.53063355683E+03  0.94234492809E+03  0.11589913671E+04  0.15876627291E+04  0.88464778973E+02 0.  0.
         13    1    3    3    0    0 -0.36212995465E+03  0.59272894128E+03  0.79327696717E+03  0.10543974813E+04  0.00000000000E+00 0.  1.
        -13    1    3    3    0    0 -0.16850360218E+03  0.34961598681E+03  0.36571439995E+03  0.53326524780E+03  0.00000000000E+00 0. -1.
         22    1    1    2    0    0  0.53063355683E+03 -0.94234492809E+03  0.15611145689E+04  0.18991220688E+04  0.00000000000E+00 0.  1.
<mgrwt>
<rscale>  0 0.21814426E+04</rscale>
<asrwt>0</asrwt>
<pdfrwt beam="1">  1        1 0.47745312E+00 0.21814426E+04</pdfrwt>
<pdfrwt beam="2">  1       -1 0.58975299E-01 0.21814426E+04</pdfrwt>
<totfact> 0.13368913E+00</totfact>
</mgrwt>
</event>
<event>
 6    1  0.1001928E-005  0.2139658E+04  0.7818608E-02  0.8543972E-01
          1   -1    0    0  501    0  0.00000000000E+00  0.00000000000E+00  0.13040307387E+04  0.13040307387E+04  0.00000000000E+00 0. -1.
         -1   -1    0    0    0  501 -0.00000000000E+00 -0.00000000000E+00 -0.87768952175E+03  0.87768952175E+03  0.00000000000E+00 0.  1.
         23    2    1    2    0    0  0.23024418778E+03 -0.10395120571E+04  0.13232472879E+03  0.10771645135E+04  0.95790670801E+02 0.  0.
         13    1    3    3    0    0  0.72821727484E+02 -0.17324615256E+03  0.93146957636E+01  0.18815949864E+03  0.00000000000E+00 0. -1.
        -13    1    3    3    0    0  0.15742246029E+03 -0.86626590450E+03  0.12301003303E+03  0.88900501491E+03  0.00000000000E+00 0.  1.
         22    1    1    2    0    0 -0.23024418778E+03  0.10395120571E+04  0.29401648821E+03  0.11045557469E+04  0.00000000000E+00 0.  1.
<mgrwt>
<rscale>  0 0.21396580E+04</rscale>
<asrwt>0</asrwt>
<pdfrwt beam="1">  1        1 0.20062011E+00 0.21396580E+04</pdfrwt>
<pdfrwt beam="2">  1       -1 0.13502916E+00 0.21396580E+04</pdfrwt>
<totfact> 0.37918403E+00</totfact>
</mgrwt>
</event>
<event>
 6    1  0.1001928E-005  0.2033691E+04  0.7818608E-02  0.8591029E-01
          2   -1    0    0  501    0  0.00000000000E+00  0.00000000000E+00  0.97292309877E+03  0.97292309877E+03  0.00000000000E+00 0.  1.
         -2   -1    0    0    0  501 -0.00000000000E+00 -0.00000000000E+00 -0.10627503234E+04  0.10627503234E+04  0.00000000000E+00 0. -1.
         23    2    1    2    0    0  0.67737373081E+03 -0.50241141807E+03 -0.60981988850E+03  0.10448935400E+04  0.93111811394E+02 0.  0.
         13    1    3    3    0    0  0.16178018354E+03 -0.11420645230E+03 -0.96724208904E+02  0.22038946009E+03  0.00000000000E+00 0.  1.
        -13    1    3    3    0    0  0.51559354727E+03 -0.38820496577E+03 -0.51309567960E+03  0.82450407995E+03  0.00000000000E+00 0. -1.
         22    1    1    2    0    0 -0.67737373081E+03  0.50241141807E+03  0.51999266392E+03  0.99077988207E+03  0.00000000000E+00 0. -1.
<mgrwt>
<rscale>  0 0.20336906E+04</rscale>
<asrwt>0</asrwt>
<pdfrwt beam="1">  1        2 0.14968048E+00 0.20336906E+04</pdfrwt>
<pdfrwt beam="2">  1       -2 0.16350005E+00 0.20336906E+04</pdfrwt>
<totfact> 0.57677980E+00</totfact>
</mgrwt>
</event>
<event>
 6    1  0.1001928E-005  0.3161806E+04  0.7818608E-02  0.8198978E-01
          2   -1    0    0  501    0  0.00000000000E+00  0.00000000000E+00  0.19789497765E+04  0.19789497765E+04  0.00000000000E+00 0. -1.
         -2   -1    0    0    0  501 -0.00000000000E+00 -0.00000000000E+00 -0.12629195227E+04  0.12629195227E+04  0.00000000000E+00 0.  1.
         23    2    1    2    0    0 -0.13378372746E+04  0.83692256347E+03  0.42973908626E+03  0.16380580313E+04  0.91161840243E+02 0.  0.
         11    1    3    3    0    0 -0.94137912930E+03  0.57481913861E+03  0.34161554285E+03  0.11546916845E+04  0.00000000000E+00 0. -1.
        -11    1    3    3    0    0 -0.39645814531E+03  0.26210342486E+03  0.88123543403E+02  0.48336634679E+03  0.00000000000E+00 0.  1.
         22    1    1    2    0    0  0.13378372746E+04 -0.83692256347E+03  0.28629116756E+03  0.16038112679E+04  0.00000000000E+00 0.  1.
<mgrwt>
<rscale>  0 0.31618060E+04</rscale>
<asrwt>0</asrwt>
<pdfrwt beam="1">  1        2 0.30445381E+00 0.31618060E+04</pdfrwt>
<pdfrwt beam="2">  1       -2 0.19429531E+00 0.31618060E+04</pdfrwt>
<totfact> 0.84122365E-01</totfact>
</mgrwt>
</event>
<event>
 6    1  0.1001928E-005  0.9794445E+03  0.7818608E-02  0.9331381E-01
          1   -1    0    0  501    0  0.00000000000E+00  0.00000000000E+00  0.14717332648E+04  0.14717332648E+04  0.00000000000E+00 0. -1.
         -1   -1    0    0    0  501 -0.00000000000E+00 -0.00000000000E+00 -0.16295609253E+03  0.16295609253E+03  0.00000000000E+00 0.  1.
         23    2    1    2    0    0  0.88728939540E+02 -0.40590429748E+03  0.10792408886E+04  0.11600125947E+04  0.90759027010E+02 0.  0.
         13    1    3    3    0    0  0.84865100541E+02 -0.25845584068E+03  0.60456934837E+03  0.66295218822E+03  0.00000000000E+00 0. -1.
        -13    1    3    3    0    0  0.38638389992E+01 -0.14744845679E+03  0.47467154018E+03  0.49706040651E+03  0.00000000000E+00 0.  1.
         22    1    1    2    0    0 -0.88728939540E+02  0.40590429748E+03  0.22953628375E+03  0.47467676263E+03  0.00000000000E+00 0.  1.
<mgrwt>
<rscale>  0 0.97944454E+03</rscale>
<asrwt>0</asrwt>
<pdfrwt beam="1">  1        1 0.22642049E+00 0.97944454E+03</pdfrwt>
<pdfrwt beam="2">  1       -1 0.25070169E-01 0.97944454E+03</pdfrwt>
<totfact> 0.95764216E+01</totfact>
</mgrwt>
</event>
<event>
 6    1  0.1001928E-005  0.3248198E+04  0.7818608E-02  0.8176203E-01
         -2   -1    0    0    0  501 -0.00000000000E+00  0.00000000000E+00  0.22429320030E+04  0.22429320030E+04  0.00000000000E+00 0.  1.
          2   -1    0    0  501    0  0.00000000000E+00 -0.00000000000E+00 -0.11760046060E+04  0.11760046060E+04  0.00000000000E+00 0. -1.
         23    2    1    2    0    0 -0.24360911307E+03  0.15010331537E+04 -0.61827613701E+02  0.15251219923E+04  0.98633205567E+02 0.  0.
         11    1    3    3    0    0 -0.26970388905E+02  0.43941066339E+03 -0.26879426292E+02  0.44105740730E+03  0.00000000000E+00 0. -1.
        -11    1    3    3    0    0 -0.21663872416E+03  0.10616224903E+04 -0.34948187409E+02  0.10840645850E+04  0.00000000000E+00 0.  1.
         22    1    1    2    0    0  0.24360911307E+03 -0.15010331537E+04  0.11287550107E+04  0.18938146167E+04  0.00000000000E+00 0.  1.
<mgrwt>
<rscale>  0 0.32481985E+04</rscale>
<asrwt>0</asrwt>
<pdfrwt beam="1">  1        2 0.18092379E+00 0.32481985E+04</pdfrwt>
<pdfrwt beam="2">  1       -2 0.34506646E+00 0.32481985E+04</pdfrwt>
<totfact> 0.27434284E-01</totfact>
</mgrwt>
</event>
<event>
 6    1  0.1001928E-005  0.2814154E+04  0.7818608E-02  0.8298887E-01
          1   -1    0    0  501    0  0.00000000000E+00  0.00000000000E+00  0.25940977561E+04  0.25940977561E+04  0.00000000000E+00 0. -1.
         -1   -1    0    0    0  501 -0.00000000000E+00 -0.00000000000E+00 -0.76321961890E+03  0.76321961890E+03  0.00000000000E+00 0.  1.
         23    2    1    2    0    0 -0.81932907831E+03  0.10692070437E+04  0.13955115003E+04  0.19416733698E+04  0.90217994774E+02 0.  0.
         13    1    3    3    0    0 -0.16534578991E+03  0.25683906442E+03  0.35784460535E+03  0.47048729720E+03  0.00000000000E+00 0. -1.
        -13    1    3    3    0    0 -0.65398328839E+03  0.81236797933E+03  0.10376668950E+04  0.14711860726E+04  0.00000000000E+00 0.  1.
         22    1    1    2    0    0  0.81932907831E+03 -0.10692070437E+04  0.43536663693E+03  0.14156440052E+04  0.00000000000E+00 0. -1.
<mgrwt>
<rscale>  0 0.28141544E+04</rscale>
<asrwt>0</asrwt>
<pdfrwt beam="1">  1        1 0.39909196E+00 0.28141544E+04</pdfrwt>
<pdfrwt beam="2">  1       -1 0.11741840E+00 0.28141544E+04</pdfrwt>
<totfact> 0.65721472E-01</totfact>
</mgrwt>
</event>
<event>
 6    1  0.1001928E-005  0.3507146E+04  0.7818608E-02  0.8112099E-01
          2   -1    0    0  501    0  0.00000000000E+00  0.00000000000E+00  0.28076362267E+04  0.28076362267E+04  0.00000000000E+00 0.  1.
         -2   -1    0    0    0  501 -0.00000000000E+00 -0.00000000000E+00 -0.10952335683E+04  0.10952335683E+04  0.00000000000E+00 0. -1.
         23    2    1    2    0    0  0.10815027990E+04  0.87033860609E+03  0.20469719439E+04  0.24749082408E+04  0.89101444292E+02 0.  0.
         11    1    3    3    0    0  0.80295490162E+03  0.69452656938E+03  0.15688360159E+04  0.18942941098E+04  0.00000000000E+00 0.  1.
        -11    1    3    3    0    0  0.27854789740E+03  0.17581203671E+03  0.47813592802E+03  0.58061413096E+03  0.00000000000E+00 0. -1.
         22    1    1    2    0    0 -0.10815027990E+04 -0.87033860609E+03 -0.33456928553E+03  0.14279615542E+04  0.00000000000E+00 0. -1.
<mgrwt>
<rscale>  0 0.35071455E+04</rscale>
<asrwt>0</asrwt>
<pdfrwt beam="1">  1        2 0.43194403E+00 0.35071455E+04</pdfrwt>
<pdfrwt beam="2">  1       -2 0.16849747E+00 0.35071455E+04</pdfrwt>
<totfact> 0.41029407E-01</totfact>
</mgrwt>
</event>
<event>
 6    1  0.1001928E-005  0.6352842E+03  0.7818608E-02  0.9834791E-01
          2   -1    0    0  501    0  0.00000000000E+00  0.00000000000E+00  0.92994266012E+03  0.92994266012E+03  0.00000000000E+00 0. -1.
         -2   -1    0    0    0  501 -0.00000000000E+00 -0.00000000000E+00 -0.10849754666E+03  0.10849754666E+03  0.00000000000E+00 0.  1.
         23    2    1    2    0    0 -0.19820211032E+03 -0.25102290233E+02  0.28815619350E+02  0.22102004772E+03  0.90029551064E+02 0.  0.
         11    1    3    3    0    0 -0.11774076799E+03  0.30101538849E+02  0.17729063025E+02  0.12281413096E+03  0.00000000000E+00 0.  1.
        -11    1    3    3    0    0 -0.80461342326E+02 -0.55203829083E+02  0.11086556325E+02  0.98205916754E+02  0.00000000000E+00 0. -1.
         22    1    1    2    0    0  0.19820211032E+03  0.25102290233E+02  0.79262949411E+03  0.81742015906E+03  0.00000000000E+00 0. -1.
<mgrwt>
<rscale>  0 0.63528418E+03</rscale>
<asrwt>0</asrwt>
<pdfrwt beam="1">  1        2 0.14306810E+00 0.63528418E+03</pdfrwt>
<pdfrwt beam="2">  1       -2 0.16691931E-01 0.63528418E+03</pdfrwt>
<totfact> 0.82316749E+02</totfact>
</mgrwt>
</event>
<event>
 6    1  0.1001928E-005  0.4019883E+04  0.7818608E-02  0.8000547E-01
         -2   -1    0    0    0  501 -0.00000000000E+00  0.00000000000E+00  0.16384590016E+04  0.16384590016E+04  0.00000000000E+00 0.  1.
          2   -1    0    0  501    0  0.00000000000E+00 -0.00000000000E+00 -0.24656495562E+04  0.24656495562E+04  0.00000000000E+00 0. -1.
         23    2    1    2    0    0 -0.63613749937E+03 -0.50693449670E+03 -0.22891591961E+04  0.24310856019E+04  0.90960850452E+02 0.  0.
         13    1    3    3    0    0 -0.48855334104E+03 -0.38951899252E+03 -0.16365317982E+04  0.17517550454E+04  0.00000000000E+00 0.  1.
        -13    1    3    3    0    0 -0.14758415833E+03 -0.11741550419E+03 -0.65262739797E+03  0.67933055650E+03  0.00000000000E+00 0. -1.
         22    1    1    2    0    0  0.63613749937E+03  0.50693449670E+03  0.14619686416E+04  0.16730229559E+04  0.00000000000E+00 0.  1.
<mgrwt>
<rscale>  0 0.40198834E+04</rscale>
<asrwt>0</asrwt>
<pdfrwt beam="1">  1        2 0.37933070E+00 0.40198834E+04</pdfrwt>
<pdfrwt beam="2">  1       -2 0.25207061E+00 0.40198834E+04</pdfrwt>
<totfact> 0.17912022E-01</totfact>
</mgrwt>
</event>
<event>
 6    1  0.1001928E-005  0.8043809E+03  0.7818608E-02  0.9553697E-01
         -1   -1    0    0    0  501 -0.00000000000E+00  0.00000000000E+00  0.57481724845E+03  0.57481724845E+03  0.00000000000E+00 0.  1.
          1   -1    0    0  501    0  0.00000000000E+00 -0.00000000000E+00 -0.28140625391E+03  0.28140625391E+03  0.00000000000E+00 0. -1.
         23    2    1    2    0    0 -0.25755448767E+03  0.14446663163E+03  0.43091848257E+03  0.53047324368E+03  0.92229072770E+02 0.  0.
         13    1    3    3    0    0 -0.10993531199E+03  0.90384483340E+02  0.13913916632E+03  0.19903475891E+03  0.00000000000E+00 0.  1.
        -13    1    3    3    0    0 -0.14761917568E+03  0.54082148292E+02  0.29177931625E+03  0.33143848477E+03  0.00000000000E+00 0. -1.
         22    1    1    2    0    0  0.25755448767E+03 -0.14446663163E+03 -0.13750748803E+03  0.32575025869E+03  0.00000000000E+00 0. -1.
<mgrwt>
<rscale>  0 0.80438093E+03</rscale>
<asrwt>0</asrwt>
<pdfrwt beam="1">  1        1 0.43293270E-01 0.80438093E+03</pdfrwt>
<pdfrwt beam="2">  1       -1 0.88433423E-01 0.80438093E+03</pdfrwt>
<totfact> 0.12116805E+02</totfact>
</mgrwt>
</event>
<event>
 6    1  0.1001928E-005  0.1273962E+04  0.7818608E-02  0.9050472E-01
          1   -1    0    0  501    0  0.00000000000E+00  0.00000000000E+00  0.80494589109E+03  0.80494589109E+03  0.00000000000E+00 0. -1.
         -1   -1    0    0    0  501 -0.00000000000E+00 -0.00000000000E+00 -0.50406448718E+03  0.50406448718E+03  0.00000000000E+00 0.  1.
         23    2    1    2    0    0 -0.21555015541E+02  0.26010819087E+03  0.74489280079E+03  0.79396959327E+03  0.86032207411E+02 0.  0.
         11    1    3    3    0    0 -0.23541859792E+02  0.26328926465E+03  0.68926048371E+03  0.73821099317E+03  0.00000000000E+00 0.  1.
        -11    1    3    3    0    0  0.19868442509E+01 -0.31810737785E+01  0.55632317084E+02  0.55758600095E+02  0.00000000000E+00 0. -1.
         22    1    1    2    0    0  0.21555015541E+02 -0.26010819087E+03 -0.44401139689E+03  0.51504078500E+03  0.00000000000E+00 0.  1.
<mgrwt>
<rscale>  0 0.12739618E+04</rscale>
<asrwt>0</asrwt>
<pdfrwt beam="1">  1        1 0.12383783E+00 0.12739618E+04</pdfrwt>
<pdfrwt beam="2">  1       -1 0.77548382E-01 0.12739618E+04</pdfrwt>
<totfact> 0.35926768E+01</totfact>
</mgrwt>
</event>
<event>
 6    1  0.1001928E-005  0.9219474E+03  0.7818608E-02  0.9398554E-01
         -2   -1    0    0    0  501 -0.00000000000E+00  0.00000000000E+00  0.78766329825E+02  0.78766329825E+02  0.00000000000E+00 0.  1.
          2   -1    0    0  501    0  0.00000000000E+00 -0.00000000000E+00 -0.26978119937E+04  0.26978119937E+04  0.00000000000E+00 0. -1.
         23    2    1    2    0    0 -0.36013466522E+02 -0.39062826434E+03 -0.20274325212E+04  0.20667237460E+04  0.83528459360E+02 0.  0.
         11    1    3    3    0    0 -0.89692046391E+01 -0.97607538952E+02 -0.71626794388E+03  0.72294359788E+03  0.00000000000E+00 0.  1.
        -11    1    3    3    0    0 -0.27044261882E+02 -0.29302072539E+03 -0.13111645773E+04  0.13437801481E+04  0.00000000000E+00 0. -1.
         22    1    1    2    0    0  0.36013466522E+02  0.39062826434E+03 -0.59161314270E+03  0.70985457756E+03  0.00000000000E+00 0.  1.
<mgrwt>
<rscale>  0 0.92194739E+03</rscale>
<asrwt>0</asrwt>
<pdfrwt beam="1">  1        2 0.41504798E+00 0.92194739E+03</pdfrwt>
<pdfrwt beam="2">  1       -2 0.12117897E-01 0.92194739E+03</pdfrwt>
<totfact> 0.13684381E+02</totfact>
</mgrwt>
</event>
<event>
 6    1  0.1001928E-005  0.1080364E+04  0.7818608E-02  0.9224545E-01
         -2   -1    0    0    0  501 -0.00000000000E+00  0.00000000000E+00  0.14940791202E+03  0.14940791202E+03  0.00000000000E+00 0.  1.
          2   -1    0    0  501    0  0.00000000000E+00 -0.00000000000E+00 -0.19530185698E+04  0.19530185698E+04  0.00000000000E+00 0. -1.
         23    2    1    2    0    0  0.37467478554E+03  0.10814525223E+03 -0.18939161403E+03  0.44177007193E+03  0.84941288505E+02 0.  0.
         11    1    3    3    0    0  0.17679487499E+03  0.94623810487E+02 -0.87433578503E+02  0.21875722613E+03  0.00000000000E+00 0. -1.
        -11    1    3    3    0    0  0.19787991055E+03  0.13521441748E+02 -0.10195803552E+03  0.22301284581E+03  0.00000000000E+00 0.  1.
         22    1    1    2    0    0 -0.37467478554E+03 -0.10814525223E+03 -0.16142190438E+04  0.16606564099E+04  0.00000000000E+00 0. -1.
<mgrwt>
<rscale>  0 0.10803637E+04</rscale>
<asrwt>0</asrwt>
<pdfrwt beam="1">  1        2 0.30046438E+00 0.10803637E+04</pdfrwt>
<pdfrwt beam="2">  1       -2 0.22985834E-01 0.10803637E+04</pdfrwt>
<totfact> 0.11797356E+02</totfact>
</mgrwt>
</event>
<event>
 6    1  0.1001928E-005  0.2655300E+04  0.7818608E-02  0.8349656E-01
          2   -1    0    0  501    0  0.00000000000E+00  0.00000000000E+00  0.13226126281E+04  0.13226126281E+04  0.00000000000E+00 0. -1.
         -2   -1    0    0    0  501 -0.00000000000E+00 -0.00000000000E+00 -0.13327066016E+04  0.13327066016E+04  0.00000000000E+00 0.  1.
         23    2    1    2    0    0 -0.21529281507E+03  0.12217321053E+04 -0.47378182747E+03  0.13309375779E+04  0.89136315997E+02 0.  0.
         13    1    3    3    0    0 -0.88039413518E+02  0.71161683544E+03 -0.24740760230E+03  0.75852487137E+03  0.00000000000E+00 0. -1.
        -13    1    3    3    0    0 -0.12725340155E+03  0.51011526990E+03 -0.22637422517E+03  0.57241270654E+03  0.00000000000E+00 0.  1.
         22    1    1    2    0    0  0.21529281507E+03 -0.12217321053E+04  0.46368785398E+03  0.13243816517E+04  0.00000000000E+00 0.  1.
<mgrwt>
<rscale>  0 0.26553000E+04</rscale>
<asrwt>0</asrwt>
<pdfrwt beam="1">  1        2 0.20347887E+00 0.26553000E+04</pdfrwt>
<pdfrwt beam="2">  1       -2 0.20503178E+00 0.26553000E+04</pdfrwt>
<totfact> 0.17412834E+00</totfact>
</mgrwt>
</event>
<event>
 6    1  0.1001928E-005  0.1969911E+04  0.7818608E-02  0.8620819E-01
          2   -1    0    0  501    0  0.00000000000E+00  0.00000000000E+00  0.18433094201E+04  0.18433094201E+04  0.00000000000E+00 0.  1.
         -2   -1    0    0    0  501 -0.00000000000E+00 -0.00000000000E+00 -0.52630168355E+03  0.52630168355E+03  0.00000000000E+00 0. -1.
         23    2    1    2    0    0 -0.93106287298E+03  0.31046764694E+03  0.72347108507E+03  0.12226350839E+04  0.90321116815E+02 0.  0.
         11    1    3    3    0    0 -0.53942780470E+03  0.21256521071E+03  0.46570186158E+03  0.74366965056E+03  0.00000000000E+00 0.  1.
        -11    1    3    3    0    0 -0.39163506828E+03  0.97902436225E+02  0.25776922349E+03  0.47896543331E+03  0.00000000000E+00 0. -1.
         22    1    1    2    0    0  0.93106287298E+03 -0.31046764694E+03  0.59353665143E+03  0.11469760197E+04  0.00000000000E+00 0. -1.
<mgrwt>
<rscale>  0 0.19699105E+04</rscale>
<asrwt>0</asrwt>
<pdfrwt beam="1">  1        2 0.28358606E+00 0.19699105E+04</pdfrwt>
<pdfrwt beam="2">  1       -2 0.80969491E-01 0.19699105E+04</pdfrwt>
<totfact> 0.10227797E+01</totfact>
</mgrwt>
</event>
<event>
 6    1  0.1001928E-005  0.2726458E+04  0.7818608E-02  0.8326471E-01
          2   -1    0    0  501    0  0.00000000000E+00  0.00000000000E+00  0.40278892620E+04  0.40278892620E+04  0.00000000000E+00 0. -1.
         -2   -1    0    0    0  501 -0.00000000000E+00 -0.00000000000E+00 -0.46138143605E+03  0.46138143605E+03  0.00000000000E+00 0.  1.
         23    2    1    2    0    0 -0.11263823497E+04  0.75933157044E+03  0.16299852390E+04  0.21238021691E+04  0.91444751822E+02 0.  0.
         13    1    3    3    0    0 -0.88430156467E+03  0.60574968698E+03  0.13409145076E+04  0.17166751752E+04  0.00000000000E+00 0. -1.
        -13    1    3    3    0    0 -0.24208078502E+03  0.15358188345E+03  0.28907073141E+03  0.40712699390E+03  0.00000000000E+00 0.  1.
         22    1    1    2    0    0  0.11263823497E+04 -0.75933157044E+03  0.19365225870E+04  0.23654685290E+04  0.00000000000E+00 0.  1.
<mgrwt>
<rscale>  0 0.27264580E+04</rscale>
<asrwt>0</asrwt>
<pdfrwt beam="1">  1        2 0.61967525E+00 0.27264580E+04</pdfrwt>
<pdfrwt beam="2">  1       -2 0.70981762E-01 0.27264580E+04</pdfrwt>
<totfact> 0.51318908E-01</totfact>
</mgrwt>
</event>
<event>
 6    1  0.1001928E-005  0.1683741E+04  0.7818608E-02  0.8770692E-01
          1   -1    0    0  501    0  0.00000000000E+00  0.00000000000E+00  0.23123761221E+04  0.23123761221E+04  0.00000000000E+00 0. -1.
         -1   -1    0    0    0  501 -0.00000000000E+00 -0.00000000000E+00 -0.30650114350E+03  0.30650114350E+03  0.00000000000E+00 0.  1.
         23    2    1    2    0    0 -0.16608758693E+03 -0.48614028867E+03  0.20383585030E+04  0.21041223277E+04  0.92238367654E+02 0.  0.
         11    1    3    3    0    0 -0.15007985310E+03 -0.30884113924E+03  0.12960122822E+04  0.13407291476E+04  0.00000000000E+00 0.  1.
        -11    1    3    3    0    0 -0.16007733828E+02 -0.17729914943E+03  0.74234622079E+03  0.76339318012E+03  0.00000000000E+00 0. -1.
         22    1    1    2    0    0  0.16608758693E+03  0.48614028867E+03 -0.32483524310E+02  0.51475493796E+03  0.00000000000E+00 0.  1.
<mgrwt>
<rscale>  0 0.16837410E+04</rscale>
<asrwt>0</asrwt>
<pdfrwt beam="1">  1        1 0.35575016E+00 0.16837410E+04</pdfrwt>
<pdfrwt beam="2">  1       -1 0.47154024E-01 0.16837410E+04</pdfrwt>
<totfact> 0.78091739E+00</totfact>
</mgrwt>
</event>
<event>
 6    1  0.1001928E-005  0.1796935E+04  0.7818608E-02  0.8707931E-01
         -1   -1    0    0    0  501 -0.00000000000E+00  0.00000000000E+00  0.16669134222E+04  0.16669134222E+04  0.00000000000E+00 0.  1.
          1   -1    0    0  501    0  0.00000000000E+00 -0.00000000000E+00 -0.48427436787E+03  0.48427436787E+03  0.00000000000E+00 0. -1.
         23    2    1    2    0    0 -0.68505198877E+03  0.57410854973E+03  0.67092035227E+03  0.11212592080E+04  0.90505459553E+02 0.  0.
         13    1    3    3    0    0 -0.52959746305E+03  0.42799973132E+03  0.55503626996E+03  0.87847737811E+03  0.00000000000E+00 0.  1.
        -13    1    3    3    0    0 -0.15545452571E+03  0.14610881842E+03  0.11588408230E+03  0.24278182987E+03  0.00000000000E+00 0. -1.
         22    1    1    2    0    0  0.68505198877E+03 -0.57410854973E+03  0.51171870208E+03  0.10299285821E+04  0.00000000000E+00 0.  1.
<mgrwt>
<rscale>  0 0.17969345E+04</rscale>
<asrwt>0</asrwt>
<pdfrwt beam="1">  1        1 0.74503750E-01 0.17969345E+04</pdfrwt>
<pdfrwt beam="2">  1       -1 0.25644822E+00 0.17969345E+04</pdfrwt>
<totfact> 0.27671881E+00</totfact>
</mgrwt>
</event>
<event>
 6    1  0.1001928E-005  0.2751871E+04  0.7818608E-02  0.8318368E-01
          1   -1    0    0  501    0  0.00000000000E+00  0.00000000000E+00  0.34776435968E+04  0.34776435968E+04  0.00000000000E+00 0. -1.
         -1   -1    0    0    0  501 -0.00000000000E+00 -0.00000000000E+00 -0.54439133973E+03  0.54439133973E+03  0.00000000000E+00 0.  1.
         23    2    1    2    0    0  0.32480800985E+02 -0.11530731477E+04  0.37612884237E+03  0.12167697361E+04  0.91776893934E+02 0.  0.
         11    1    3    3    0    0 -0.29967020190E+01 -0.83844437364E+03  0.23999247768E+03  0.87212059789E+03  0.00000000000E+00 0. -1.
        -11    1    3    3    0    0  0.35477503004E+02 -0.31462877410E+03  0.13613636470E+03  0.34464913826E+03  0.00000000000E+00 0.  1.
         22    1    1    2    0    0 -0.32480800985E+02  0.11530731477E+04  0.25571234147E+04  0.28052652004E+04  0.00000000000E+00 0. -1.
<mgrwt>
<rscale>  0 0.27518714E+04</rscale>
<asrwt>0</asrwt>
<pdfrwt beam="1">  1        1 0.53502208E+00 0.27518714E+04</pdfrwt>
<pdfrwt beam="2">  1       -1 0.83752516E-01 0.27518714E+04</pdfrwt>
<totfact> 0.31973173E-01</totfact>
</mgrwt>
</event>
<event>
 6    1  0.1001928E-005  0.1571592E+04  0.7818608E-02  0.8838192E-01
          3   -1    0    0  501    0  0.00000000000E+00  0.00000000000E+00  0.23063151049E+03  0.23063151049E+03  0.00000000000E+00 0. -1.
         -3   -1    0    0    0  501 -0.00000000000E+00 -0.00000000000E+00 -0.26773259165E+04  0.26773259165E+04  0.00000000000E+00 0.  1.
         23    2    1    2    0    0  0.45963770168E+03  0.63293957048E+03 -0.12950513579E+04  0.15157789087E+04  0.92457361039E+02 0.  0.
         11    1    3    3    0    0  0.36389632253E+03  0.43637523324E+03 -0.90326435782E+03  0.10671131045E+04  0.00000000000E+00 0. -1.
        -11    1    3    3    0    0  0.95741379146E+02  0.19656433724E+03 -0.39178700012E+03  0.44866580416E+03  0.00000000000E+00 0.  1.
         22    1    1    2    0    0 -0.45963770168E+03 -0.63293957048E+03 -0.11516430481E+04  0.13921785183E+04  0.00000000000E+00 0. -1.
<mgrwt>
<rscale>  0 0.15715925E+04</rscale>
<asrwt>0</asrwt>
<pdfrwt beam="1">  1        3 0.35481772E-01 0.15715925E+04</pdfrwt>
<pdfrwt beam="2">  1       -3 0.41189628E+00 0.15715925E+04</pdfrwt>
<totfact> 0.18169938E-01</totfact>
</mgrwt>
</event>
<event>
 6    1  0.1001928E-005  0.2509827E+04  0.7818608E-02  0.8399493E-01
          1   -1    0    0  501    0  0.00000000000E+00  0.00000000000E+00  0.28889108688E+04  0.28889108688E+04  0.00000000000E+00 0. -1.
         -1   -1    0    0    0  501 -0.00000000000E+00 -0.00000000000E+00 -0.54512177238E+03  0.54512177238E+03  0.00000000000E+00 0.  1.
         23    2    1    2    0    0  0.43559765533E+03 -0.11673477886E+04  0.98325316822E+03  0.15891737878E+04  0.78995937699E+02 0.  0.
         11    1    3    3    0    0  0.30022053807E+03 -0.89763802386E+03  0.73384568618E+03  0.11976710251E+04  0.00000000000E+00 0.  1.
        -11    1    3    3    0    0  0.13537711726E+03 -0.26970976474E+03  0.24940748204E+03  0.39150276266E+03  0.00000000000E+00 0. -1.
         22    1    1    2    0    0 -0.43559765533E+03  0.11673477886E+04  0.13605359282E+04  0.18448588533E+04  0.00000000000E+00 0. -1.
<mgrwt>
<rscale>  0 0.25098273E+04</rscale>
<asrwt>0</asrwt>
<pdfrwt beam="1">  1        1 0.44444782E+00 0.25098273E+04</pdfrwt>
<pdfrwt beam="2">  1       -1 0.83864890E-01 0.25098273E+04</pdfrwt>
<totfact> 0.90024202E-01</totfact>
</mgrwt>
</event>
<event>
 6    1  0.1001928E-005  0.1108010E+04  0.7818608E-02  0.9197420E-01
          3   -1    0    0  501    0  0.00000000000E+00  0.00000000000E+00  0.73694708961E+03  0.73694708961E+03  0.00000000000E+00 0. -1.
         -3   -1    0    0    0  501 -0.00000000000E+00 -0.00000000000E+00 -0.41647694232E+03  0.41647694232E+03  0.00000000000E+00 0.  1.
         23    2    1    2    0    0 -0.13714985244E+03 -0.48584597164E+03  0.38947979019E+03  0.64389609256E+03  0.89728929911E+02 0.  0.
         11    1    3    3    0    0 -0.24765929520E+02 -0.22607260554E+03  0.20385188794E+03  0.30541409014E+03  0.00000000000E+00 0. -1.
        -11    1    3    3    0    0 -0.11238392292E+03 -0.25977336610E+03  0.18562790224E+03  0.33848200241E+03  0.00000000000E+00 0.  1.
         22    1    1    2    0    0  0.13714985244E+03  0.48584597164E+03 -0.69009642899E+02  0.50952793937E+03  0.00000000000E+00 0.  1.
<mgrwt>
<rscale>  0 0.11080099E+04</rscale>
<asrwt>0</asrwt>
<pdfrwt beam="1">  1        3 0.11337648E+00 0.11080099E+04</pdfrwt>
<pdfrwt beam="2">  1       -3 0.64073376E-01 0.11080099E+04</pdfrwt>
<totfact> 0.39910007E+00</totfact>
</mgrwt>
</event>
<event>
 6    1  0.1001928E-005  0.3207204E+04  0.7818608E-02  0.8186917E-01
          2   -1    0    0  501    0  0.00000000000E+00  0.00000000000E+00  0.22747429525E+04  0.22747429525E+04  0.00000000000E+00 0. -1.
         -2   -1    0    0    0  501 -0.00000000000E+00 -0.00000000000E+00 -0.11304749934E+04  0.11304749934E+04  0.00000000000E+00 0.  1.
         23    2    1    2    0    0  0.14655314659E+04 -0.63876422243E+03  0.46222850534E+03  0.16671212783E+04  0.99176388646E+02 0.  0.
         13    1    3    3    0    0  0.11448713046E+04 -0.52183697151E+03  0.32695394957E+03  0.12999780822E+04  0.00000000000E+00 0.  1.
        -13    1    3    3    0    0  0.32066016132E+03 -0.11692725093E+03  0.13527455577E+03  0.36714319619E+03  0.00000000000E+00 0. -1.
         22    1    1    2    0    0 -0.14655314659E+04  0.63876422243E+03  0.68203945373E+03  0.17380966676E+04  0.00000000000E+00 0. -1.
<mgrwt>
<rscale>  0 0.32072044E+04</rscale>
<asrwt>0</asrwt>
<pdfrwt beam="1">  1        2 0.34996045E+00 0.32072044E+04</pdfrwt>
<pdfrwt beam="2">  1       -2 0.17391923E+00 0.32072044E+04</pdfrwt>
<totfact> 0.78842507E-01</totfact>
</mgrwt>
</event>
<event>
 6    1  0.1001928E-005  0.4155369E+04  0.7818608E-02  0.7973917E-01
         -1   -1    0    0    0  501 -0.00000000000E+00  0.00000000000E+00  0.14698874341E+04  0.14698874341E+04  0.00000000000E+00 0.  1.
          1   -1    0    0  501    0  0.00000000000E+00 -0.00000000000E+00 -0.29368045651E+04  0.29368045651E+04  0.00000000000E+00 0. -1.
         23    2    1    2    0    0 -0.15277670430E+03  0.19767643733E+04 -0.13889466881E+04  0.24225000984E+04  0.91628135139E+02 0.  0.
         11    1    3    3    0    0 -0.85755003687E+02  0.15843469394E+04 -0.11133974271E+04  0.19383402632E+04  0.00000000000E+00 0.  1.
        -11    1    3    3    0    0 -0.67021700609E+02  0.39241743391E+03 -0.27554926096E+03  0.48415983518E+03  0.00000000000E+00 0. -1.
         22    1    1    2    0    0  0.15277670430E+03 -0.19767643733E+04 -0.77970442919E+02  0.19841919008E+04  0.00000000000E+00 0.  1.
<mgrwt>
<rscale>  0 0.41553686E+04</rscale>
<asrwt>0</asrwt>
<pdfrwt beam="1">  1        1 0.45181608E+00 0.41553686E+04</pdfrwt>
<pdfrwt beam="2">  1       -1 0.22613653E+00 0.41553686E+04</pdfrwt>
<totfact> 0.51405673E-02</totfact>
</mgrwt>
</event>
<event>
 6    1  0.1001928E-005  0.1288592E+04  0.7818608E-02  0.9038661E-01
          1   -1    0    0  501    0  0.00000000000E+00  0.00000000000E+00  0.10642731961E+04  0.10642731961E+04  0.00000000000E+00 0. -1.
         -1   -1    0    0    0  501 -0.00000000000E+00 -0.00000000000E+00 -0.39004754591E+03  0.39004754591E+03  0.00000000000E+00 0.  1.
         23    2    1    2    0    0  0.10919332521E+01 -0.46119417256E+03 -0.16390138228E+03  0.49768174025E+03  0.90123217568E+02 0.  0.
         13    1    3    3    0    0 -0.39993112122E+02 -0.25968691840E+03 -0.72044140280E+02  0.27244651356E+03  0.00000000000E+00 0. -1.
        -13    1    3    3    0    0  0.41085045374E+02 -0.20150725416E+03 -0.91857242001E+02  0.22523522669E+03  0.00000000000E+00 0.  1.
         22    1    1    2    0    0 -0.10919332521E+01  0.46119417256E+03  0.83812703250E+03  0.95663900178E+03  0.00000000000E+00 0. -1.
<mgrwt>
<rscale>  0 0.12885917E+04</rscale>
<asrwt>0</asrwt>
<pdfrwt beam="1">  1        1 0.16373434E+00 0.12885917E+04</pdfrwt>
<pdfrwt beam="2">  1       -1 0.60007315E-01 0.12885917E+04</pdfrwt>
<totfact> 0.37368021E+01</totfact>
</mgrwt>
</event>
<event>
 6    1  0.1001928E-005  0.3476268E+04  0.7818608E-02  0.8119437E-01
         -1   -1    0    0    0  501 -0.00000000000E+00  0.00000000000E+00  0.18962346990E+04  0.18962346990E+04  0.00000000000E+00 0.  1.
          1   -1    0    0  501    0  0.00000000000E+00 -0.00000000000E+00 -0.15932153444E+04  0.15932153444E+04  0.00000000000E+00 0. -1.
         23    2    1    2    0    0 -0.16385785856E+04 -0.78417973841E+02  0.72460773569E+03  0.17956891621E+04  0.91400419977E+02 0.  0.
         13    1    3    3    0    0 -0.13910839336E+04 -0.76660211305E+02  0.58053159354E+03  0.15093072018E+04  0.00000000000E+00 0.  1.
        -13    1    3    3    0    0 -0.24749465200E+03 -0.17577625354E+01  0.14407614215E+03  0.28638196038E+03  0.00000000000E+00 0. -1.
         22    1    1    2    0    0  0.16385785856E+04  0.78417973841E+02 -0.42158838111E+03  0.16937608812E+04  0.00000000000E+00 0. -1.
<mgrwt>
<rscale>  0 0.34762682E+04</rscale>
<asrwt>0</asrwt>
<pdfrwt beam="1">  1        1 0.24511005E+00 0.34762682E+04</pdfrwt>
<pdfrwt beam="2">  1       -1 0.29172842E+00 0.34762682E+04</pdfrwt>
<totfact> 0.17226333E-01</totfact>
</mgrwt>
</event>
<event>
 6    1  0.1001928E-005  0.1755071E+04  0.7818608E-02  0.8730564E-01
          2   -1    0    0  501    0  0.00000000000E+00  0.00000000000E+00  0.64360399227E+03  0.64360399227E+03  0.00000000000E+00 0. -1.
         -2   -1    0    0    0  501 -0.00000000000E+00 -0.00000000000E+00 -0.11964942803E+04  0.11964942803E+04  0.00000000000E+00 0.  1.
         23    2    1    2    0    0  0.53874751032E+03 -0.48127499064E+03  0.24068116747E+03  0.76695795022E+03  0.91774596383E+02 0.  0.
         13    1    3    3    0    0  0.20359558076E+03 -0.24137897506E+03  0.93936667058E+02  0.32945267873E+03  0.00000000000E+00 0.  1.
        -13    1    3    3    0    0  0.33515192956E+03 -0.23989601558E+03  0.14674450041E+03  0.43750527149E+03  0.00000000000E+00 0. -1.
         22    1    1    2    0    0 -0.53874751032E+03  0.48127499064E+03 -0.79357145552E+03  0.10731403224E+04  0.00000000000E+00 0.  1.
<mgrwt>
<rscale>  0 0.17550709E+04</rscale>
<asrwt>0</asrwt>
<pdfrwt beam="1">  1        2 0.99016000E-01 0.17550709E+04</pdfrwt>
<pdfrwt beam="2">  1       -2 0.18407604E+00 0.17550709E+04</pdfrwt>
<totfact> 0.73250032E+00</totfact>
</mgrwt>
</event>
<event>
 6    1  0.1001928E-005  0.6606217E+04  0.7818608E-02  0.7619468E-01
         -1   -1    0    0    0  501 -0.00000000000E+00  0.00000000000E+00  0.37943545342E+04  0.37943545342E+04  0.00000000000E+00 0.  1.
          1   -1    0    0  501    0  0.00000000000E+00 -0.00000000000E+00 -0.28754626962E+04  0.28754626962E+04  0.00000000000E+00 0. -1.
         23    2    1    2    0    0  0.37135006377E+02 -0.22946253625E+04 -0.19381183615E+04  0.30052310541E+04  0.91795113065E+02 0.  0.
         11    1    3    3    0    0 -0.13563235946E+02 -0.14902144133E+04 -0.12869660110E+04  0.19690618255E+04  0.00000000000E+00 0.  1.
        -11    1    3    3    0    0  0.50698242323E+02 -0.80441094913E+03 -0.65115235051E+03  0.10361692287E+04  0.00000000000E+00 0. -1.
         22    1    1    2    0    0 -0.37135006377E+02  0.22946253625E+04  0.28570101996E+04  0.36645861763E+04  0.00000000000E+00 0.  1.
<mgrwt>
<rscale>  0 0.66062167E+04</rscale>
<asrwt>0</asrwt>
<pdfrwt beam="1">  1        1 0.44237888E+00 0.66062167E+04</pdfrwt>
<pdfrwt beam="2">  1       -1 0.58374685E+00 0.66062167E+04</pdfrwt>
<totfact> 0.24811014E-04</totfact>
</mgrwt>
</event>
<event>
 6    1  0.1001928E-005  0.1472348E+04  0.7818608E-02  0.8903052E-01
          1   -1    0    0  501    0  0.00000000000E+00  0.00000000000E+00  0.70129672822E+03  0.70129672822E+03  0.00000000000E+00 0. -1.
         -1   -1    0    0    0  501 -0.00000000000E+00 -0.00000000000E+00 -0.77278573249E+03  0.77278573249E+03  0.00000000000E+00 0.  1.
         23    2    1    2    0    0 -0.29254915022E+02 -0.72371012182E+03 -0.15172737085E+03  0.74535042083E+03  0.88959902668E+02 0.  0.
         11    1    3    3    0    0 -0.20101070787E+02 -0.20642636683E+03 -0.45257749376E+01  0.20745211642E+03  0.00000000000E+00 0.  1.
        -11    1    3    3    0    0 -0.91538442352E+01 -0.51728375499E+03 -0.14720159591E+03  0.53789830441E+03  0.00000000000E+00 0. -1.
         22    1    1    2    0    0  0.29254915022E+02  0.72371012182E+03  0.80238366574E+02  0.72873203988E+03  0.00000000000E+00 0. -1.
<mgrwt>
<rscale>  0 0.14723479E+04</rscale>
<asrwt>0</asrwt>
<pdfrwt beam="1">  1        1 0.10789180E+00 0.14723479E+04</pdfrwt>
<pdfrwt beam="2">  1       -1 0.11889011E+00 0.14723479E+04</pdfrwt>
<totfact> 0.16686901E+01</totfact>
</mgrwt>
</event>
<event>
 6    1  0.1001928E-005  0.1923869E+04  0.7818608E-02  0.8643066E-01
          2   -1    0    0  501    0  0.00000000000E+00  0.00000000000E+00  0.24407868979E+04  0.24407868979E+04  0.00000000000E+00 0. -1.
         -2   -1    0    0    0  501 -0.00000000000E+00 -0.00000000000E+00 -0.37910632478E+03  0.37910632478E+03  0.00000000000E+00 0.  1.
         23    2    1    2    0    0 -0.47681067002E+03  0.79848006810E+03  0.13807513127E+04  0.16672512610E+04  0.91289350459E+02 0.  0.
         13    1    3    3    0    0 -0.49203338746E+02  0.14612697633E+03  0.24341735436E+03  0.28814244768E+03  0.00000000000E+00 0. -1.
        -13    1    3    3    0    0 -0.42760733128E+03  0.65235309178E+03  0.11373339583E+04  0.13791088133E+04  0.00000000000E+00 0.  1.
         22    1    1    2    0    0  0.47681067002E+03 -0.79848006810E+03  0.68092926047E+03  0.11526419617E+04  0.00000000000E+00 0. -1.
<mgrwt>
<rscale>  0 0.19238688E+04</rscale>
<asrwt>0</asrwt>
<pdfrwt beam="1">  1        2 0.37550567E+00 0.19238688E+04</pdfrwt>
<pdfrwt beam="2">  1       -2 0.58324052E-01 0.19238688E+04</pdfrwt>
<totfact> 0.96867335E+00</totfact>
</mgrwt>
</event>
<event>
 6    1  0.1001928E-005  0.3394422E+04  0.7818608E-02  0.8139277E-01
         -2   -1    0    0    0  501 -0.00000000000E+00  0.00000000000E+00  0.75497685667E+03  0.75497685667E+03  0.00000000000E+00 0.  1.
          2   -1    0    0  501    0  0.00000000000E+00 -0.00000000000E+00 -0.38153823368E+04  0.38153823368E+04  0.00000000000E+00 0. -1.
         23    2    1    2    0    0 -0.36124958148E+03 -0.16470185450E+04 -0.12861484161E+04  0.21226746801E+04  0.91644430795E+02 0.  0.
         11    1    3    3    0    0 -0.29458743247E+03 -0.11705643116E+04 -0.89612508816E+03  0.15033438518E+04  0.00000000000E+00 0. -1.
        -11    1    3    3    0    0 -0.66662149005E+02 -0.47645423338E+03 -0.39002332789E+03  0.61933082832E+03  0.00000000000E+00 0.  1.
         22    1    1    2    0    0  0.36124958148E+03  0.16470185450E+04 -0.17742570641E+04  0.24476845134E+04  0.00000000000E+00 0. -1.
<mgrwt>
<rscale>  0 0.33944221E+04</rscale>
<asrwt>0</asrwt>
<pdfrwt beam="1">  1        2 0.58698190E+00 0.33944221E+04</pdfrwt>
<pdfrwt beam="2">  1       -2 0.11615028E+00 0.33944221E+04</pdfrwt>
<totfact> 0.22753258E-01</totfact>
</mgrwt>
</event>
<event>
 6    1  0.1380908E-005  0.3562651E+04  0.7818608E-02  0.8099101E-01
         -2   -1    0    0    0  501 -0.00000000000E+00  0.00000000000E+00  0.10606257842E+04  0.10606257842E+04  0.00000000000E+00 0.  1.
          2   -1    0    0  501    0  0.00000000000E+00 -0.00000000000E+00 -0.29917443439E+04  0.29917443439E+04  0.00000000000E+00 0. -1.
         23    2    1    2    0    0 -0.29339969540E+02  0.14987697952E+04 -0.20582691700E+04  0.25479303619E+04  0.91134078418E+02 0.  0.
         13    1    3    3    0    0  0.15822491777E+02  0.82486909795E+03 -0.10770051760E+04  0.13566869680E+04  0.00000000000E+00 0.  1.
        -13    1    3    3    0    0 -0.45162461317E+02  0.67390069720E+03 -0.98126399397E+03  0.11912433939E+04  0.00000000000E+00 0. -1.
         22    1    1    2    0    0  0.29339969540E+02 -0.14987697952E+04  0.12715061021E+03  0.15044397663E+04  0.00000000000E+00 0.  1.
<mgrwt>
<rscale>  0 0.35626514E+04</rscale>
<asrwt>0</asrwt>
<pdfrwt beam="1">  1        2 0.46026836E+00 0.35626514E+04</pdfrwt>
<pdfrwt beam="2">  1       -2 0.16317320E+00 0.35626514E+04</pdfrwt>
<totfact> 0.34363417E-01</totfact>
</mgrwt>
</event>
<event>
 6    1  0.1001928E-005  0.2419636E+03  0.7818608E-02  0.1118492E+00
         -1   -1    0    0    0  501 -0.00000000000E+00  0.00000000000E+00  0.68794084176E+02  0.68794084176E+02  0.00000000000E+00 0.  1.
          1   -1    0    0  501    0  0.00000000000E+00 -0.00000000000E+00 -0.21275955348E+03  0.21275955348E+03  0.00000000000E+00 0. -1.
         23    2    1    2    0    0 -0.19226278822E+02 -0.54784629989E+02 -0.18389205348E+03  0.21108990511E+03  0.85858343948E+02 0.  0.
         13    1    3    3    0    0 -0.23739944694E+02 -0.10401779111E+01 -0.13871330860E+03  0.14073396508E+03  0.00000000000E+00 0.  1.
        -13    1    3    3    0    0  0.45136658716E+01 -0.53744452077E+02 -0.45178744882E+02  0.70355940032E+02  0.00000000000E+00 0. -1.
         22    1    1    2    0    0  0.19226278822E+02  0.54784629989E+02  0.39926584176E+02  0.70463732546E+02  0.00000000000E+00 0.  1.
<mgrwt>
<rscale>  0 0.24196362E+03</rscale>
<asrwt>0</asrwt>
<pdfrwt beam="1">  1        1 0.32732238E-01 0.24196362E+03</pdfrwt>
<pdfrwt beam="2">  1       -1 0.10583706E-01 0.24196362E+03</pdfrwt>
<totfact> 0.74451545E+03</totfact>
</mgrwt>
</event>
<event>
 6    1  0.1001928E-005  0.1357557E+04  0.7818608E-02  0.8985128E-01
          1   -1    0    0  501    0  0.00000000000E+00  0.00000000000E+00  0.44114651640E+03  0.44114651640E+03  0.00000000000E+00 0. -1.
         -1   -1    0    0    0  501 -0.00000000000E+00 -0.00000000000E+00 -0.10444148497E+04  0.10444148497E+04  0.00000000000E+00 0.  1.
         23    2    1    2    0    0 -0.32507471254E+03  0.31221055066E+03 -0.85397348896E+03  0.96980747925E+03  0.90037938024E+02 0.  0.
         11    1    3    3    0    0 -0.22879616535E+03  0.22459784169E+03 -0.68663158962E+03  0.75779602508E+03  0.00000000000E+00 0. -1.
        -11    1    3    3    0    0 -0.96278547188E+02  0.87612708975E+02 -0.16734189935E+03  0.21201145417E+03  0.00000000000E+00 0.  1.
         22    1    1    2    0    0  0.32507471254E+03 -0.31221055066E+03  0.25070515569E+03  0.51575388682E+03  0.00000000000E+00 0.  1.
<mgrwt>
<rscale>  0 0.13575566E+04</rscale>
<asrwt>0</asrwt>
<pdfrwt beam="1">  1        1 0.67868695E-01 0.13575566E+04</pdfrwt>
<pdfrwt beam="2">  1       -1 0.16067921E+00 0.13575566E+04</pdfrwt>
<totfact> 0.14860632E+01</totfact>
</mgrwt>
</event>
<event>
 6    1  0.1001928E-005  0.2032588E+04  0.7818608E-02  0.8591534E-01
         -2   -1    0    0    0  501 -0.00000000000E+00  0.00000000000E+00  0.31781910693E+03  0.31781910693E+03  0.00000000000E+00 0. -1.
          2   -1    0    0  501    0  0.00000000000E+00 -0.00000000000E+00 -0.32498168874E+04  0.32498168874E+04  0.00000000000E+00 0.  1.
         23    2    1    2    0    0  0.63037902502E+03  0.79346032669E+03 -0.15484121021E+04  0.18526239435E+04  0.87626667011E+02 0.  0.
         13    1    3    3    0    0  0.57822111154E+02  0.39203144997E+02 -0.94447800963E+02  0.11747625387E+03  0.00000000000E+00 0.  1.
        -13    1    3    3    0    0  0.57255691386E+03  0.75425718169E+03 -0.14539643012E+04  0.17351476896E+04  0.00000000000E+00 0. -1.
         22    1    1    2    0    0 -0.63037902502E+03 -0.79346032669E+03 -0.13835856783E+04  0.17150120508E+04  0.00000000000E+00 0. -1.
<mgrwt>
<rscale>  0 0.20325884E+04</rscale>
<asrwt>0</asrwt>
<pdfrwt beam="1">  1        2 0.49997182E+00 0.20325884E+04</pdfrwt>
<pdfrwt beam="2">  1       -2 0.48895248E-01 0.20325884E+04</pdfrwt>
<totfact> 0.44294563E+00</totfact>
</mgrwt>
</event>
<event>
 6    1  0.1001928E-005  0.3066588E+04  0.7818608E-02  0.8224968E-01
         -2   -1    0    0    0  501 -0.00000000000E+00  0.00000000000E+00  0.86518975654E+03  0.86518975654E+03  0.00000000000E+00 0.  1.
          2   -1    0    0  501    0  0.00000000000E+00 -0.00000000000E+00 -0.27173116821E+04  0.27173116821E+04  0.00000000000E+00 0. -1.
         23    2    1    2    0    0  0.10759888322E+04 -0.99575886824E+03 -0.40759848691E+03  0.15243625571E+04  0.90867972431E+02 0.  0.
         13    1    3    3    0    0  0.40447636643E+03 -0.43193928207E+03 -0.14966318690E+03  0.61038655286E+03  0.00000000000E+00 0.  1.
        -13    1    3    3    0    0  0.67151246576E+03 -0.56381958617E+03 -0.25793530002E+03  0.91397600429E+03  0.00000000000E+00 0. -1.
         22    1    1    2    0    0 -0.10759888322E+04  0.99575886824E+03 -0.14445234386E+04  0.20581388815E+04  0.00000000000E+00 0. -1.
<mgrwt>
<rscale>  0 0.30665878E+04</rscale>
<asrwt>0</asrwt>
<pdfrwt beam="1">  1        2 0.41804795E+00 0.30665878E+04</pdfrwt>
<pdfrwt beam="2">  1       -2 0.13310612E+00 0.30665878E+04</pdfrwt>
<totfact> 0.90256976E-01</totfact>
</mgrwt>
</event>
<event>
 6    1  0.1035687E-005  0.2222391E+04  0.7818608E-02  0.8509166E-01
          2   -1    0    0  501    0  0.00000000000E+00  0.00000000000E+00  0.15908607794E+04  0.15908607794E+04  0.00000000000E+00 0. -1.
         -2   -1    0    0    0  501 -0.00000000000E+00 -0.00000000000E+00 -0.77615540749E+03  0.77615540749E+03  0.00000000000E+00 0.  1.
         23    2    1    2    0    0 -0.73547080961E+03  0.95188787991E+02 -0.47057940018E+03  0.88312428971E+03  0.92115807868E+02 0.  0.
         11    1    3    3    0    0 -0.42276869840E+03  0.93532733094E+01 -0.27547222048E+03  0.50468386176E+03  0.00000000000E+00 0. -1.
        -11    1    3    3    0    0 -0.31270211121E+03  0.85835514681E+02 -0.19510717970E+03  0.37844042795E+03  0.00000000000E+00 0.  1.
         22    1    1    2    0    0  0.73547080961E+03 -0.95188787991E+02  0.12852847721E+04  0.14838918972E+04  0.00000000000E+00 0. -1.
<mgrwt>
<rscale>  0 0.22223908E+04</rscale>
<asrwt>0</asrwt>
<pdfrwt beam="1">  1        2 0.24474781E+00 0.22223908E+04</pdfrwt>
<pdfrwt beam="2">  1       -2 0.11940852E+00 0.22223908E+04</pdfrwt>
<totfact> 0.55351654E+00</totfact>
</mgrwt>
</event>
<event>
 6    1  0.1001928E-005  0.2845043E+04  0.7818608E-02  0.8289419E-01
          2   -1    0    0  501    0  0.00000000000E+00  0.00000000000E+00  0.27007539409E+04  0.27007539409E+04  0.00000000000E+00 0. -1.
         -2   -1    0    0    0  501 -0.00000000000E+00 -0.00000000000E+00 -0.74926008593E+03  0.74926008593E+03  0.00000000000E+00 0.  1.
         23    2    1    2    0    0 -0.74405790484E+03  0.80182819993E+03 -0.12333989720E+03  0.11044894102E+04  0.90185914093E+02 0.  0.
         13    1    3    3    0    0 -0.47909367848E+03  0.46082037025E+03 -0.97639550190E+02  0.67187770327E+03  0.00000000000E+00 0.  1.
        -13    1    3    3    0    0 -0.26496422636E+03  0.34100782969E+03 -0.25700347008E+02  0.43261170695E+03  0.00000000000E+00 0. -1.
         22    1    1    2    0    0  0.74405790484E+03 -0.80182819993E+03  0.20748337521E+04  0.23455246166E+04  0.00000000000E+00 0.  1.
<mgrwt>
<rscale>  0 0.28450428E+04</rscale>
<asrwt>0</asrwt>
<pdfrwt beam="1">  1        2 0.41550060E+00 0.28450428E+04</pdfrwt>
<pdfrwt beam="2">  1       -2 0.11527078E+00 0.28450428E+04</pdfrwt>
<totfact> 0.13478504E+00</totfact>
</mgrwt>
</event>
<event>
 6    1  0.1001928E-005  0.2642768E+04  0.7818608E-02  0.8353817E-01
         -1   -1    0    0    0  501 -0.00000000000E+00  0.00000000000E+00  0.65649480848E+03  0.65649480848E+03  0.00000000000E+00 0.  1.
          1   -1    0    0  501    0  0.00000000000E+00 -0.00000000000E+00 -0.26596637598E+04  0.26596637598E+04  0.00000000000E+00 0. -1.
         23    2    1    2    0    0  0.33479554118E+03 -0.31735816928E+03 -0.25543472258E+04  0.25974084362E+04  0.95060887847E+02 0.  0.
         13    1    3    3    0    0  0.18063967133E+03 -0.14688059045E+03 -0.15284237414E+04  0.15460542461E+04  0.00000000000E+00 0.  1.
        -13    1    3    3    0    0  0.15415586986E+03 -0.17047757883E+03 -0.10259234844E+04  0.10513541901E+04  0.00000000000E+00 0. -1.
         22    1    1    2    0    0 -0.33479554118E+03  0.31735816928E+03  0.55117827453E+03  0.71875013205E+03  0.00000000000E+00 0.  1.
<mgrwt>
<rscale>  0 0.26427678E+04</rscale>
<asrwt>0</asrwt>
<pdfrwt beam="1">  1        1 0.40917905E+00 0.26427678E+04</pdfrwt>
<pdfrwt beam="2">  1       -1 0.10099920E+00 0.26427678E+04</pdfrwt>
<totfact> 0.85614065E-01</totfact>
</mgrwt>
</event>
<event>
 6    1  0.1001928E-005  0.7129552E+03  0.7818608E-02  0.9695330E-01
         -2   -1    0    0    0  501 -0.00000000000E+00  0.00000000000E+00  0.14347716791E+03  0.14347716791E+03  0.00000000000E+00 0.  1.
          2   -1    0    0  501    0  0.00000000000E+00 -0.00000000000E+00 -0.88568983968E+03  0.88568983968E+03  0.00000000000E+00 0. -1.
         23    2    1    2    0    0 -0.22074147673E+03 -0.20349301585E+03 -0.63885266400E+03  0.71164614488E+03  0.90395255310E+02 0.  0.
         11    1    3    3    0    0 -0.15466468991E+03 -0.90672075813E+02 -0.31586775511E+03  0.36320108805E+03  0.00000000000E+00 0. -1.
        -11    1    3    3    0    0 -0.66076786815E+02 -0.11282094004E+03 -0.32298490889E+03  0.34844505684E+03  0.00000000000E+00 0.  1.
         22    1    1    2    0    0  0.22074147673E+03  0.20349301585E+03 -0.10336000778E+03  0.31752086271E+03  0.00000000000E+00 0.  1.
<mgrwt>
<rscale>  0 0.71295517E+03</rscale>
<asrwt>0</asrwt>
<pdfrwt beam="1">  1        2 0.13625998E+00 0.71295517E+03</pdfrwt>
<pdfrwt beam="2">  1       -2 0.22073410E-01 0.71295517E+03</pdfrwt>
<totfact> 0.54076241E+02</totfact>
</mgrwt>
</event>
<event>
 6    1  0.1001928E-005  0.1058766E+04  0.7818608E-02  0.9246340E-01
          2   -1    0    0  501    0  0.00000000000E+00  0.00000000000E+00  0.67918046217E+03  0.67918046217E+03  0.00000000000E+00 0. -1.
         -2   -1    0    0    0  501 -0.00000000000E+00 -0.00000000000E+00 -0.41262436338E+03  0.41262436338E+03  0.00000000000E+00 0.  1.
         23    2    1    2    0    0 -0.36028267384E+02 -0.52127985898E+03  0.19137051915E+03  0.56389991099E+03  0.91267226231E+02 0.  0.
         13    1    3    3    0    0 -0.15456799147E+02 -0.39230595718E+03  0.18261538303E+03  0.43300260368E+03  0.00000000000E+00 0.  1.
        -13    1    3    3    0    0 -0.20571468237E+02 -0.12897390180E+03  0.87551361213E+01  0.13089730731E+03  0.00000000000E+00 0. -1.
         22    1    1    2    0    0  0.36028267384E+02  0.52127985898E+03  0.75185579642E+02  0.52790491456E+03  0.00000000000E+00 0. -1.
<mgrwt>
<rscale>  0 0.10587661E+04</rscale>
<asrwt>0</asrwt>
<pdfrwt beam="1">  1        2 0.10448930E+00 0.10587661E+04</pdfrwt>
<pdfrwt beam="2">  1       -2 0.63480671E-01 0.10587661E+04</pdfrwt>
<totfact> 0.97355436E+01</totfact>
</mgrwt>
</event>
<event>
 6    1  0.1001928E-005  0.3077512E+04  0.7818608E-02  0.8221937E-01
         -2   -1    0    0    0  501 -0.00000000000E+00  0.00000000000E+00  0.13375411041E+04  0.13375411041E+04  0.00000000000E+00 0.  1.
          2   -1    0    0  501    0  0.00000000000E+00 -0.00000000000E+00 -0.17702414610E+04  0.17702414610E+04  0.00000000000E+00 0. -1.
         23    2    1    2    0    0  0.14304218672E+04 -0.54916406006E+03 -0.88421503028E+02  0.15373635725E+04  0.89333693254E+02 0.  0.
         13    1    3    3    0    0  0.56590352591E+03 -0.17074065132E+03 -0.35895372615E+02  0.59218886213E+03  0.00000000000E+00 0.  1.
        -13    1    3    3    0    0  0.86451834130E+03 -0.37842340873E+03 -0.52526130413E+02  0.94517471035E+03  0.00000000000E+00 0. -1.
         22    1    1    2    0    0 -0.14304218672E+04  0.54916406006E+03 -0.34427885395E+03  0.15704189926E+04  0.00000000000E+00 0. -1.
<mgrwt>
<rscale>  0 0.30775124E+04</rscale>
<asrwt>0</asrwt>
<pdfrwt beam="1">  1        2 0.27234484E+00 0.30775124E+04</pdfrwt>
<pdfrwt beam="2">  1       -2 0.20577556E+00 0.30775124E+04</pdfrwt>
<totfact> 0.92977415E-01</totfact>
</mgrwt>
</event>
<event>
 6    1  0.1411476E-005  0.2477593E+04  0.7818608E-02  0.8411012E-01
          2   -1    0    0  501    0  0.00000000000E+00  0.00000000000E+00  0.18813708160E+04  0.18813708160E+04  0.00000000000E+00 0. -1.
         -2   -1    0    0    0  501 -0.00000000000E+00 -0.00000000000E+00 -0.81569092829E+03  0.81569092829E+03  0.00000000000E+00 0.  1.
         23    2    1    2    0    0  0.61220198086E+03 -0.29971133372E+03  0.16573848046E+04  0.17944362086E+04  0.91971557269E+02 0.  0.
         11    1    3    3    0    0  0.29807669565E+03 -0.16930311424E+03  0.72516291035E+03  0.80210629441E+03  0.00000000000E+00 0. -1.
        -11    1    3    3    0    0  0.31412528521E+03 -0.13040821948E+03  0.93222189422E+03  0.99232991418E+03  0.00000000000E+00 0.  1.
         22    1    1    2    0    0 -0.61220198086E+03  0.29971133372E+03 -0.59170491690E+03  0.90262553566E+03  0.00000000000E+00 0.  1.
<mgrwt>
<rscale>  0 0.24775933E+04</rscale>
<asrwt>0</asrwt>
<pdfrwt beam="1">  1        2 0.28944166E+00 0.24775933E+04</pdfrwt>
<pdfrwt beam="2">  1       -2 0.12549091E+00 0.24775933E+04</pdfrwt>
<totfact> 0.32992087E+00</totfact>
</mgrwt>
</event>
<event>
 6    1  0.1001928E-005  0.2093639E+04  0.7818608E-02  0.8564051E-01
         -2   -1    0    0    0  501 -0.00000000000E+00  0.00000000000E+00  0.58199453692E+03  0.58199453692E+03  0.00000000000E+00 0. -1.
          2   -1    0    0  501    0  0.00000000000E+00 -0.00000000000E+00 -0.18828882647E+04  0.18828882647E+04  0.00000000000E+00 0.  1.
         23    2    1    2    0    0  0.64730952705E+03  0.60171228615E+03 -0.13082445398E+04  0.15810721129E+04  0.84958526725E+02 0.  0.
         11    1    3    3    0    0  0.13154281257E+03  0.16148421041E+03 -0.34723382207E+03  0.40490985285E+03  0.00000000000E+00 0.  1.
        -11    1    3    3    0    0  0.51576671448E+03  0.44022807573E+03 -0.96101071770E+03  0.11761622601E+04  0.00000000000E+00 0. -1.
         22    1    1    2    0    0 -0.64730952705E+03 -0.60171228615E+03  0.73508119562E+01  0.88381068875E+03  0.00000000000E+00 0. -1.
<mgrwt>
<rscale>  0 0.20936386E+04</rscale>
<asrwt>0</asrwt>
<pdfrwt beam="1">  1        2 0.28967511E+00 0.20936386E+04</pdfrwt>
<pdfrwt beam="2">  1       -2 0.89537623E-01 0.20936386E+04</pdfrwt>
<totfact> 0.76527538E+00</totfact>
</mgrwt>
</event>
<event>
 6    1  0.1001928E-005  0.3071973E+04  0.7818608E-02  0.8223472E-01
         -2   -1    0    0    0  501 -0.00000000000E+00  0.00000000000E+00  0.13203191489E+04  0.13203191489E+04  0.00000000000E+00 0.  1.
          2   -1    0    0  501    0  0.00000000000E+00 -0.00000000000E+00 -0.17868824560E+04  0.17868824560E+04  0.00000000000E+00 0. -1.
         23    2    1    2    0    0  0.38494394593E+03  0.14257853318E+04 -0.65533908415E+03  0.16183490440E+04  0.92404865581E+02 0.  0.
         13    1    3    3    0    0  0.25729116432E+03  0.97682807107E+03 -0.49427363378E+03  0.11245880351E+04  0.00000000000E+00 0. -1.
        -13    1    3    3    0    0  0.12765278161E+03  0.44895726072E+03 -0.16106545037E+03  0.49376100890E+03  0.00000000000E+00 0.  1.
         22    1    1    2    0    0 -0.38494394593E+03 -0.14257853318E+04  0.18877577709E+03  0.14888525608E+04  0.00000000000E+00 0.  1.
<mgrwt>
<rscale>  0 0.30719734E+04</rscale>
<asrwt>0</asrwt>
<pdfrwt beam="1">  1        2 0.27490499E+00 0.30719734E+04</pdfrwt>
<pdfrwt beam="2">  1       -2 0.20312602E+00 0.30719734E+04</pdfrwt>
<totfact> 0.94749142E-01</totfact>
</mgrwt>
</event>
<event>
 6    1  0.1001928E-005  0.1207124E+04  0.7818608E-02  0.9106643E-01
         -2   -1    0    0    0  501 -0.00000000000E+00  0.00000000000E+00  0.18656145717E+03  0.18656145717E+03  0.00000000000E+00 0.  1.
          2   -1    0    0  501    0  0.00000000000E+00 -0.00000000000E+00 -0.19526398975E+04  0.19526398975E+04  0.00000000000E+00 0. -1.
         23    2    1    2    0    0  0.52987067821E+02  0.28384964619E+03 -0.18203404440E+04  0.18453942479E+04  0.91991016429E+02 0.  0.
         11    1    3    3    0    0 -0.20520245601E+02  0.18259110102E+02 -0.16918679225E+03  0.17140200189E+03  0.00000000000E+00 0.  1.
        -11    1    3    3    0    0  0.73507313423E+02  0.26559053608E+03 -0.16511536517E+04  0.16739922460E+04  0.00000000000E+00 0. -1.
         22    1    1    2    0    0 -0.52987067821E+02 -0.28384964619E+03  0.54262003602E+02  0.29380710684E+03  0.00000000000E+00 0.  1.
<mgrwt>
<rscale>  0 0.12071244E+04</rscale>
<asrwt>0</asrwt>
<pdfrwt beam="1">  1        2 0.30040612E+00 0.12071244E+04</pdfrwt>
<pdfrwt beam="2">  1       -2 0.28701764E-01 0.12071244E+04</pdfrwt>
<totfact> 0.78040979E+01</totfact>
</mgrwt>
</event>
<event>
 6    1  0.1001928E-005  0.3045592E+04  0.7818608E-02  0.8230830E-01
          2   -1    0    0  501    0  0.00000000000E+00  0.00000000000E+00  0.26914080166E+04  0.26914080166E+04  0.00000000000E+00 0. -1.
         -2   -1    0    0    0  501 -0.00000000000E+00 -0.00000000000E+00 -0.86159671537E+03  0.86159671537E+03  0.00000000000E+00 0.  1.
         23    2    1    2    0    0  0.11847633630E+04  0.91143762978E+03  0.58496521854E+03  0.16077477955E+04  0.91026851160E+02 0.  0.
         11    1    3    3    0    0  0.93305721073E+03  0.70419973843E+03  0.41814263719E+03  0.12415056565E+04  0.00000000000E+00 0. -1.
        -11    1    3    3    0    0  0.25170615232E+03  0.20723789135E+03  0.16682258136E+03  0.36624213900E+03  0.00000000000E+00 0.  1.
         22    1    1    2    0    0 -0.11847633630E+04 -0.91143762978E+03  0.12448460827E+04  0.19452569365E+04  0.00000000000E+00 0. -1.
<mgrwt>
<rscale>  0 0.30455924E+04</rscale>
<asrwt>0</asrwt>
<pdfrwt beam="1">  1        2 0.41406277E+00 0.30455924E+04</pdfrwt>
<pdfrwt beam="2">  1       -2 0.13255334E+00 0.30455924E+04</pdfrwt>
<totfact> 0.94688547E-01</totfact>
</mgrwt>
</event>
<event>
 6    1  0.1001928E-005  0.5796229E+03  0.7818608E-02  0.9948608E-01
         -2   -1    0    0    0  501 -0.00000000000E+00  0.00000000000E+00  0.26975290229E+02  0.26975290229E+02  0.00000000000E+00 0.  1.
          2   -1    0    0  501    0  0.00000000000E+00 -0.00000000000E+00 -0.31136154622E+04  0.31136154622E+04  0.00000000000E+00 0. -1.
         23    2    1    2    0    0  0.24554664564E+03 -0.92072362990E+02 -0.21526988827E+04  0.21705305445E+04  0.91213429917E+02 0.  0.
         11    1    3    3    0    0  0.35704699633E+02 -0.50354950266E+02 -0.59848839611E+03  0.60166336674E+03  0.00000000000E+00 0.  1.
        -11    1    3    3    0    0  0.20984194600E+03 -0.41717412724E+02 -0.15542104866E+04  0.15688671778E+04  0.00000000000E+00 0. -1.
         22    1    1    2    0    0 -0.24554664564E+03  0.92072362990E+02 -0.93394128924E+03  0.97006020790E+03  0.00000000000E+00 0.  1.
<mgrwt>
<rscale>  0 0.57962291E+03</rscale>
<asrwt>0</asrwt>
<pdfrwt beam="1">  1        2 0.47901758E+00 0.57962291E+03</pdfrwt>
<pdfrwt beam="2">  1       -2 0.41500462E-02 0.57962291E+03</pdfrwt>
<totfact> 0.43903422E+02</totfact>
</mgrwt>
</event>
<event>
 6    1  0.1001928E-005  0.3052400E+04  0.7818608E-02  0.8228924E-01
         -2   -1    0    0    0  501 -0.00000000000E+00  0.00000000000E+00  0.14936010316E+04  0.14936010316E+04  0.00000000000E+00 0.  1.
          2   -1    0    0  501    0  0.00000000000E+00 -0.00000000000E+00 -0.15595107965E+04  0.15595107965E+04  0.00000000000E+00 0. -1.
         23    2    1    2    0    0  0.15204973760E+04 -0.52952294597E+02 -0.14206080939E+03  0.15297880945E+04  0.73171885122E+02 0.  0.
         11    1    3    3    0    0  0.19292795170E+03 -0.28696293423E+02 -0.28963789054E+02  0.19718918044E+03  0.00000000000E+00 0. -1.
        -11    1    3    3    0    0  0.13275694243E+04 -0.24256001174E+02 -0.11309702034E+03  0.13325989141E+04  0.00000000000E+00 0.  1.
         22    1    1    2    0    0 -0.15204973760E+04  0.52952294597E+02  0.76151044530E+02  0.15233237336E+04  0.00000000000E+00 0. -1.
<mgrwt>
<rscale>  0 0.30524003E+04</rscale>
<asrwt>0</asrwt>
<pdfrwt beam="1">  1        2 0.23992474E+00 0.30524003E+04</pdfrwt>
<pdfrwt beam="2">  1       -2 0.22978477E+00 0.30524003E+04</pdfrwt>
<totfact> 0.85903160E-01</totfact>
</mgrwt>
</event>
<event>
 6    1  0.1001928E-005  0.1622958E+04  0.7818608E-02  0.8806567E-01
          2   -1    0    0  501    0  0.00000000000E+00  0.00000000000E+00  0.10946717705E+04  0.10946717705E+04  0.00000000000E+00 0. -1.
         -2   -1    0    0    0  501 -0.00000000000E+00 -0.00000000000E+00 -0.60154875073E+03  0.60154875073E+03  0.00000000000E+00 0.  1.
         23    2    1    2    0    0 -0.74583305609E+03  0.18986019789E+02  0.57496536614E+03  0.94567033229E+03  0.84141479689E+02 0.  0.
         11    1    3    3    0    0 -0.60138026386E+03 -0.80233303837E+01  0.49110170057E+03  0.77646859298E+03  0.00000000000E+00 0. -1.
        -11    1    3    3    0    0 -0.14445279224E+03  0.27009350173E+02  0.83863665573E+02  0.16920173931E+03  0.00000000000E+00 0.  1.
         22    1    1    2    0    0  0.74583305609E+03 -0.18986019789E+02 -0.81842346334E+02  0.75055018897E+03  0.00000000000E+00 0.  1.
<mgrwt>
<rscale>  0 0.16229583E+04</rscale>
<asrwt>0</asrwt>
<pdfrwt beam="1">  1        2 0.16841104E+00 0.16229583E+04</pdfrwt>
<pdfrwt beam="2">  1       -2 0.92545962E-01 0.16229583E+04</pdfrwt>
<totfact> 0.20821424E+01</totfact>
</mgrwt>
</event>
<event>
 6    1  0.1001928E-005  0.2692009E+04  0.7818608E-02  0.8337602E-01
          2   -1    0    0  501    0  0.00000000000E+00  0.00000000000E+00  0.59407670317E+03  0.59407670317E+03  0.00000000000E+00 0. -1.
         -2   -1    0    0    0  501 -0.00000000000E+00 -0.00000000000E+00 -0.30496533290E+04  0.30496533290E+04  0.00000000000E+00 0.  1.
         23    2    1    2    0    0  0.91071309549E+03  0.59046292055E+03 -0.23029171500E+04  0.25476690309E+04  0.95631002341E+02 0.  0.
         13    1    3    3    0    0  0.61842266273E+03  0.38309573766E+03 -0.14409915252E+04  0.16142073937E+04  0.00000000000E+00 0. -1.
        -13    1    3    3    0    0  0.29229043276E+03  0.20736718289E+03 -0.86192562474E+03  0.93346163725E+03  0.00000000000E+00 0.  1.
         22    1    1    2    0    0 -0.91071309549E+03 -0.59046292055E+03 -0.15265947583E+03  0.10960610012E+04  0.00000000000E+00 0. -1.
<mgrwt>
<rscale>  0 0.26920089E+04</rscale>
<asrwt>0</asrwt>
<pdfrwt beam="1">  1        2 0.91396416E-01 0.26920089E+04</pdfrwt>
<pdfrwt beam="2">  1       -2 0.46917744E+00 0.26920089E+04</pdfrwt>
<totfact> 0.11415549E-01</totfact>
</mgrwt>
</event>
<event>
 6    1  0.1001928E-005  0.3076279E+04  0.7818608E-02  0.8222278E-01
         -2   -1    0    0    0  501 -0.00000000000E+00  0.00000000000E+00  0.99440224214E+03  0.99440224214E+03  0.00000000000E+00 0.  1.
          2   -1    0    0  501    0  0.00000000000E+00 -0.00000000000E+00 -0.23791909422E+04  0.23791909422E+04  0.00000000000E+00 0. -1.
         23    2    1    2    0    0  0.12484808773E+04 -0.51563574310E+03  0.11087423685E+03  0.13582539223E+04  0.89307897270E+02 0.  0.
         13    1    3    3    0    0  0.11121349479E+03 -0.50729200327E+02  0.35651704198E+02  0.12733003260E+03  0.00000000000E+00 0.  1.
        -13    1    3    3    0    0  0.11372673825E+04 -0.46490654277E+03  0.75222532650E+02  0.12309238897E+04  0.00000000000E+00 0. -1.
         22    1    1    2    0    0 -0.12484808773E+04  0.51563574310E+03 -0.14956629369E+04  0.20153392621E+04  0.00000000000E+00 0. -1.
<mgrwt>
<rscale>  0 0.30762788E+04</rscale>
<asrwt>0</asrwt>
<pdfrwt beam="1">  1        2 0.36602937E+00 0.30762788E+04</pdfrwt>
<pdfrwt beam="2">  1       -2 0.15298496E+00 0.30762788E+04</pdfrwt>
<totfact> 0.98812287E-01</totfact>
</mgrwt>
</event>
<event>
 6    1  0.1001928E-005  0.3456820E+04  0.7818608E-02  0.8124100E-01
         -2   -1    0    0    0  501 -0.00000000000E+00  0.00000000000E+00  0.13474902193E+04  0.13474902193E+04  0.00000000000E+00 0.  1.
          2   -1    0    0  501    0  0.00000000000E+00 -0.00000000000E+00 -0.22170115790E+04  0.22170115790E+04  0.00000000000E+00 0. -1.
         23    2    1    2    0    0  0.82085521480E+03 -0.15189900039E+04 -0.38552028360E+03  0.17713506732E+04  0.89013498359E+02 0.  0.
         11    1    3    3    0    0  0.42055468754E+03 -0.74256888934E+03 -0.23267364362E+03  0.88454045982E+03  0.00000000000E+00 0. -1.
        -11    1    3    3    0    0  0.40030052726E+03 -0.77642111456E+03 -0.15284663998E+03  0.88681021342E+03  0.00000000000E+00 0.  1.
         22    1    1    2    0    0 -0.82085521480E+03  0.15189900039E+04 -0.48400107606E+03  0.17931511250E+04  0.00000000000E+00 0. -1.
<mgrwt>
<rscale>  0 0.34568202E+04</rscale>
<asrwt>0</asrwt>
<pdfrwt beam="1">  1        2 0.34107870E+00 0.34568202E+04</pdfrwt>
<pdfrwt beam="2">  1       -2 0.20730619E+00 0.34568202E+04</pdfrwt>
<totfact> 0.49643972E-01</totfact>
</mgrwt>
</event>
<event>
 6    1  0.1001928E-005  0.2380267E+04  0.7818608E-02  0.8446928E-01
         -1   -1    0    0    0  501 -0.00000000000E+00  0.00000000000E+00  0.69454573187E+03  0.69454573187E+03  0.00000000000E+00 0.  1.
          1   -1    0    0  501    0  0.00000000000E+00 -0.00000000000E+00 -0.20393441997E+04  0.20393441997E+04  0.00000000000E+00 0. -1.
         23    2    1    2    0    0  0.14133843364E+03 -0.39666514498E+03 -0.19498095290E+04  0.19967616020E+04  0.89330318222E+02 0.  0.
         11    1    3    3    0    0  0.66182865535E+02 -0.10012386838E+03 -0.68857199049E+03  0.69895375154E+03  0.00000000000E+00 0. -1.
        -11    1    3    3    0    0  0.75155568107E+02 -0.29654127660E+03 -0.12612375386E+04  0.12978078505E+04  0.00000000000E+00 0.  1.
         22    1    1    2    0    0 -0.14133843364E+03  0.39666514498E+03  0.60501106119E+03  0.73712832955E+03  0.00000000000E+00 0.  1.
<mgrwt>
<rscale>  0 0.23802671E+04</rscale>
<asrwt>0</asrwt>
<pdfrwt beam="1">  1        1 0.31374526E+00 0.23802671E+04</pdfrwt>
<pdfrwt beam="2">  1       -1 0.10685319E+00 0.23802671E+04</pdfrwt>
<totfact> 0.20552046E+00</totfact>
</mgrwt>
</event>
<event>
 6    1  0.1001928E-005  0.4133156E+04  0.7818608E-02  0.7978210E-01
         -4   -1    0    0    0  501 -0.00000000000E+00  0.00000000000E+00  0.19993998860E+04  0.19993998860E+04  0.00000000000E+00 0.  1.
          4   -1    0    0  501    0  0.00000000000E+00 -0.00000000000E+00 -0.21360137486E+04  0.21360137486E+04  0.00000000000E+00 0. -1.
         23    2    1    2    0    0 -0.38747263408E+03 -0.17792861532E+04 -0.10439410741E+04  0.21009021635E+04  0.89345831110E+02 0.  0.
         11    1    3    3    0    0 -0.22577054217E+03 -0.11482596142E+04 -0.62930587942E+03  0.13287205760E+04  0.00000000000E+00 0. -1.
        -11    1    3    3    0    0 -0.16170209191E+03 -0.63102653906E+03 -0.41463519463E+03  0.77218158755E+03  0.00000000000E+00 0.  1.
         22    1    1    2    0    0  0.38747263408E+03  0.17792861532E+04  0.90732721142E+03  0.20345114710E+04  0.00000000000E+00 0.  1.
<mgrwt>
<rscale>  0 0.41331565E+04</rscale>
<asrwt>0</asrwt>
<pdfrwt beam="1">  1        4 0.32861750E+00 0.41331565E+04</pdfrwt>
<pdfrwt beam="2">  1       -4 0.30759998E+00 0.41331565E+04</pdfrwt>
<totfact> 0.85972581E-04</totfact>
</mgrwt>
</event>
<event>
 6    1  0.1001928E-005  0.2215146E+04  0.7818608E-02  0.8512150E-01
          2   -1    0    0  501    0  0.00000000000E+00  0.00000000000E+00  0.15672500871E+04  0.15672500871E+04  0.00000000000E+00 0. -1.
         -2   -1    0    0    0  501 -0.00000000000E+00 -0.00000000000E+00 -0.78271980311E+03  0.78271980311E+03  0.00000000000E+00 0.  1.
         23    2    1    2    0    0  0.11334732266E+03  0.10858271760E+04  0.57922412730E+03  0.12391058618E+04  0.89523602780E+02 0.  0.
         13    1    3    3    0    0  0.18966604857E+02  0.60017198052E+03  0.32870839738E+03  0.68455485449E+03  0.00000000000E+00 0.  1.
        -13    1    3    3    0    0  0.94380717805E+02  0.48565519545E+03  0.25051572991E+03  0.55455100729E+03  0.00000000000E+00 0. -1.
         22    1    1    2    0    0 -0.11334732266E+03 -0.10858271760E+04  0.20530615667E+03  0.11108640284E+04  0.00000000000E+00 0.  1.
<mgrwt>
<rscale>  0 0.22151458E+04</rscale>
<asrwt>0</asrwt>
<pdfrwt beam="1">  1        2 0.24111540E+00 0.22151458E+04</pdfrwt>
<pdfrwt beam="2">  1       -2 0.12041843E+00 0.22151458E+04</pdfrwt>
<totfact> 0.55916204E+00</totfact>
</mgrwt>
</event>
<event>
 6    1  0.1001928E-005  0.2749770E+04  0.7818608E-02  0.8319035E-01
         -2   -1    0    0    0  501 -0.00000000000E+00  0.00000000000E+00  0.12623426566E+04  0.12623426566E+04  0.00000000000E+00 0.  1.
          2   -1    0    0  501    0  0.00000000000E+00 -0.00000000000E+00 -0.14974606965E+04  0.14974606965E+04  0.00000000000E+00 0. -1.
         23    2    1    2    0    0 -0.61641817388E+03 -0.91403288463E+03 -0.93944743683E+03  0.14515574363E+04  0.95026444611E+02 0.  0.
         13    1    3    3    0    0 -0.13830527804E+03 -0.27846395012E+03 -0.24872142468E+03  0.39816186225E+03  0.00000000000E+00 0.  1.
        -13    1    3    3    0    0 -0.47811289584E+03 -0.63556893450E+03 -0.69072601215E+03  0.10533955741E+04  0.00000000000E+00 0. -1.
         22    1    1    2    0    0  0.61641817388E+03  0.91403288463E+03  0.70432939690E+03  0.13082459167E+04  0.00000000000E+00 0.  1.
<mgrwt>
<rscale>  0 0.27497698E+04</rscale>
<asrwt>0</asrwt>
<pdfrwt beam="1">  1        2 0.23037857E+00 0.27497698E+04</pdfrwt>
<pdfrwt beam="2">  1       -2 0.19420656E+00 0.27497698E+04</pdfrwt>
<totfact> 0.16167713E+00</totfact>
</mgrwt>
</event>
<event>
 6    1  0.1001928E-005  0.1783951E+04  0.7818608E-02  0.8714881E-01
          1   -1    0    0  501    0  0.00000000000E+00  0.00000000000E+00  0.25931010607E+04  0.25931010607E+04  0.00000000000E+00 0. -1.
         -1   -1    0    0    0  501 -0.00000000000E+00 -0.00000000000E+00 -0.30682179536E+03  0.30682179536E+03  0.00000000000E+00 0.  1.
         23    2    1    2    0    0  0.73421774633E+03  0.10901826119E+03  0.34905102057E+03  0.82535929892E+03  0.91764247159E+02 0.  0.
         11    1    3    3    0    0  0.38116273400E+03  0.18195692476E+02  0.20687236474E+03  0.43406484343E+03  0.00000000000E+00 0. -1.
        -11    1    3    3    0    0  0.35305501233E+03  0.90822568719E+02  0.14217865584E+03  0.39129445549E+03  0.00000000000E+00 0.  1.
         22    1    1    2    0    0 -0.73421774633E+03 -0.10901826119E+03  0.19372282447E+04  0.20745635571E+04  0.00000000000E+00 0. -1.
<mgrwt>
<rscale>  0 0.17839506E+04</rscale>
<asrwt>0</asrwt>
<pdfrwt beam="1">  1        1 0.39893861E+00 0.17839506E+04</pdfrwt>
<pdfrwt beam="2">  1       -1 0.47203355E-01 0.17839506E+04</pdfrwt>
<totfact> 0.49427766E+00</totfact>
</mgrwt>
</event>
<event>
 6    1  0.1001928E-005  0.2115572E+04  0.7818608E-02  0.8554415E-01
         -2   -1    0    0    0  501 -0.00000000000E+00  0.00000000000E+00  0.38176283937E+04  0.38176283937E+04  0.00000000000E+00 0.  1.
          2   -1    0    0  501    0  0.00000000000E+00 -0.00000000000E+00 -0.29309057410E+03  0.29309057410E+03  0.00000000000E+00 0. -1.
         23    2    1    2    0    0  0.77680234669E+03 -0.68189186060E+03  0.13470176549E+04  0.17003263726E+04  0.90856014532E+02 0.  0.
         11    1    3    3    0    0  0.68524340117E+03 -0.63502433053E+03  0.12289334950E+04  0.15437266449E+04  0.00000000000E+00 0. -1.
        -11    1    3    3    0    0  0.91558945513E+02 -0.46867530065E+02  0.11808415989E+03  0.15659972763E+03  0.00000000000E+00 0.  1.
         22    1    1    2    0    0 -0.77680234669E+03  0.68189186060E+03  0.21775201648E+04  0.24103925953E+04  0.00000000000E+00 0.  1.
<mgrwt>
<rscale>  0 0.21155717E+04</rscale>
<asrwt>0</asrwt>
<pdfrwt beam="1">  1        2 0.45090860E-01 0.21155717E+04</pdfrwt>
<pdfrwt beam="2">  1       -2 0.58732741E+00 0.21155717E+04</pdfrwt>
<totfact> 0.58152678E-02</totfact>
</mgrwt>
</event>
<event>
 6    1  0.1001928E-005  0.2861625E+04  0.7818608E-02  0.8284388E-01
         -1   -1    0    0    0  501 -0.00000000000E+00  0.00000000000E+00  0.18517972249E+04  0.18517972249E+04  0.00000000000E+00 0.  1.
          1   -1    0    0  501    0  0.00000000000E+00 -0.00000000000E+00 -0.11055335363E+04  0.11055335363E+04  0.00000000000E+00 0. -1.
         23    2    1    2    0    0  0.22414204827E+03  0.13972545100E+04  0.58158475714E+03  0.15326627388E+04  0.90853825963E+02 0.  0.
         13    1    3    3    0    0  0.31043685166E+02  0.42889151335E+03  0.15620128621E+03  0.45750462558E+03  0.00000000000E+00 0.  1.
        -13    1    3    3    0    0  0.19309836311E+03  0.96836299664E+03  0.42538347092E+03  0.10751581132E+04  0.00000000000E+00 0. -1.
         22    1    1    2    0    0 -0.22414204827E+03 -0.13972545100E+04  0.16467893143E+03  0.14246680224E+04  0.00000000000E+00 0. -1.
<mgrwt>
<rscale>  0 0.28616247E+04</rscale>
<asrwt>0</asrwt>
<pdfrwt beam="1">  1        1 0.17008208E+00 0.28616247E+04</pdfrwt>
<pdfrwt beam="2">  1       -1 0.28489188E+00 0.28616247E+04</pdfrwt>
<totfact> 0.44742561E-01</totfact>
</mgrwt>
</event>
<event>
 6    1  0.1001928E-005  0.3674190E+04  0.7818608E-02  0.8073706E-01
         -1   -1    0    0    0  501 -0.00000000000E+00  0.00000000000E+00  0.11983004139E+04  0.11983004139E+04  0.00000000000E+00 0. -1.
          1   -1    0    0  501    0  0.00000000000E+00 -0.00000000000E+00 -0.28164205823E+04  0.28164205823E+04  0.00000000000E+00 0.  1.
         23    2    1    2    0    0  0.31843700605E+03  0.85971165009E+03 -0.25476863866E+04  0.27091178396E+04  0.90040525191E+02 0.  0.
         13    1    3    3    0    0  0.19416547957E+03  0.59527289946E+03 -0.18339342634E+04  0.19378763998E+04  0.00000000000E+00 0. -1.
        -13    1    3    3    0    0  0.12427152649E+03  0.26443875063E+03 -0.71375212325E+03  0.77124143986E+03  0.00000000000E+00 0.  1.
         22    1    1    2    0    0 -0.31843700605E+03 -0.85971165009E+03  0.92956621830E+03  0.13056031565E+04  0.00000000000E+00 0. -1.
<mgrwt>
<rscale>  0 0.36741900E+04</rscale>
<asrwt>0</asrwt>
<pdfrwt beam="1">  1        1 0.43329547E+00 0.36741900E+04</pdfrwt>
<pdfrwt beam="2">  1       -1 0.18435391E+00 0.36741900E+04</pdfrwt>
<totfact> 0.12629313E-01</totfact>
</mgrwt>
</event>
<event>
 6    1  0.1001928E-005  0.2878027E+04  0.7818608E-02  0.8279445E-01
         -2   -1    0    0    0  501 -0.00000000000E+00  0.00000000000E+00  0.68841807630E+03  0.68841807630E+03  0.00000000000E+00 0.  1.
          2   -1    0    0  501    0  0.00000000000E+00 -0.00000000000E+00 -0.30079984154E+04  0.30079984154E+04  0.00000000000E+00 0. -1.
         23    2    1    2    0    0 -0.52247333853E+03  0.87451891245E+02  0.55546348557E+03  0.77297618678E+03  0.91248445294E+02 0.  0.
         11    1    3    3    0    0 -0.24229628109E+03  0.75583210912E+01  0.29821273833E+03  0.38431166174E+03  0.00000000000E+00 0. -1.
        -11    1    3    3    0    0 -0.28017705744E+03  0.79893570154E+02  0.25725074724E+03  0.38866452504E+03  0.00000000000E+00 0.  1.
         22    1    1    2    0    0  0.52247333853E+03 -0.87451891245E+02 -0.28750438247E+04  0.29234403049E+04  0.00000000000E+00 0. -1.
<mgrwt>
<rscale>  0 0.28780274E+04</rscale>
<asrwt>0</asrwt>
<pdfrwt beam="1">  1        2 0.46276900E+00 0.28780274E+04</pdfrwt>
<pdfrwt beam="2">  1       -2 0.10591047E+00 0.28780274E+04</pdfrwt>
<totfact> 0.10708791E+00</totfact>
</mgrwt>
</event>
<event>
 6    1  0.1001928E-005  0.1864739E+04  0.7818608E-02  0.8672610E-01
         -2   -1    0    0    0  501 -0.00000000000E+00  0.00000000000E+00  0.35183019995E+03  0.35183019995E+03  0.00000000000E+00 0.  1.
          2   -1    0    0  501    0  0.00000000000E+00 -0.00000000000E+00 -0.24708319286E+04  0.24708319286E+04  0.00000000000E+00 0. -1.
         23    2    1    2    0    0  0.78822163146E+03  0.49190702220E+03 -0.10028139142E+04  0.13703739010E+04  0.94989595244E+02 0.  0.
         11    1    3    3    0    0  0.43656654987E+03  0.25285798270E+03 -0.60879599366E+03  0.79067064811E+03  0.00000000000E+00 0.  1.
        -11    1    3    3    0    0  0.35165508158E+03  0.23904903950E+03 -0.39401792052E+03  0.57970325287E+03  0.00000000000E+00 0. -1.
         22    1    1    2    0    0 -0.78822163146E+03 -0.49190702220E+03 -0.11161878145E+04  0.14522882276E+04  0.00000000000E+00 0. -1.
<mgrwt>
<rscale>  0 0.18647394E+04</rscale>
<asrwt>0</asrwt>
<pdfrwt beam="1">  1        2 0.38012801E+00 0.18647394E+04</pdfrwt>
<pdfrwt beam="2">  1       -2 0.54127720E-01 0.18647394E+04</pdfrwt>
<totfact> 0.10934087E+01</totfact>
</mgrwt>
</event>
<event>
 6    1  0.1001928E-005  0.3122751E+04  0.7818608E-02  0.8209522E-01
         -2   -1    0    0    0  501 -0.00000000000E+00  0.00000000000E+00  0.63868921874E+03  0.63868921874E+03  0.00000000000E+00 0. -1.
          2   -1    0    0  501    0  0.00000000000E+00 -0.00000000000E+00 -0.38170259266E+04  0.38170259266E+04  0.00000000000E+00 0.  1.
         23    2    1    2    0    0 -0.51233930825E+03  0.13717398643E+04 -0.82273022160E+03  0.16820814745E+04  0.91385158789E+02 0.  0.
         11    1    3    3    0    0 -0.18134355690E+03  0.39134539065E+03 -0.27147194528E+03  0.50964077298E+03  0.00000000000E+00 0.  1.
        -11    1    3    3    0    0 -0.33099575135E+03  0.98039447361E+03 -0.55125827633E+03  0.11724407015E+04  0.00000000000E+00 0. -1.
         22    1    1    2    0    0  0.51233930825E+03 -0.13717398643E+04 -0.23556064863E+04  0.27736336709E+04  0.00000000000E+00 0.  1.
<mgrwt>
<rscale>  0 0.31227509E+04</rscale>
<asrwt>0</asrwt>
<pdfrwt beam="1">  1        2 0.58723476E+00 0.31227509E+04</pdfrwt>
<pdfrwt beam="2">  1       -2 0.98259879E-01 0.31227509E+04</pdfrwt>
<totfact> 0.34735235E-01</totfact>
</mgrwt>
</event>
<event>
 6    1  0.1001928E-005  0.3465001E+04  0.7818608E-02  0.8122135E-01
         -2   -1    0    0    0  501 -0.00000000000E+00  0.00000000000E+00  0.12215840359E+04  0.12215840359E+04  0.00000000000E+00 0.  1.
          2   -1    0    0  501    0  0.00000000000E+00 -0.00000000000E+00 -0.24571034076E+04  0.24571034076E+04  0.00000000000E+00 0. -1.
         23    2    1    2    0    0 -0.13339720746E+04 -0.10963123001E+04 -0.75189719574E+03  0.18855693313E+04  0.92952433390E+02 0.  0.
         11    1    3    3    0    0 -0.10553507544E+04 -0.87705464754E+03 -0.55675522769E+03  0.14808667911E+04  0.00000000000E+00 0. -1.
        -11    1    3    3    0    0 -0.27862132027E+03 -0.21925765255E+03 -0.19514196806E+03  0.40470254015E+03  0.00000000000E+00 0.  1.
         22    1    1    2    0    0  0.13339720746E+04  0.10963123001E+04 -0.48362217590E+03  0.17931181122E+04  0.00000000000E+00 0.  1.
<mgrwt>
<rscale>  0 0.34650012E+04</rscale>
<asrwt>0</asrwt>
<pdfrwt beam="1">  1        2 0.37801590E+00 0.34650012E+04</pdfrwt>
<pdfrwt beam="2">  1       -2 0.18793601E+00 0.34650012E+04</pdfrwt>
<totfact> 0.48606365E-01</totfact>
</mgrwt>
</event>
<event>
 6    1  0.1001928E-005  0.2852847E+04  0.7818608E-02  0.8287047E-01
         -1   -1    0    0    0  501 -0.00000000000E+00  0.00000000000E+00  0.15544101189E+04  0.15544101189E+04  0.00000000000E+00 0.  1.
          1   -1    0    0  501    0  0.00000000000E+00 -0.00000000000E+00 -0.13089754183E+04  0.13089754183E+04  0.00000000000E+00 0. -1.
         23    2    1    2    0    0  0.13417378446E+04  0.38328600318E+03  0.41288011390E+03  0.14579651124E+04  0.89574977690E+02 0.  0.
         11    1    3    3    0    0  0.97934828772E+03  0.30136846396E+03  0.26757747206E+03  0.10590296140E+04  0.00000000000E+00 0. -1.
        -11    1    3    3    0    0  0.36238955691E+03  0.81917539221E+02  0.14530264184E+03  0.39893549844E+03  0.00000000000E+00 0.  1.
         22    1    1    2    0    0 -0.13417378446E+04 -0.38328600318E+03 -0.16744541337E+03  0.14054204248E+04  0.00000000000E+00 0. -1.
<mgrwt>
<rscale>  0 0.28528474E+04</rscale>
<asrwt>0</asrwt>
<pdfrwt beam="1">  1        1 0.20138083E+00 0.28528474E+04</pdfrwt>
<pdfrwt beam="2">  1       -1 0.23914002E+00 0.28528474E+04</pdfrwt>
<totfact> 0.63091915E-01</totfact>
</mgrwt>
</event>
<event>
 6    1  0.1001928E-005  0.3594331E+04  0.7818608E-02  0.8091791E-01
          1   -1    0    0  501    0  0.00000000000E+00  0.00000000000E+00  0.18778820434E+04  0.18778820434E+04  0.00000000000E+00 0.  1.
         -1   -1    0    0    0  501 -0.00000000000E+00 -0.00000000000E+00 -0.17199183105E+04  0.17199183105E+04  0.00000000000E+00 0. -1.
         23    2    1    2    0    0  0.12873873523E+04 -0.12245436181E+04  0.34138929704E+03  0.18115981802E+04  0.92021990674E+02 0.  0.
         13    1    3    3    0    0  0.65692220820E+03 -0.63581011599E+03  0.12951224351E+03  0.92334972380E+03  0.00000000000E+00 0.  1.
        -13    1    3    3    0    0  0.63046514412E+03 -0.58873350212E+03  0.21187705353E+03  0.88824845639E+03  0.00000000000E+00 0. -1.
         22    1    1    2    0    0 -0.12873873523E+04  0.12245436181E+04 -0.18342556411E+03  0.17862021736E+04  0.00000000000E+00 0.  1.
<mgrwt>
<rscale>  0 0.35943309E+04</rscale>
<asrwt>0</asrwt>
<pdfrwt beam="1">  1        1 0.28890493E+00 0.35943309E+04</pdfrwt>
<pdfrwt beam="2">  1       -1 0.26460282E+00 0.35943309E+04</pdfrwt>
<totfact> 0.16351974E-01</totfact>
</mgrwt>
</event>
<event>
 6    1  0.1001928E-005  0.2577617E+04  0.7818608E-02  0.8375844E-01
          2   -1    0    0  501    0  0.00000000000E+00  0.00000000000E+00  0.20462437534E+04  0.20462437534E+04  0.00000000000E+00 0. -1.
         -2   -1    0    0    0  501 -0.00000000000E+00 -0.00000000000E+00 -0.81174433451E+03  0.81174433451E+03  0.00000000000E+00 0.  1.
         23    2    1    2    0    0 -0.56923441115E+03  0.72496831220E+03  0.16142391848E+04  0.18610883144E+04  0.90965376706E+02 0.  0.
         11    1    3    3    0    0 -0.35221976455E+03  0.45072080948E+03  0.91121704714E+03  0.10758831338E+04  0.00000000000E+00 0. -1.
        -11    1    3    3    0    0 -0.21701464660E+03  0.27424750272E+03  0.70302213767E+03  0.78520518060E+03  0.00000000000E+00 0.  1.
         22    1    1    2    0    0  0.56923441115E+03 -0.72496831220E+03 -0.37973976594E+03  0.99689977348E+03  0.00000000000E+00 0.  1.
<mgrwt>
<rscale>  0 0.25776166E+04</rscale>
<asrwt>0</asrwt>
<pdfrwt beam="1">  1        2 0.31480673E+00 0.25776166E+04</pdfrwt>
<pdfrwt beam="2">  1       -2 0.12488374E+00 0.25776166E+04</pdfrwt>
<totfact> 0.26816714E+00</totfact>
</mgrwt>
</event>
<event>
 6    1  0.1016486E-005  0.2729978E+04  0.7818608E-02  0.8325343E-01
         -2   -1    0    0    0  501 -0.00000000000E+00  0.00000000000E+00  0.20068638980E+04  0.20068638980E+04  0.00000000000E+00 0.  1.
          2   -1    0    0  501    0  0.00000000000E+00 -0.00000000000E+00 -0.92841109339E+03  0.92841109339E+03  0.00000000000E+00 0. -1.
         23    2    1    2    0    0  0.12269461673E+03 -0.13567500795E+04  0.60554562518E+03  0.14932396425E+04  0.85172639456E+02 0.  0.
         13    1    3    3    0    0  0.75726275940E+02 -0.45673314992E+03  0.22883446789E+03  0.51643475174E+03  0.00000000000E+00 0.  1.
        -13    1    3    3    0    0  0.46968340795E+02 -0.90001692955E+03  0.37671115729E+03  0.97680489072E+03  0.00000000000E+00 0. -1.
         22    1    1    2    0    0 -0.12269461673E+03  0.13567500795E+04  0.47290717938E+03  0.14420353489E+04  0.00000000000E+00 0. -1.
<mgrwt>
<rscale>  0 0.27299778E+04</rscale>
<asrwt>0</asrwt>
<pdfrwt beam="1">  1        2 0.14283248E+00 0.27299778E+04</pdfrwt>
<pdfrwt beam="2">  1       -2 0.30874829E+00 0.27299778E+04</pdfrwt>
<totfact> 0.68978295E-01</totfact>
</mgrwt>
</event>
<event>
 6    1  0.1001928E-005  0.2706141E+04  0.7818608E-02  0.8333015E-01
         -1   -1    0    0    0  501 -0.00000000000E+00  0.00000000000E+00  0.15375668311E+04  0.15375668311E+04  0.00000000000E+00 0.  1.
          1   -1    0    0  501    0  0.00000000000E+00 -0.00000000000E+00 -0.11907124929E+04  0.11907124929E+04  0.00000000000E+00 0. -1.
         23    2    1    2    0    0 -0.93010812163E+03  0.96953635441E+03  0.25650327947E+02  0.13468764585E+04  0.91194269761E+02 0.  0.
         11    1    3    3    0    0 -0.39479168582E+03  0.47681704115E+03  0.70368732359E+01  0.61908358362E+03  0.00000000000E+00 0.  1.
        -11    1    3    3    0    0 -0.53531643580E+03  0.49271931326E+03  0.18613454711E+02  0.72779287493E+03  0.00000000000E+00 0. -1.
         22    1    1    2    0    0  0.93010812163E+03 -0.96953635441E+03  0.32120401024E+03  0.13814028654E+04  0.00000000000E+00 0.  1.
<mgrwt>
<rscale>  0 0.27061412E+04</rscale>
<asrwt>0</asrwt>
<pdfrwt beam="1">  1        1 0.18318654E+00 0.27061412E+04</pdfrwt>
<pdfrwt beam="2">  1       -1 0.23654874E+00 0.27061412E+04</pdfrwt>
<totfact> 0.80923407E-01</totfact>
</mgrwt>
</event>
<event>
 6    1  0.1001928E-005  0.3058689E+04  0.7818608E-02  0.8227168E-01
         -1   -1    0    0    0  501 -0.00000000000E+00  0.00000000000E+00  0.90014892813E+03  0.90014892813E+03  0.00000000000E+00 0.  1.
          1   -1    0    0  501    0  0.00000000000E+00 -0.00000000000E+00 -0.25983424565E+04  0.25983424565E+04  0.00000000000E+00 0. -1.
         23    2    1    2    0    0  0.53051396462E+03 -0.93455659228E+03  0.39248868278E+03  0.11477908085E+04  0.92386595504E+02 0.  0.
         11    1    3    3    0    0  0.47284535223E+03 -0.82711841202E+03  0.37804917169E+03  0.10250018394E+04  0.00000000000E+00 0.  1.
        -11    1    3    3    0    0  0.57668612384E+02 -0.10743818026E+03  0.14439511095E+02  0.12278896902E+03  0.00000000000E+00 0. -1.
         22    1    1    2    0    0 -0.53051396462E+03  0.93455659228E+03 -0.20906822112E+04  0.23507005762E+04  0.00000000000E+00 0. -1.
<mgrwt>
<rscale>  0 0.30586894E+04</rscale>
<asrwt>0</asrwt>
<pdfrwt beam="1">  1        1 0.39974499E+00 0.30586894E+04</pdfrwt>
<pdfrwt beam="2">  1       -1 0.13848445E+00 0.30586894E+04</pdfrwt>
<totfact> 0.42230184E-01</totfact>
</mgrwt>
</event>
<event>
 6    1  0.1001928E-005  0.3450306E+04  0.7818608E-02  0.8125669E-01
         -1   -1    0    0    0  501 -0.00000000000E+00  0.00000000000E+00  0.93462225825E+03  0.93462225825E+03  0.00000000000E+00 0.  1.
          1   -1    0    0  501    0  0.00000000000E+00 -0.00000000000E+00 -0.31843383944E+04  0.31843383944E+04  0.00000000000E+00 0. -1.
         23    2    1    2    0    0  0.13207908430E+04  0.14878593670E+03  0.18497634559E+03  0.13450909393E+04  0.91802401211E+02 0.  0.
         13    1    3    3    0    0  0.73243959624E+03  0.52812740295E+02  0.66901554487E+02  0.73738237412E+03  0.00000000000E+00 0.  1.
        -13    1    3    3    0    0  0.58835124672E+03  0.95973196403E+02  0.11807479110E+03  0.60770856521E+03  0.00000000000E+00 0. -1.
         22    1    1    2    0    0 -0.13207908430E+04 -0.14878593670E+03 -0.24346924817E+04  0.27738697133E+04  0.00000000000E+00 0. -1.
<mgrwt>
<rscale>  0 0.34503064E+04</rscale>
<asrwt>0</asrwt>
<pdfrwt beam="1">  1        1 0.48989821E+00 0.34503064E+04</pdfrwt>
<pdfrwt beam="2">  1       -1 0.14378804E+00 0.34503064E+04</pdfrwt>
<totfact> 0.13963852E-01</totfact>
</mgrwt>
</event>
<event>
 6    1  0.1001928E-005  0.1848043E+04  0.7818608E-02  0.8681160E-01
         -1   -1    0    0    0  501 -0.00000000000E+00  0.00000000000E+00  0.41830610634E+03  0.41830610634E+03  0.00000000000E+00 0.  1.
          1   -1    0    0  501    0  0.00000000000E+00 -0.00000000000E+00 -0.20411266741E+04  0.20411266741E+04  0.00000000000E+00 0. -1.
         23    2    1    2    0    0  0.74712508076E+02  0.82717779318E+03 -0.28212733496E+03  0.88232675836E+03  0.95391902171E+02 0.  0.
         11    1    3    3    0    0  0.60671770015E+02  0.44067750586E+03 -0.10563955813E+03  0.45720612866E+03  0.00000000000E+00 0.  1.
        -11    1    3    3    0    0  0.14040738061E+02  0.38650028732E+03 -0.17648777683E+03  0.42512062970E+03  0.00000000000E+00 0. -1.
         22    1    1    2    0    0 -0.74712508076E+02 -0.82717779318E+03 -0.13406932328E+04  0.15771060220E+04  0.00000000000E+00 0. -1.
<mgrwt>
<rscale>  0 0.18480430E+04</rscale>
<asrwt>0</asrwt>
<pdfrwt beam="1">  1        1 0.31401949E+00 0.18480430E+04</pdfrwt>
<pdfrwt beam="2">  1       -1 0.64354785E-01 0.18480430E+04</pdfrwt>
<totfact> 0.64303537E+00</totfact>
</mgrwt>
</event>
<event>
 6    1  0.1001928E-005  0.3101454E+04  0.7818608E-02  0.8215339E-01
          1   -1    0    0  501    0  0.00000000000E+00  0.00000000000E+00  0.72248984649E+03  0.72248984649E+03  0.00000000000E+00 0. -1.
         -1   -1    0    0    0  501 -0.00000000000E+00 -0.00000000000E+00 -0.33284268441E+04  0.33284268441E+04  0.00000000000E+00 0.  1.
         23    2    1    2    0    0 -0.14347500898E+04  0.27530460177E+03 -0.19780026777E+04  0.24607588513E+04  0.92407181570E+02 0.  0.
         13    1    3    3    0    0 -0.89800465432E+03  0.20930943384E+03 -0.12899255611E+04  0.15856010694E+04  0.00000000000E+00 0. -1.
        -13    1    3    3    0    0 -0.53674543544E+03  0.65995167927E+02 -0.68807711666E+03  0.87515778185E+03  0.00000000000E+00 0.  1.
         22    1    1    2    0    0  0.14347500898E+04 -0.27530460177E+03 -0.62793431986E+03  0.15901578393E+04  0.00000000000E+00 0. -1.
<mgrwt>
<rscale>  0 0.31014542E+04</rscale>
<asrwt>0</asrwt>
<pdfrwt beam="1">  1        1 0.11115229E+00 0.31014542E+04</pdfrwt>
<pdfrwt beam="2">  1       -1 0.51206566E+00 0.31014542E+04</pdfrwt>
<totfact> 0.27260327E-02</totfact>
</mgrwt>
</event>
<event>
 6    1  0.1001928E-005  0.2347708E+04  0.7818608E-02  0.8459344E-01
         -1   -1    0    0    0  501 -0.00000000000E+00  0.00000000000E+00  0.45353045674E+03  0.45353045674E+03  0.00000000000E+00 0.  1.
          1   -1    0    0  501    0  0.00000000000E+00 -0.00000000000E+00 -0.30382385684E+04  0.30382385684E+04  0.00000000000E+00 0. -1.
         23    2    1    2    0    0  0.20801398877E+03 -0.30762223386E+03 -0.29477240553E+04  0.29724600288E+04  0.92413519677E+02 0.  0.
         13    1    3    3    0    0  0.21012515931E+02 -0.10248546009E+03 -0.87488055761E+03  0.88111337831E+03  0.00000000000E+00 0.  1.
        -13    1    3    3    0    0  0.18700147284E+03 -0.20513677377E+03 -0.20728434977E+04  0.20913466505E+04  0.00000000000E+00 0. -1.
         22    1    1    2    0    0 -0.20801398877E+03  0.30762223386E+03  0.36301594364E+03  0.51930899629E+03  0.00000000000E+00 0.  1.
<mgrwt>
<rscale>  0 0.23477084E+04</rscale>
<asrwt>0</asrwt>
<pdfrwt beam="1">  1        1 0.46742133E+00 0.23477084E+04</pdfrwt>
<pdfrwt beam="2">  1       -1 0.69773915E-01 0.23477084E+04</pdfrwt>
<totfact> 0.10483167E+00</totfact>
</mgrwt>
</event>
<event>
 6    1  0.1001928E-005  0.2997023E+04  0.7818608E-02  0.8244582E-01
          1   -1    0    0  501    0  0.00000000000E+00  0.00000000000E+00  0.24421381121E+04  0.24421381121E+04  0.00000000000E+00 0. -1.
         -1   -1    0    0    0  501 -0.00000000000E+00 -0.00000000000E+00 -0.91949590325E+03  0.91949590325E+03  0.00000000000E+00 0.  1.
         23    2    1    2    0    0 -0.14584460741E+04 -0.15902503326E+03  0.10959743838E+04  0.18337598893E+04  0.95716088332E+02 0.  0.
         11    1    3    3    0    0 -0.12472409278E+04 -0.16970215074E+03  0.93741478058E+03  0.15694442401E+04  0.00000000000E+00 0. -1.
        -11    1    3    3    0    0 -0.21120514626E+03  0.10677117474E+02  0.15855960322E+03  0.26431564921E+03  0.00000000000E+00 0.  1.
         22    1    1    2    0    0  0.14584460741E+04  0.15902503326E+03  0.42666782505E+03  0.15278741261E+04  0.00000000000E+00 0.  1.
<mgrwt>
<rscale>  0 0.29970225E+04</rscale>
<asrwt>0</asrwt>
<pdfrwt beam="1">  1        1 0.37571355E+00 0.29970225E+04</pdfrwt>
<pdfrwt beam="2">  1       -1 0.14146091E+00 0.29970225E+04</pdfrwt>
<totfact> 0.51571505E-01</totfact>
</mgrwt>
</event>
<event>
 6    1  0.1001928E-005  0.6625515E+03  0.7818608E-02  0.9783508E-01
          2   -1    0    0  501    0  0.00000000000E+00  0.00000000000E+00  0.65870923928E+03  0.65870923928E+03  0.00000000000E+00 0. -1.
         -2   -1    0    0    0  501 -0.00000000000E+00 -0.00000000000E+00 -0.16660405335E+03  0.16660405335E+03  0.00000000000E+00 0.  1.
         23    2    1    2    0    0 -0.13584398650E+03  0.27991210422E+03  0.36746973915E+03  0.49014412735E+03  0.91667233133E+02 0.  0.
         13    1    3    3    0    0 -0.94000123509E+02  0.17774910569E+03  0.29871370732E+03  0.36008422172E+03  0.00000000000E+00 0. -1.
        -13    1    3    3    0    0 -0.41843862987E+02  0.10216299854E+03  0.68756031828E+02  0.13005990563E+03  0.00000000000E+00 0.  1.
         22    1    1    2    0    0  0.13584398650E+03 -0.27991210422E+03  0.12463544678E+03  0.33516916528E+03  0.00000000000E+00 0. -1.
<mgrwt>
<rscale>  0 0.66255152E+03</rscale>
<asrwt>0</asrwt>
<pdfrwt beam="1">  1        2 0.10133988E+00 0.66255152E+03</pdfrwt>
<pdfrwt beam="2">  1       -2 0.25631393E-01 0.66255152E+03</pdfrwt>
<totfact> 0.60938025E+02</totfact>
</mgrwt>
</event>
<event>
 6    1  0.1001928E-005  0.3112343E+04  0.7818608E-02  0.8212359E-01
          1   -1    0    0  501    0  0.00000000000E+00  0.00000000000E+00  0.18600353655E+04  0.18600353655E+04  0.00000000000E+00 0. -1.
         -1   -1    0    0    0  501 -0.00000000000E+00 -0.00000000000E+00 -0.13019486345E+04  0.13019486345E+04  0.00000000000E+00 0.  1.
         23    2    1    2    0    0  0.11686601753E+04  0.55176382096E+03  0.11574881048E+04  0.17373816252E+04  0.92229493550E+02 0.  0.
         11    1    3    3    0    0  0.93677159060E+03  0.40493194557E+03  0.88948667801E+03  0.13537715627E+04  0.00000000000E+00 0. -1.
        -11    1    3    3    0    0  0.23188858466E+03  0.14683187540E+03  0.26800142678E+03  0.38361006255E+03  0.00000000000E+00 0.  1.
         22    1    1    2    0    0 -0.11686601753E+04 -0.55176382096E+03 -0.59940137375E+03  0.14246023748E+04  0.00000000000E+00 0.  1.
<mgrwt>
<rscale>  0 0.31123435E+04</rscale>
<asrwt>0</asrwt>
<pdfrwt beam="1">  1        1 0.28615929E+00 0.31123435E+04</pdfrwt>
<pdfrwt beam="2">  1       -1 0.20029979E+00 0.31123435E+04</pdfrwt>
<totfact> 0.46829764E-01</totfact>
</mgrwt>
</event>
<event>
 6    1  0.1038770E-005  0.3862469E+04  0.7818608E-02  0.8032880E-01
         -2   -1    0    0    0  501 -0.00000000000E+00  0.00000000000E+00  0.17408024014E+04  0.17408024014E+04  0.00000000000E+00 0.  1.
          2   -1    0    0  501    0  0.00000000000E+00 -0.00000000000E+00 -0.21424986952E+04  0.21424986952E+04  0.00000000000E+00 0. -1.
         23    2    1    2    0    0 -0.16952176636E+03  0.19209155958E+04 -0.28624022340E+03  0.19514666161E+04  0.87373523971E+02 0.  0.
         13    1    3    3    0    0 -0.11183786390E+03  0.93989882408E+03 -0.10722247023E+03  0.95258289163E+03  0.00000000000E+00 0.  1.
        -13    1    3    3    0    0 -0.57683902452E+02  0.98101677176E+03 -0.17901775316E+03  0.99888372448E+03  0.00000000000E+00 0. -1.
         22    1    1    2    0    0  0.16952176636E+03 -0.19209155958E+04 -0.11545607038E+03  0.19318344804E+04  0.00000000000E+00 0. -1.
<mgrwt>
<rscale>  0 0.38624691E+04</rscale>
<asrwt>0</asrwt>
<pdfrwt beam="1">  1        2 0.32961518E+00 0.38624691E+04</pdfrwt>
<pdfrwt beam="2">  1       -2 0.26781575E+00 0.38624691E+04</pdfrwt>
<totfact> 0.22179485E-01</totfact>
</mgrwt>
</event>
<event>
 6    1  0.1001928E-005  0.2892726E+04  0.7818608E-02  0.8275045E-01
          2   -1    0    0  501    0  0.00000000000E+00  0.00000000000E+00  0.12735224983E+04  0.12735224983E+04  0.00000000000E+00 0. -1.
         -2   -1    0    0    0  501 -0.00000000000E+00 -0.00000000000E+00 -0.16426607856E+04  0.16426607856E+04  0.00000000000E+00 0.  1.
         23    2    1    2    0    0  0.80210707300E+03 -0.69551366464E+03  0.80335472698E+03  0.13344579971E+04  0.91018208881E+02 0.  0.
         11    1    3    3    0    0  0.60710000666E+03 -0.47809361631E+03  0.60494437112E+03  0.98137740762E+03  0.00000000000E+00 0. -1.
        -11    1    3    3    0    0  0.19500706634E+03 -0.21742004832E+03  0.19841035586E+03  0.35308058946E+03  0.00000000000E+00 0.  1.
         22    1    1    2    0    0 -0.80210707300E+03  0.69551366464E+03 -0.11724930143E+04  0.15817252868E+04  0.00000000000E+00 0.  1.
<mgrwt>
<rscale>  0 0.28927257E+04</rscale>
<asrwt>0</asrwt>
<pdfrwt beam="1">  1        2 0.19592654E+00 0.28927257E+04</pdfrwt>
<pdfrwt beam="2">  1       -2 0.25271704E+00 0.28927257E+04</pdfrwt>
<totfact> 0.91486571E-01</totfact>
</mgrwt>
</event>
<event>
 6    1  0.1001928E-005  0.8403465E+03  0.7818608E-02  0.9503386E-01
          1   -1    0    0  501    0  0.00000000000E+00  0.00000000000E+00  0.21747194319E+04  0.21747194319E+04  0.00000000000E+00 0. -1.
         -1   -1    0    0    0  501 -0.00000000000E+00 -0.00000000000E+00 -0.81180849569E+02  0.81180849569E+02  0.00000000000E+00 0.  1.
         23    2    1    2    0    0 -0.67708346572E+02  0.37131752330E+03  0.59696499772E+03  0.71246462766E+03  0.93688386975E+02 0.  0.
         11    1    3    3    0    0 -0.13752410406E+02  0.10018072226E+03  0.91666573373E+02  0.13648467525E+03  0.00000000000E+00 0. -1.
        -11    1    3    3    0    0 -0.53955936166E+02  0.27113680104E+03  0.50529842435E+03  0.57597995240E+03  0.00000000000E+00 0.  1.
         22    1    1    2    0    0  0.67708346572E+02 -0.37131752330E+03  0.14965735846E+04  0.15434356538E+04  0.00000000000E+00 0. -1.
<mgrwt>
<rscale>  0 0.84034653E+03</rscale>
<asrwt>0</asrwt>
<pdfrwt beam="1">  1        1 0.33457218E+00 0.84034653E+03</pdfrwt>
<pdfrwt beam="2">  1       -1 0.12489363E-01 0.84034653E+03</pdfrwt>
<totfact> 0.10283346E+02</totfact>
</mgrwt>
</event>
<event>
 6    1  0.1001928E-005  0.1536875E+04  0.7818608E-02  0.8860295E-01
         -2   -1    0    0    0  501 -0.00000000000E+00  0.00000000000E+00  0.30284027358E+03  0.30284027358E+03  0.00000000000E+00 0.  1.
          2   -1    0    0  501    0  0.00000000000E+00 -0.00000000000E+00 -0.19498603459E+04  0.19498603459E+04  0.00000000000E+00 0. -1.
         23    2    1    2    0    0 -0.55802082172E+03 -0.43192941616E+03 -0.12618792135E+04  0.14487828754E+04  0.93179465151E+02 0.  0.
         11    1    3    3    0    0 -0.32162085845E+03 -0.22041314653E+03 -0.61255128715E+03  0.72611363514E+03  0.00000000000E+00 0.  1.
        -11    1    3    3    0    0 -0.23639996327E+03 -0.21151626963E+03 -0.64932792632E+03  0.72266924028E+03  0.00000000000E+00 0. -1.
         22    1    1    2    0    0  0.55802082172E+03  0.43192941616E+03 -0.38514085881E+03  0.80391774401E+03  0.00000000000E+00 0.  1.
<mgrwt>
<rscale>  0 0.15368751E+04</rscale>
<asrwt>0</asrwt>
<pdfrwt beam="1">  1        2 0.29997852E+00 0.15368751E+04</pdfrwt>
<pdfrwt beam="2">  1       -2 0.46590811E-01 0.15368751E+04</pdfrwt>
<totfact> 0.29985585E+01</totfact>
</mgrwt>
</event>
<event>
 6    1  0.1001928E-005  0.2312195E+04  0.7818608E-02  0.8473128E-01
         -1   -1    0    0    0  501 -0.00000000000E+00  0.00000000000E+00  0.13339315547E+04  0.13339315547E+04  0.00000000000E+00 0.  1.
          1   -1    0    0  501    0  0.00000000000E+00 -0.00000000000E+00 -0.10019715460E+04  0.10019715460E+04  0.00000000000E+00 0. -1.
         23    2    1    2    0    0  0.28651504366E+03  0.11476030085E+03 -0.95748855568E+03  0.10100304080E+04  0.90090476037E+02 0.  0.
         13    1    3    3    0    0  0.15133274780E+02 -0.95304102507E+01 -0.11156181524E+03  0.11298620865E+03  0.00000000000E+00 0. -1.
        -13    1    3    3    0    0  0.27138176888E+03  0.12429071110E+03 -0.84592674044E+03  0.89704419933E+03  0.00000000000E+00 0.  1.
         22    1    1    2    0    0 -0.28651504366E+03 -0.11476030085E+03  0.12894485644E+04  0.13258726926E+04  0.00000000000E+00 0.  1.
<mgrwt>
<rscale>  0 0.23121950E+04</rscale>
<asrwt>0</asrwt>
<pdfrwt beam="1">  1        1 0.15414947E+00 0.23121950E+04</pdfrwt>
<pdfrwt beam="2">  1       -1 0.20522024E+00 0.23121950E+04</pdfrwt>
<totfact> 0.18864376E+00</totfact>
</mgrwt>
</event>
<event>
 6    1  0.1001928E-005  0.2344543E+04  0.7818608E-02  0.8460563E-01
          2   -1    0    0  501    0  0.00000000000E+00  0.00000000000E+00  0.87777334839E+03  0.87777334839E+03  0.00000000000E+00 0. -1.
         -2   -1    0    0    0  501 -0.00000000000E+00 -0.00000000000E+00 -0.15655755608E+04  0.15655755608E+04  0.00000000000E+00 0.  1.
         23    2    1    2    0    0 -0.42224722117E+03  0.10445892050E+04 -0.13384195792E+02  0.11302232549E+04  0.88125740526E+02 0.  0.
         13    1    3    3    0    0 -0.33527534576E+03  0.89839742795E+03  0.66360124211E+01  0.95894292462E+03  0.00000000000E+00 0. -1.
        -13    1    3    3    0    0 -0.86971875416E+02  0.14619177704E+03 -0.20020208213E+02  0.17128033023E+03  0.00000000000E+00 0.  1.
         22    1    1    2    0    0  0.42224722117E+03 -0.10445892050E+04 -0.67441801663E+03  0.13131256544E+04  0.00000000000E+00 0.  1.
<mgrwt>
<rscale>  0 0.23445430E+04</rscale>
<asrwt>0</asrwt>
<pdfrwt beam="1">  1        2 0.13504205E+00 0.23445430E+04</pdfrwt>
<pdfrwt beam="2">  1       -2 0.24085778E+00 0.23445430E+04</pdfrwt>
<totfact> 0.20066024E+00</totfact>
</mgrwt>
</event>
<event>
 6    1  0.1001928E-005  0.1630849E+04  0.7818608E-02  0.8801818E-01
         -2   -1    0    0    0  501 -0.00000000000E+00  0.00000000000E+00  0.82996070691E+03  0.82996070691E+03  0.00000000000E+00 0.  1.
          2   -1    0    0  501    0  0.00000000000E+00 -0.00000000000E+00 -0.80114242593E+03  0.80114242593E+03  0.00000000000E+00 0. -1.
         23    2    1    2    0    0 -0.37768504138E+03  0.56866153673E+03 -0.42693948180E+03  0.81028824983E+03  0.90927404364E+02 0.  0.
         11    1    3    3    0    0 -0.17514552539E+03  0.21242951055E+03 -0.21247068622E+03  0.34777297842E+03  0.00000000000E+00 0. -1.
        -11    1    3    3    0    0 -0.20253951599E+03  0.35623202618E+03 -0.21446879557E+03  0.46251527141E+03  0.00000000000E+00 0.  1.
         22    1    1    2    0    0  0.37768504138E+03 -0.56866153673E+03  0.45575776277E+03  0.82081488300E+03  0.00000000000E+00 0.  1.
<mgrwt>
<rscale>  0 0.16308485E+04</rscale>
<asrwt>0</asrwt>
<pdfrwt beam="1">  1        2 0.12325268E+00 0.16308485E+04</pdfrwt>
<pdfrwt beam="2">  1       -2 0.12768626E+00 0.16308485E+04</pdfrwt>
<totfact> 0.14946022E+01</totfact>
</mgrwt>
</event>
<event>
 6    1  0.1001928E-005  0.4347594E+04  0.7818608E-02  0.7937876E-01
         -2   -1    0    0    0  501 -0.00000000000E+00  0.00000000000E+00  0.19503891566E+04  0.19503891566E+04  0.00000000000E+00 0.  1.
          2   -1    0    0  501    0  0.00000000000E+00 -0.00000000000E+00 -0.24227949277E+04  0.24227949277E+04  0.00000000000E+00 0. -1.
         23    2    1    2    0    0  0.18381500823E+04  0.11520994396E+04 -0.11241518494E+03  0.21741565570E+04  0.90502579958E+02 0.  0.
         11    1    3    3    0    0  0.31287253097E+03  0.18774324233E+03  0.14199228325E+02  0.36515525980E+03  0.00000000000E+00 0. -1.
        -11    1    3    3    0    0  0.15252775513E+04  0.96435619723E+03 -0.12661441326E+03  0.18090012972E+04  0.00000000000E+00 0.  1.
         22    1    1    2    0    0 -0.18381500823E+04 -0.11520994396E+04 -0.35999058620E+03  0.21990275273E+04  0.00000000000E+00 0. -1.
<mgrwt>
<rscale>  0 0.43475938E+04</rscale>
<asrwt>0</asrwt>
<pdfrwt beam="1">  1        2 0.37273768E+00 0.43475938E+04</pdfrwt>
<pdfrwt beam="2">  1       -2 0.30005987E+00 0.43475938E+04</pdfrwt>
<totfact> 0.93970731E-02</totfact>
</mgrwt>
</event>
<event>
 6    1  0.1001928E-005  0.1018962E+04  0.7818608E-02  0.9287989E-01
          1   -1    0    0  501    0  0.00000000000E+00  0.00000000000E+00  0.66872214760E+03  0.66872214760E+03  0.00000000000E+00 0. -1.
         -1   -1    0    0    0  501 -0.00000000000E+00 -0.00000000000E+00 -0.38815962783E+03  0.38815962783E+03  0.00000000000E+00 0.  1.
         23    2    1    2    0    0  0.33483429880E+03  0.33947364997E+03  0.31500804702E+03  0.57882020928E+03  0.91904288822E+02 0.  0.
         13    1    3    3    0    0  0.42685760089E+02  0.10889359016E+02  0.14989725352E+02  0.46533258217E+02  0.00000000000E+00 0.  1.
        -13    1    3    3    0    0  0.29214853871E+03  0.32858429095E+03  0.30001832167E+03  0.53228695106E+03  0.00000000000E+00 0. -1.
         22    1    1    2    0    0 -0.33483429880E+03 -0.33947364997E+03 -0.34445527251E+02  0.47806156614E+03  0.00000000000E+00 0.  1.
<mgrwt>
<rscale>  0 0.10189621E+04</rscale>
<asrwt>0</asrwt>
<pdfrwt beam="1">  1        1 0.10288033E+00 0.10189621E+04</pdfrwt>
<pdfrwt beam="2">  1       -1 0.59716866E-01 0.10189621E+04</pdfrwt>
<totfact> 0.83132857E+01</totfact>
</mgrwt>
</event>
<event>
 6    1  0.1001928E-005  0.3965599E+04  0.7818608E-02  0.8011523E-01
          1   -1    0    0  501    0  0.00000000000E+00  0.00000000000E+00  0.26287172984E+04  0.26287172984E+04  0.00000000000E+00 0. -1.
         -1   -1    0    0    0  501 -0.00000000000E+00 -0.00000000000E+00 -0.14955939613E+04  0.14955939613E+04  0.00000000000E+00 0.  1.
         23    2    1    2    0    0 -0.12925655631E+04  0.93316136890E+03 -0.65748898083E+03  0.17268525325E+04  0.90620273017E+02 0.  0.
         11    1    3    3    0    0 -0.64075741757E+03  0.40916378498E+03 -0.29891013948E+03  0.81690412081E+03  0.00000000000E+00 0.  1.
        -11    1    3    3    0    0 -0.65180814550E+03  0.52399758392E+03 -0.35857884135E+03  0.90994841170E+03  0.00000000000E+00 0. -1.
         22    1    1    2    0    0  0.12925655631E+04 -0.93316136890E+03  0.17906123180E+04  0.23974587272E+04  0.00000000000E+00 0. -1.
<mgrwt>
<rscale>  0 0.39655989E+04</rscale>
<asrwt>0</asrwt>
<pdfrwt beam="1">  1        1 0.40441805E+00 0.39655989E+04</pdfrwt>
<pdfrwt beam="2">  1       -1 0.23009138E+00 0.39655989E+04</pdfrwt>
<totfact> 0.81489583E-02</totfact>
</mgrwt>
</event>
<event>
 6    1  0.1001928E-005  0.8630285E+03  0.7818608E-02  0.9473015E-01
         -2   -1    0    0    0  501 -0.00000000000E+00  0.00000000000E+00  0.60049713460E+02  0.60049713460E+02  0.00000000000E+00 0.  1.
          2   -1    0    0  501    0  0.00000000000E+00 -0.00000000000E+00 -0.31008398021E+04  0.31008398021E+04  0.00000000000E+00 0. -1.
         23    2    1    2    0    0 -0.15171410123E+03  0.37900641858E+03 -0.19918552401E+04  0.20353108420E+04  0.91323010906E+02 0.  0.
         11    1    3    3    0    0 -0.33830839465E+02  0.20135989630E+03 -0.90596915378E+03  0.92869286695E+03  0.00000000000E+00 0.  1.
        -11    1    3    3    0    0 -0.11788326177E+03  0.17764652228E+03 -0.10858860863E+04  0.11066179751E+04  0.00000000000E+00 0. -1.
         22    1    1    2    0    0  0.15171410123E+03 -0.37900641858E+03 -0.10489348486E+04  0.11255786736E+04  0.00000000000E+00 0.  1.
<mgrwt>
<rscale>  0 0.86302849E+03</rscale>
<asrwt>0</asrwt>
<pdfrwt beam="1">  1        2 0.47705236E+00 0.86302849E+03</pdfrwt>
<pdfrwt beam="2">  1       -2 0.92384158E-02 0.86302849E+03</pdfrwt>
<totfact> 0.12261054E+02</totfact>
</mgrwt>
</event>
<event>
 6    1  0.1001928E-005  0.1647278E+04  0.7818608E-02  0.8792019E-01
         -2   -1    0    0    0  501 -0.00000000000E+00  0.00000000000E+00  0.60085378384E+03  0.60085378384E+03  0.00000000000E+00 0.  1.
          2   -1    0    0  501    0  0.00000000000E+00 -0.00000000000E+00 -0.11290281671E+04  0.11290281671E+04  0.00000000000E+00 0. -1.
         23    2    1    2    0    0 -0.28761648276E+03  0.70571858006E+03 -0.58676579686E+03  0.96555550949E+03  0.85096334438E+02 0.  0.
         11    1    3    3    0    0 -0.10723632453E+03  0.16521288258E+03 -0.15502175965E+03  0.25065249218E+03  0.00000000000E+00 0. -1.
        -11    1    3    3    0    0 -0.18038015823E+03  0.54050569748E+03 -0.43174403721E+03  0.71490301731E+03  0.00000000000E+00 0.  1.
         22    1    1    2    0    0  0.28761648276E+03 -0.70571858006E+03  0.58591413581E+02  0.76432644148E+03  0.00000000000E+00 0.  1.
<mgrwt>
<rscale>  0 0.16472776E+04</rscale>
<asrwt>0</asrwt>
<pdfrwt beam="1">  1        2 0.17369664E+00 0.16472776E+04</pdfrwt>
<pdfrwt beam="2">  1       -2 0.92439046E-01 0.16472776E+04</pdfrwt>
<totfact> 0.19847948E+01</totfact>
</mgrwt>
</event>
<event>
 6    1  0.1001928E-005  0.1887581E+04  0.7818608E-02  0.8661063E-01
         -2   -1    0    0    0  501 -0.00000000000E+00  0.00000000000E+00  0.72970984751E+03  0.72970984751E+03  0.00000000000E+00 0.  1.
          2   -1    0    0  501    0  0.00000000000E+00 -0.00000000000E+00 -0.12206771870E+04  0.12206771870E+04  0.00000000000E+00 0. -1.
         23    2    1    2    0    0  0.45259290029E+03 -0.57293709619E+03  0.36847636524E+03  0.82267220745E+03  0.88980220127E+02 0.  0.
         11    1    3    3    0    0  0.20160451321E+03 -0.32664331741E+03  0.18798939580E+03  0.42741110127E+03  0.00000000000E+00 0.  1.
        -11    1    3    3    0    0  0.25098838709E+03 -0.24629377878E+03  0.18048696943E+03  0.39526110618E+03  0.00000000000E+00 0. -1.
         22    1    1    2    0    0 -0.45259290029E+03  0.57293709619E+03 -0.85944370472E+03  0.11277148271E+04  0.00000000000E+00 0. -1.
<mgrwt>
<rscale>  0 0.18875806E+04</rscale>
<asrwt>0</asrwt>
<pdfrwt beam="1">  1        2 0.18779649E+00 0.18875806E+04</pdfrwt>
<pdfrwt beam="2">  1       -2 0.11226305E+00 0.18875806E+04</pdfrwt>
<totfact> 0.10794522E+01</totfact>
</mgrwt>
</event>
<event>
 6    1  0.1001928E-005  0.2003449E+04  0.7818608E-02  0.8605010E-01
          1   -1    0    0  501    0  0.00000000000E+00  0.00000000000E+00  0.92972790658E+03  0.92972790658E+03  0.00000000000E+00 0. -1.
         -1   -1    0    0    0  501 -0.00000000000E+00 -0.00000000000E+00 -0.10792958565E+04  0.10792958565E+04  0.00000000000E+00 0.  1.
         23    2    1    2    0    0 -0.51992952593E+03  0.62300746830E+03 -0.66042252988E+03  0.10501507687E+04  0.90519067695E+02 0.  0.
         13    1    3    3    0    0 -0.28913142711E+03  0.41479771162E+03 -0.40439156904E+03  0.64744626404E+03  0.00000000000E+00 0.  1.
        -13    1    3    3    0    0 -0.23079809882E+03  0.20820975668E+03 -0.25603096084E+03  0.40270450470E+03  0.00000000000E+00 0. -1.
         22    1    1    2    0    0  0.51992952593E+03 -0.62300746830E+03  0.51085457994E+03  0.95887299437E+03  0.00000000000E+00 0. -1.
<mgrwt>
<rscale>  0 0.20034485E+04</rscale>
<asrwt>0</asrwt>
<pdfrwt beam="1">  1        1 0.14303506E+00 0.20034485E+04</pdfrwt>
<pdfrwt beam="2">  1       -1 0.16604552E+00 0.20034485E+04</pdfrwt>
<totfact> 0.42009116E+00</totfact>
</mgrwt>
</event>
<event>
 6    1  0.1001928E-005  0.2577395E+04  0.7818608E-02  0.8375921E-01
         -2   -1    0    0    0  501 -0.00000000000E+00  0.00000000000E+00  0.12490620437E+04  0.12490620437E+04  0.00000000000E+00 0.  1.
          2   -1    0    0  501    0  0.00000000000E+00 -0.00000000000E+00 -0.13295902544E+04  0.13295902544E+04  0.00000000000E+00 0. -1.
         23    2    1    2    0    0 -0.11268665437E+04  0.16846903997E+03  0.55892359528E+03  0.12720886231E+04  0.87200085980E+02 0.  0.
         11    1    3    3    0    0 -0.80807785275E+03  0.98961739238E+02  0.36182058797E+03  0.89089695241E+03  0.00000000000E+00 0.  1.
        -11    1    3    3    0    0 -0.31878869094E+03  0.69507300728E+02  0.19710300732E+03  0.38119167071E+03  0.00000000000E+00 0. -1.
         22    1    1    2    0    0  0.11268665437E+04 -0.16846903997E+03 -0.63945180590E+03  0.13065636750E+04  0.00000000000E+00 0. -1.
<mgrwt>
<rscale>  0 0.25773946E+04</rscale>
<asrwt>0</asrwt>
<pdfrwt beam="1">  1        2 0.20455235E+00 0.25773946E+04</pdfrwt>
<pdfrwt beam="2">  1       -2 0.19216339E+00 0.25773946E+04</pdfrwt>
<totfact> 0.21110035E+00</totfact>
</mgrwt>
</event>
<event>
 6    1  0.1001928E-005  0.2244246E+04  0.7818608E-02  0.8500234E-01
          2   -1    0    0  501    0  0.00000000000E+00  0.00000000000E+00  0.26968784312E+04  0.26968784312E+04  0.00000000000E+00 0. -1.
         -2   -1    0    0    0  501 -0.00000000000E+00 -0.00000000000E+00 -0.46689548244E+03  0.46689548244E+03  0.00000000000E+00 0.  1.
         23    2    1    2    0    0 -0.57303615027E+03  0.22904085467E+03 -0.20110443652E+03  0.65558412467E+03  0.92289801752E+02 0.  0.
         13    1    3    3    0    0 -0.43639954083E+03  0.15848455009E+03 -0.18916352717E+03  0.50134294835E+03  0.00000000000E+00 0.  1.
        -13    1    3    3    0    0 -0.13663660945E+03  0.70556304572E+02 -0.11940909350E+02  0.15424117632E+03  0.00000000000E+00 0. -1.
         22    1    1    2    0    0  0.57303615027E+03 -0.22904085467E+03  0.24310873853E+04  0.25081897890E+04  0.00000000000E+00 0. -1.
<mgrwt>
<rscale>  0 0.22442463E+04</rscale>
<asrwt>0</asrwt>
<pdfrwt beam="1">  1        2 0.41490436E+00 0.22442463E+04</pdfrwt>
<pdfrwt beam="2">  1       -2 0.71830076E-01 0.22442463E+04</pdfrwt>
<totfact> 0.42679726E+00</totfact>
</mgrwt>
</event>
<event>
 6    1  0.1001928E-005  0.2421705E+04  0.7818608E-02  0.8431422E-01
          2   -1    0    0  501    0  0.00000000000E+00  0.00000000000E+00  0.16793584300E+04  0.16793584300E+04  0.00000000000E+00 0. -1.
         -2   -1    0    0    0  501 -0.00000000000E+00 -0.00000000000E+00 -0.87304982670E+03  0.87304982670E+03  0.00000000000E+00 0.  1.
         23    2    1    2    0    0 -0.96884026339E+03  0.62006470493E+03  0.11046850107E+02  0.11539902397E+04  0.91868090994E+02 0.  0.
         13    1    3    3    0    0 -0.78235015580E+03  0.52585747076E+03  0.37425199297E+02  0.94339731364E+03  0.00000000000E+00 0. -1.
        -13    1    3    3    0    0 -0.18649010758E+03  0.94207234167E+02 -0.26378349190E+02  0.21059292605E+03  0.00000000000E+00 0.  1.
         22    1    1    2    0    0  0.96884026339E+03 -0.62006470493E+03  0.79526175321E+03  0.13984180170E+04  0.00000000000E+00 0.  1.
<mgrwt>
<rscale>  0 0.24217048E+04</rscale>
<asrwt>0</asrwt>
<pdfrwt beam="1">  1        2 0.25836283E+00 0.24217048E+04</pdfrwt>
<pdfrwt beam="2">  1       -2 0.13431536E+00 0.24217048E+04</pdfrwt>
<totfact> 0.36132540E+00</totfact>
</mgrwt>
</event>
<event>
 6    1  0.1001928E-005  0.7248760E+03  0.7818608E-02  0.9675612E-01
         -2   -1    0    0    0  501 -0.00000000000E+00  0.00000000000E+00  0.21021073558E+03  0.21021073558E+03  0.00000000000E+00 0.  1.
          2   -1    0    0  501    0  0.00000000000E+00 -0.00000000000E+00 -0.62490285224E+03  0.62490285224E+03  0.00000000000E+00 0. -1.
         23    2    1    2    0    0 -0.54812211832E+01 -0.82891127592E+02 -0.61020767603E+03  0.62268167690E+03  0.92076490183E+02 0.  0.
         11    1    3    3    0    0  0.40765492081E+02 -0.22090668738E+02 -0.27486922923E+03  0.27875242809E+03  0.00000000000E+00 0.  1.
        -11    1    3    3    0    0 -0.46246713264E+02 -0.60800458854E+02 -0.33533844680E+03  0.34392924881E+03  0.00000000000E+00 0. -1.
         22    1    1    2    0    0  0.54812211832E+01  0.82891127592E+02  0.19551555937E+03  0.21243191091E+03  0.00000000000E+00 0.  1.
<mgrwt>
<rscale>  0 0.72487596E+03</rscale>
<asrwt>0</asrwt>
<pdfrwt beam="1">  1        2 0.96138899E-01 0.72487596E+03</pdfrwt>
<pdfrwt beam="2">  1       -2 0.32340114E-01 0.72487596E+03</pdfrwt>
<totfact> 0.42289249E+02</totfact>
</mgrwt>
</event>
<event>
 6    1  0.1001928E-005  0.3210963E+04  0.7818608E-02  0.8185928E-01
          1   -1    0    0  501    0  0.00000000000E+00  0.00000000000E+00  0.10937822676E+04  0.10937822676E+04  0.00000000000E+00 0. -1.
         -1   -1    0    0    0  501 -0.00000000000E+00 -0.00000000000E+00 -0.23565666503E+04  0.23565666503E+04  0.00000000000E+00 0.  1.
         23    2    1    2    0    0  0.10540039012E+04  0.11198417466E+04 -0.11222728948E+04  0.19060972416E+04  0.93490550089E+02 0.  0.
         11    1    3    3    0    0  0.78408865380E+03  0.77502898523E+03 -0.82041281006E+03  0.13742423818E+04  0.00000000000E+00 0. -1.
        -11    1    3    3    0    0  0.26991524738E+03  0.34481276139E+03 -0.30186008478E+03  0.53185485987E+03  0.00000000000E+00 0.  1.
         22    1    1    2    0    0 -0.10540039012E+04 -0.11198417466E+04 -0.14051148785E+03  0.15442516762E+04  0.00000000000E+00 0. -1.
<mgrwt>
<rscale>  0 0.32109630E+04</rscale>
<asrwt>0</asrwt>
<pdfrwt beam="1">  1        1 0.16827420E+00 0.32109630E+04</pdfrwt>
<pdfrwt beam="2">  1       -1 0.36254871E+00 0.32109630E+04</pdfrwt>
<totfact> 0.13725226E-01</totfact>
</mgrwt>
</event>
<event>
 6    1  0.1001928E-005  0.2257206E+04  0.7818608E-02  0.8494988E-01
          2   -1    0    0  501    0  0.00000000000E+00  0.00000000000E+00  0.12819395667E+04  0.12819395667E+04  0.00000000000E+00 0. -1.
         -2   -1    0    0    0  501 -0.00000000000E+00 -0.00000000000E+00 -0.99360749512E+03  0.99360749512E+03  0.00000000000E+00 0.  1.
         23    2    1    2    0    0 -0.41967812003E+03 -0.53801739398E+03 -0.75955553912E+03  0.10250827939E+04  0.90981738420E+02 0.  0.
         13    1    3    3    0    0 -0.14595031087E+03 -0.16398095528E+03 -0.18653787976E+03  0.28807573228E+03  0.00000000000E+00 0. -1.
        -13    1    3    3    0    0 -0.27372780916E+03 -0.37403643870E+03 -0.57301765936E+03  0.73700706164E+03  0.00000000000E+00 0.  1.
         22    1    1    2    0    0  0.41967812003E+03  0.53801739398E+03  0.10478876107E+04  0.12504642679E+04  0.00000000000E+00 0. -1.
<mgrwt>
<rscale>  0 0.22572060E+04</rscale>
<asrwt>0</asrwt>
<pdfrwt beam="1">  1        2 0.19722147E+00 0.22572060E+04</pdfrwt>
<pdfrwt beam="2">  1       -2 0.15286269E+00 0.22572060E+04</pdfrwt>
<totfact> 0.43911787E+00</totfact>
</mgrwt>
</event>
<event>
 6    1  0.1001928E-005  0.2335504E+04  0.7818608E-02  0.8464053E-01
          1   -1    0    0  501    0  0.00000000000E+00  0.00000000000E+00  0.17621341195E+04  0.17621341195E+04  0.00000000000E+00 0. -1.
         -1   -1    0    0    0  501 -0.00000000000E+00 -0.00000000000E+00 -0.77385969543E+03  0.77385969543E+03  0.00000000000E+00 0.  1.
         23    2    1    2    0    0  0.60825633516E+03  0.53980377744E+03  0.14021781192E+04  0.16234807157E+04  0.90676726466E+02 0.  0.
         11    1    3    3    0    0  0.21866384985E+03  0.25341364559E+03  0.56572490419E+03  0.65732565918E+03  0.00000000000E+00 0.  1.
        -11    1    3    3    0    0  0.38959248531E+03  0.28639013185E+03  0.83645321501E+03  0.96615505647E+03  0.00000000000E+00 0. -1.
         22    1    1    2    0    0 -0.60825633516E+03 -0.53980377744E+03 -0.41390369517E+03  0.91251309924E+03  0.00000000000E+00 0.  1.
<mgrwt>
<rscale>  0 0.23355039E+04</rscale>
<asrwt>0</asrwt>
<pdfrwt beam="1">  1        1 0.27109756E+00 0.23355039E+04</pdfrwt>
<pdfrwt beam="2">  1       -1 0.11905534E+00 0.23355039E+04</pdfrwt>
<totfact> 0.24586418E+00</totfact>
</mgrwt>
</event>
<event>
 6    1  0.1001928E-005  0.1249114E+04  0.7818608E-02  0.9070921E-01
         -1   -1    0    0    0  501 -0.00000000000E+00  0.00000000000E+00  0.38187825276E+03  0.38187825276E+03  0.00000000000E+00 0.  1.
          1   -1    0    0  501    0  0.00000000000E+00 -0.00000000000E+00 -0.10214543726E+04  0.10214543726E+04  0.00000000000E+00 0. -1.
         23    2    1    2    0    0 -0.22475473017E+02  0.42770927664E+03  0.18394155419E+03  0.47509680854E+03  0.91880955134E+02 0.  0.
         13    1    3    3    0    0 -0.34843271975E+02  0.30929896747E+03  0.91677387921E+02  0.32447595957E+03  0.00000000000E+00 0.  1.
        -13    1    3    3    0    0  0.12367798958E+02  0.11841030917E+03  0.92264166264E+02  0.15062084897E+03  0.00000000000E+00 0. -1.
         22    1    1    2    0    0  0.22475473017E+02 -0.42770927664E+03 -0.82351767405E+03  0.92823581685E+03  0.00000000000E+00 0. -1.
<mgrwt>
<rscale>  0 0.12491136E+04</rscale>
<asrwt>0</asrwt>
<pdfrwt beam="1">  1        1 0.15714682E+00 0.12491136E+04</pdfrwt>
<pdfrwt beam="2">  1       -1 0.58750502E-01 0.12491136E+04</pdfrwt>
<totfact> 0.42159619E+01</totfact>
</mgrwt>
</event>
<event>
 6    1  0.1001928E-005  0.3675198E+04  0.7818608E-02  0.8073481E-01
         -3   -1    0    0    0  501 -0.00000000000E+00  0.00000000000E+00  0.10196070066E+04  0.10196070066E+04  0.00000000000E+00 0.  1.
          3   -1    0    0  501    0  0.00000000000E+00 -0.00000000000E+00 -0.33118346721E+04  0.33118346721E+04  0.00000000000E+00 0. -1.
         23    2    1    2    0    0 -0.48055335136E+03  0.27566390815E+03 -0.32103965439E+04  0.32590815700E+04  0.89691677200E+02 0.  0.
         13    1    3    3    0    0 -0.31545053690E+03  0.22633110167E+03 -0.21492901339E+04  0.21840748358E+04  0.00000000000E+00 0. -1.
        -13    1    3    3    0    0 -0.16510281446E+03  0.49332806479E+02 -0.10611064099E+04  0.10750067341E+04  0.00000000000E+00 0.  1.
         22    1    1    2    0    0  0.48055335136E+03 -0.27566390815E+03  0.91816887834E+03  0.10723601088E+04  0.00000000000E+00 0.  1.
<mgrwt>
<rscale>  0 0.36751979E+04</rscale>
<asrwt>0</asrwt>
<pdfrwt beam="1">  1        3 0.50951302E+00 0.36751979E+04</pdfrwt>
<pdfrwt beam="2">  1       -3 0.15686262E+00 0.36751979E+04</pdfrwt>
<totfact> 0.18497921E-03</totfact>
</mgrwt>
</event>
<event>
 6    1  0.1001928E-005  0.1145355E+04  0.7818608E-02  0.9162080E-01
         -2   -1    0    0    0  501 -0.00000000000E+00  0.00000000000E+00  0.10166879879E+04  0.10166879879E+04  0.00000000000E+00 0.  1.
          2   -1    0    0  501    0  0.00000000000E+00 -0.00000000000E+00 -0.32257622766E+03  0.32257622766E+03  0.00000000000E+00 0. -1.
         23    2    1    2    0    0 -0.75758057870E+02 -0.37319762751E+03 -0.14495341504E+03  0.41782722864E+03  0.92478905444E+02 0.  0.
         13    1    3    3    0    0 -0.80688055823E+02 -0.27619682973E+03 -0.72729004603E+02  0.29679076673E+03  0.00000000000E+00 0. -1.
        -13    1    3    3    0    0  0.49299979534E+01 -0.97000797785E+02 -0.72224410434E+02  0.12103646192E+03  0.00000000000E+00 0.  1.
         22    1    1    2    0    0  0.75758057870E+02  0.37319762751E+03  0.83906517532E+03  0.92143698696E+03  0.00000000000E+00 0.  1.
<mgrwt>
<rscale>  0 0.11453548E+04</rscale>
<asrwt>0</asrwt>
<pdfrwt beam="1">  1        2 0.49627112E-01 0.11453548E+04</pdfrwt>
<pdfrwt beam="2">  1       -2 0.15641354E+00 0.11453548E+04</pdfrwt>
<totfact> 0.26823789E+01</totfact>
</mgrwt>
</event>
<event>
 6    1  0.1001928E-005  0.2787971E+04  0.7818608E-02  0.8307013E-01
          2   -1    0    0  501    0  0.00000000000E+00  0.00000000000E+00  0.19733613211E+04  0.19733613211E+04  0.00000000000E+00 0.  1.
         -2   -1    0    0    0  501 -0.00000000000E+00 -0.00000000000E+00 -0.98471335378E+03  0.98471335378E+03  0.00000000000E+00 0. -1.
         23    2    1    2    0    0 -0.38777225998E+03  0.83025686219E+03 -0.61758054610E+03  0.11088413688E+04  0.91813220792E+02 0.  0.
         11    1    3    3    0    0 -0.32840426655E+03  0.61173462335E+03 -0.45615901271E+03  0.83075246408E+03  0.00000000000E+00 0. -1.
        -11    1    3    3    0    0 -0.59367993425E+02  0.21852223883E+03 -0.16142153339E+03  0.27808890476E+03  0.00000000000E+00 0.  1.
         22    1    1    2    0    0  0.38777225998E+03 -0.83025686219E+03  0.16062285134E+04  0.18492333060E+04  0.00000000000E+00 0.  1.
<mgrwt>
<rscale>  0 0.27879708E+04</rscale>
<asrwt>0</asrwt>
<pdfrwt beam="1">  1        2 0.30359405E+00 0.27879708E+04</pdfrwt>
<pdfrwt beam="2">  1       -2 0.15149436E+00 0.27879708E+04</pdfrwt>
<totfact> 0.17573665E+00</totfact>
</mgrwt>
</event>
<event>
 6    1  0.1001928E-005  0.2550600E+04  0.7818608E-02  0.8385178E-01
          2   -1    0    0  501    0  0.00000000000E+00  0.00000000000E+00  0.36279843439E+04  0.36279843439E+04  0.00000000000E+00 0.  1.
         -2   -1    0    0    0  501 -0.00000000000E+00 -0.00000000000E+00 -0.44829017718E+03  0.44829017718E+03  0.00000000000E+00 0. -1.
         23    2    1    2    0    0 -0.11912885022E+03  0.12676531876E+04  0.16604563431E+04  0.20940485370E+04  0.82387626433E+02 0.  0.
         13    1    3    3    0    0 -0.72572089761E+02  0.61353401258E+03  0.86860181107E+03  0.10659079693E+04  0.00000000000E+00 0. -1.
        -13    1    3    3    0    0 -0.46556760455E+02  0.65411917506E+03  0.79185453206E+03  0.10281405678E+04  0.00000000000E+00 0.  1.
         22    1    1    2    0    0  0.11912885022E+03 -0.12676531876E+04  0.15192378236E+04  0.19822259840E+04  0.00000000000E+00 0. -1.
<mgrwt>
<rscale>  0 0.25505997E+04</rscale>
<asrwt>0</asrwt>
<pdfrwt beam="1">  1        2 0.55815142E+00 0.25505997E+04</pdfrwt>
<pdfrwt beam="2">  1       -2 0.68967722E-01 0.25505997E+04</pdfrwt>
<totfact> 0.11254988E+00</totfact>
</mgrwt>
</event>
<event>
 6    1  0.1001928E-005  0.1435213E+04  0.7818608E-02  0.8928717E-01
         -2   -1    0    0    0  501 -0.00000000000E+00  0.00000000000E+00  0.27399698558E+03  0.27399698558E+03  0.00000000000E+00 0.  1.
          2   -1    0    0  501    0  0.00000000000E+00 -0.00000000000E+00 -0.18794341654E+04  0.18794341654E+04  0.00000000000E+00 0. -1.
         23    2    1    2    0    0  0.30672133757E+03  0.32705213617E+03  0.28961693455E+02  0.45864480584E+03  0.92060846941E+02 0.  0.
         13    1    3    3    0    0  0.22490448321E+03  0.28515712712E+03  0.32241346521E+01  0.36319004496E+03  0.00000000000E+00 0. -1.
        -13    1    3    3    0    0  0.81816854362E+02  0.41895009053E+02  0.25737558803E+02  0.95454760879E+02  0.00000000000E+00 0.  1.
         22    1    1    2    0    0 -0.30672133757E+03 -0.32705213617E+03 -0.16343988733E+04  0.16947863451E+04  0.00000000000E+00 0. -1.
<mgrwt>
<rscale>  0 0.14352133E+04</rscale>
<asrwt>0</asrwt>
<pdfrwt beam="1">  1        2 0.28914372E+00 0.14352133E+04</pdfrwt>
<pdfrwt beam="2">  1       -2 0.42153382E-01 0.14352133E+04</pdfrwt>
<totfact> 0.40375696E+01</totfact>
</mgrwt>
</event>
<event>
 6    1  0.1001928E-005  0.1941795E+04  0.7818608E-02  0.8634327E-01
         -2   -1    0    0    0  501 -0.00000000000E+00  0.00000000000E+00  0.28448051262E+03  0.28448051262E+03  0.00000000000E+00 0.  1.
          2   -1    0    0  501    0  0.00000000000E+00 -0.00000000000E+00 -0.33135558793E+04  0.33135558793E+04  0.00000000000E+00 0. -1.
         23    2    1    2    0    0 -0.37888631077E+03  0.68618754980E+03 -0.46611483430E+03  0.91789182857E+03  0.10418339698E+03 0.  0.
         11    1    3    3    0    0 -0.26578118139E+03  0.43480985687E+03 -0.25002400518E+03  0.56763654848E+03  0.00000000000E+00 0. -1.
        -11    1    3    3    0    0 -0.11310512939E+03  0.25137769293E+03 -0.21609082912E+03  0.35025528008E+03  0.00000000000E+00 0.  1.
         22    1    1    2    0    0  0.37888631077E+03 -0.68618754980E+03 -0.25629605324E+04  0.26801445634E+04  0.00000000000E+00 0. -1.
<mgrwt>
<rscale>  0 0.19417951E+04</rscale>
<asrwt>0</asrwt>
<pdfrwt beam="1">  1        2 0.50977782E+00 0.19417951E+04</pdfrwt>
<pdfrwt beam="2">  1       -2 0.43766233E-01 0.19417951E+04</pdfrwt>
<totfact> 0.50652016E+00</totfact>
</mgrwt>
</event>
<event>
 6    1  0.1001928E-005  0.3088692E+04  0.7818608E-02  0.8218848E-01
         -1   -1    0    0    0  501 -0.00000000000E+00  0.00000000000E+00  0.18253036178E+04  0.18253036178E+04  0.00000000000E+00 0. -1.
          1   -1    0    0  501    0  0.00000000000E+00 -0.00000000000E+00 -0.13066340164E+04  0.13066340164E+04  0.00000000000E+00 0.  1.
         23    2    1    2    0    0  0.21446358577E+03 -0.40828982783E+03  0.17526355301E+04  0.18146042951E+04  0.91445247655E+02 0.  0.
         13    1    3    3    0    0  0.75857651152E+02 -0.24228945259E+03  0.95521255682E+03  0.98837725125E+03  0.00000000000E+00 0. -1.
        -13    1    3    3    0    0  0.13860593461E+03 -0.16600037524E+03  0.79742297328E+03  0.82622704386E+03  0.00000000000E+00 0.  1.
         22    1    1    2    0    0 -0.21446358577E+03  0.40828982783E+03 -0.12339659287E+04  0.13173333391E+04  0.00000000000E+00 0.  1.
<mgrwt>
<rscale>  0 0.30886915E+04</rscale>
<asrwt>0</asrwt>
<pdfrwt beam="1">  1        1 0.20102062E+00 0.30886915E+04</pdfrwt>
<pdfrwt beam="2">  1       -1 0.28081594E+00 0.30886915E+04</pdfrwt>
<totfact> 0.33225630E-01</totfact>
</mgrwt>
</event>
<event>
 6    1  0.1001928E-005  0.3131257E+04  0.7818608E-02  0.8207212E-01
         -2   -1    0    0    0  501 -0.00000000000E+00  0.00000000000E+00  0.90292185821E+03  0.90292185821E+03  0.00000000000E+00 0.  1.
          2   -1    0    0  501    0  0.00000000000E+00 -0.00000000000E+00 -0.27147333042E+04  0.27147333042E+04  0.00000000000E+00 0. -1.
         23    2    1    2    0    0  0.41582686719E+03 -0.88002235613E+03 -0.23215504235E+04  0.25189353820E+04  0.89931968355E+02 0.  0.
         11    1    3    3    0    0  0.20999207520E+03 -0.43360856260E+03 -0.12644446523E+04  0.13531198527E+04  0.00000000000E+00 0.  1.
        -11    1    3    3    0    0  0.20583479199E+03 -0.44641379353E+03 -0.10571057713E+04  0.11658155293E+04  0.00000000000E+00 0. -1.
         22    1    1    2    0    0 -0.41582686719E+03  0.88002235613E+03  0.50973897750E+03  0.10987197805E+04  0.00000000000E+00 0.  1.
<mgrwt>
<rscale>  0 0.31312566E+04</rscale>
<asrwt>0</asrwt>
<pdfrwt beam="1">  1        2 0.41765127E+00 0.31312566E+04</pdfrwt>
<pdfrwt beam="2">  1       -2 0.13891106E+00 0.31312566E+04</pdfrwt>
<totfact> 0.80739346E-01</totfact>
</mgrwt>
</event>
<event>
 6    1  0.1001928E-005  0.1908942E+04  0.7818608E-02  0.8650418E-01
          1   -1    0    0  501    0  0.00000000000E+00  0.00000000000E+00  0.11356311430E+04  0.11356311430E+04  0.00000000000E+00 0. -1.
         -1   -1    0    0    0  501 -0.00000000000E+00 -0.00000000000E+00 -0.80221002320E+03  0.80221002320E+03  0.00000000000E+00 0.  1.
         23    2    1    2    0    0  0.43536728097E+03  0.54543768326E+03 -0.49178480385E+03  0.85709524228E+03  0.75584557804E+02 0.  0.
         13    1    3    3    0    0  0.10767476808E+03  0.94343646096E+02 -0.80328094107E+02  0.16415596834E+03  0.00000000000E+00 0. -1.
        -13    1    3    3    0    0  0.32769251289E+03  0.45109403716E+03 -0.41145670974E+03  0.69293927393E+03  0.00000000000E+00 0.  1.
         22    1    1    2    0    0 -0.43536728097E+03 -0.54543768326E+03  0.82520592362E+03  0.10807459239E+04  0.00000000000E+00 0. -1.
<mgrwt>
<rscale>  0 0.19089418E+04</rscale>
<asrwt>0</asrwt>
<pdfrwt beam="1">  1        1 0.17471248E+00 0.19089418E+04</pdfrwt>
<pdfrwt beam="2">  1       -1 0.12341693E+00 0.19089418E+04</pdfrwt>
<totfact> 0.64393241E+00</totfact>
</mgrwt>
</event>
<event>
 6    1  0.1001928E-005  0.2092669E+04  0.7818608E-02  0.8564480E-01
         -1   -1    0    0    0  501 -0.00000000000E+00  0.00000000000E+00  0.47798783971E+03  0.47798783971E+03  0.00000000000E+00 0.  1.
          1   -1    0    0  501    0  0.00000000000E+00 -0.00000000000E+00 -0.22904672402E+04  0.22904672402E+04  0.00000000000E+00 0. -1.
         23    2    1    2    0    0  0.28408271241E+03  0.29597653967E+03  0.36263457257E+03  0.55499039863E+03  0.90583717224E+02 0.  0.
         13    1    3    3    0    0  0.64757663918E+02  0.78659350820E+02  0.14509688018E+03  0.17729622992E+03  0.00000000000E+00 0. -1.
        -13    1    3    3    0    0  0.21932504849E+03  0.21731718885E+03  0.21753769239E+03  0.37769416870E+03  0.00000000000E+00 0.  1.
         22    1    1    2    0    0 -0.28408271241E+03 -0.29597653967E+03 -0.21751139730E+04  0.22134646813E+04  0.00000000000E+00 0. -1.
<mgrwt>
<rscale>  0 0.20926686E+04</rscale>
<asrwt>0</asrwt>
<pdfrwt beam="1">  1        1 0.35237958E+00 0.20926686E+04</pdfrwt>
<pdfrwt beam="2">  1       -1 0.73536589E-01 0.20926686E+04</pdfrwt>
<totfact> 0.32393795E+00</totfact>
</mgrwt>
</event>
<event>
 6    1  0.1001928E-005  0.3203227E+04  0.7818608E-02  0.8187965E-01
          3   -1    0    0  501    0  0.00000000000E+00  0.00000000000E+00  0.17289902073E+04  0.17289902073E+04  0.00000000000E+00 0. -1.
         -3   -1    0    0    0  501 -0.00000000000E+00 -0.00000000000E+00 -0.14836212390E+04  0.14836212390E+04  0.00000000000E+00 0.  1.
         23    2    1    2    0    0 -0.14725865545E+04 -0.32409949505E+03 -0.41523598222E+03  0.15664187043E+04  0.87721110139E+02 0.  0.
         13    1    3    3    0    0 -0.81084745087E+03 -0.14642231209E+03 -0.25828317574E+03  0.86349480655E+03  0.00000000000E+00 0. -1.
        -13    1    3    3    0    0 -0.66173910361E+03 -0.17767718296E+03 -0.15695280648E+03  0.70292389777E+03  0.00000000000E+00 0.  1.
         22    1    1    2    0    0  0.14725865545E+04  0.32409949505E+03  0.66060495046E+03  0.16461927420E+04  0.00000000000E+00 0. -1.
<mgrwt>
<rscale>  0 0.32032275E+04</rscale>
<asrwt>0</asrwt>
<pdfrwt beam="1">  1        3 0.26599849E+00 0.32032275E+04</pdfrwt>
<pdfrwt beam="2">  1       -3 0.22824942E+00 0.32032275E+04</pdfrwt>
<totfact> 0.12816165E-02</totfact>
</mgrwt>
</event>
<event>
 6    1  0.1001928E-005  0.1275909E+04  0.7818608E-02  0.9048890E-01
          2   -1    0    0  501    0  0.00000000000E+00  0.00000000000E+00  0.32834186170E+03  0.32834186170E+03  0.00000000000E+00 0. -1.
         -2   -1    0    0    0  501 -0.00000000000E+00 -0.00000000000E+00 -0.12395195834E+04  0.12395195834E+04  0.00000000000E+00 0.  1.
         23    2    1    2    0    0 -0.44951787245E+03 -0.71197417860E+02  0.84945108050E+02  0.47269201441E+03  0.95324074292E+02 0.  0.
         13    1    3    3    0    0 -0.37492532961E+03 -0.67725718562E+02  0.34447874967E+02  0.38254729358E+03  0.00000000000E+00 0.  1.
        -13    1    3    3    0    0 -0.74592542846E+02 -0.34716992979E+01  0.50497233083E+02  0.90144720829E+02  0.00000000000E+00 0. -1.
         22    1    1    2    0    0  0.44951787245E+03  0.71197417860E+02 -0.99612282970E+03  0.10951694306E+04  0.00000000000E+00 0.  1.
<mgrwt>
<rscale>  0 0.12759094E+04</rscale>
<asrwt>0</asrwt>
<pdfrwt beam="1">  1        2 0.50514131E-01 0.12759094E+04</pdfrwt>
<pdfrwt beam="2">  1       -2 0.19069533E+00 0.12759094E+04</pdfrwt>
<totfact> 0.14928500E+01</totfact>
</mgrwt>
</event>
<event>
 6    1  0.1001928E-005  0.2020746E+04  0.7818608E-02  0.8596982E-01
         -1   -1    0    0    0  501 -0.00000000000E+00  0.00000000000E+00  0.47191047639E+03  0.47191047639E+03  0.00000000000E+00 0.  1.
          1   -1    0    0  501    0  0.00000000000E+00 -0.00000000000E+00 -0.21632349880E+04  0.21632349880E+04  0.00000000000E+00 0. -1.
         23    2    1    2    0    0  0.11078796353E+03 -0.75038360695E+03  0.18832502794E+02  0.76432036717E+03  0.92094679940E+02 0.  0.
         11    1    3    3    0    0  0.62380326495E+01 -0.10539123486E+03 -0.28023412701E+02  0.10923157555E+03  0.00000000000E+00 0. -1.
        -11    1    3    3    0    0  0.10454993088E+03 -0.64499237209E+03  0.46855915495E+02  0.65508879162E+03  0.00000000000E+00 0.  1.
         22    1    1    2    0    0 -0.11078796353E+03  0.75038360695E+03 -0.17101570144E+04  0.18708250972E+04  0.00000000000E+00 0. -1.
<mgrwt>
<rscale>  0 0.20207457E+04</rscale>
<asrwt>0</asrwt>
<pdfrwt beam="1">  1        1 0.33280538E+00 0.20207457E+04</pdfrwt>
<pdfrwt beam="2">  1       -1 0.72601613E-01 0.20207457E+04</pdfrwt>
<totfact> 0.40891493E+00</totfact>
</mgrwt>
</event>
<event>
 6    1  0.1001928E-005  0.2150373E+04  0.7818608E-02  0.8539373E-01
          2   -1    0    0  501    0  0.00000000000E+00  0.00000000000E+00  0.10480256813E+04  0.10480256813E+04  0.00000000000E+00 0.  1.
         -2   -1    0    0    0  501 -0.00000000000E+00 -0.00000000000E+00 -0.11030508195E+04  0.11030508195E+04  0.00000000000E+00 0. -1.
         23    2    1    2    0    0 -0.22871554040E+03 -0.41082510561E+02  0.10204901776E+04  0.10507439305E+04  0.93080791509E+02 0.  0.
         13    1    3    3    0    0 -0.15528345082E+02  0.13141614077E+02  0.20832211973E+03  0.20931301223E+03  0.00000000000E+00 0. -1.
        -13    1    3    3    0    0 -0.21318719532E+03 -0.54224124639E+02  0.81216805785E+03  0.84143091822E+03  0.00000000000E+00 0.  1.
         22    1    1    2    0    0  0.22871554040E+03  0.41082510561E+02 -0.10755153158E+04  0.11003325704E+04  0.00000000000E+00 0. -1.
<mgrwt>
<rscale>  0 0.21503726E+04</rscale>
<asrwt>0</asrwt>
<pdfrwt beam="1">  1        2 0.16123472E+00 0.21503726E+04</pdfrwt>
<pdfrwt beam="2">  1       -2 0.16970013E+00 0.21503726E+04</pdfrwt>
<totfact> 0.46140473E+00</totfact>
</mgrwt>
</event>
<event>
 6    1  0.1001928E-005  0.1960295E+04  0.7818608E-02  0.8625412E-01
          2   -1    0    0  501    0  0.00000000000E+00  0.00000000000E+00  0.56816788926E+03  0.56816788926E+03  0.00000000000E+00 0. -1.
         -2   -1    0    0    0  501 -0.00000000000E+00 -0.00000000000E+00 -0.16908547178E+04  0.16908547178E+04  0.00000000000E+00 0.  1.
         23    2    1    2    0    0 -0.22721411624E+03 -0.31841414514E+03 -0.15954987063E+04  0.16453737709E+04  0.92870348104E+02 0.  0.
         13    1    3    3    0    0 -0.20221348207E+03 -0.21306455783E+03 -0.11733168452E+04  0.12095285103E+04  0.00000000000E+00 0.  1.
        -13    1    3    3    0    0 -0.25000634177E+02 -0.10534958730E+03 -0.42218186115E+03  0.43584526055E+03  0.00000000000E+00 0. -1.
         22    1    1    2    0    0  0.22721411624E+03  0.31841414514E+03  0.47281187775E+03  0.61364883621E+03  0.00000000000E+00 0. -1.
<mgrwt>
<rscale>  0 0.19602952E+04</rscale>
<asrwt>0</asrwt>
<pdfrwt beam="1">  1        2 0.87410444E-01 0.19602952E+04</pdfrwt>
<pdfrwt beam="2">  1       -2 0.26013150E+00 0.19602952E+04</pdfrwt>
<totfact> 0.27490296E+00</totfact>
</mgrwt>
</event>
<event>
 6    1  0.1001928E-005  0.6858433E+04  0.7818608E-02  0.7592214E-01
          2   -1    0    0  501    0  0.00000000000E+00  0.00000000000E+00  0.44994587035E+04  0.44994587035E+04  0.00000000000E+00 0. -1.
         -2   -1    0    0    0  501 -0.00000000000E+00 -0.00000000000E+00 -0.26135422048E+04  0.26135422048E+04  0.00000000000E+00 0.  1.
         23    2    1    2    0    0  0.12625094060E+04  0.30848420386E+04  0.17761037057E+04  0.37779987714E+04  0.92465886203E+02 0.  0.
         13    1    3    3    0    0  0.29793659805E+03  0.68446230125E+03  0.35856780124E+03  0.82814595717E+03  0.00000000000E+00 0.  1.
        -13    1    3    3    0    0  0.96457280796E+03  0.24003797373E+04  0.14175359045E+04  0.29498528142E+04  0.00000000000E+00 0. -1.
         22    1    1    2    0    0 -0.12625094060E+04 -0.30848420386E+04  0.10981279297E+03  0.33350021368E+04  0.00000000000E+00 0. -1.
<mgrwt>
<rscale>  0 0.68584328E+04</rscale>
<asrwt>0</asrwt>
<pdfrwt beam="1">  1        2 0.69222442E+00 0.68584328E+04</pdfrwt>
<pdfrwt beam="2">  1       -2 0.40208342E+00 0.68584328E+04</pdfrwt>
<totfact> 0.55234086E-04</totfact>
</mgrwt>
</event>
<event>
 6    1  0.1001928E-005  0.9340420E+03  0.7818608E-02  0.9384000E-01
         -2   -1    0    0    0  501 -0.00000000000E+00  0.00000000000E+00  0.82992300049E+03  0.82992300049E+03  0.00000000000E+00 0.  1.
          2   -1    0    0  501    0  0.00000000000E+00 -0.00000000000E+00 -0.26280584790E+03  0.26280584790E+03  0.00000000000E+00 0. -1.
         23    2    1    2    0    0 -0.10173129368E+02 -0.22573644712E+03  0.75881494327E+03  0.79640389319E+03  0.86015154755E+02 0.  0.
         13    1    3    3    0    0 -0.24403417158E+02 -0.19788325019E+03  0.54525258070E+03  0.58056324740E+03  0.00000000000E+00 0. -1.
        -13    1    3    3    0    0  0.14230287790E+02 -0.27853196929E+02  0.21356236257E+03  0.21584064579E+03  0.00000000000E+00 0.  1.
         22    1    1    2    0    0  0.10173129368E+02  0.22573644712E+03 -0.19169779069E+03  0.29632495520E+03  0.00000000000E+00 0. -1.
<mgrwt>
<rscale>  0 0.93404201E+03</rscale>
<asrwt>0</asrwt>
<pdfrwt beam="1">  1        2 0.40431669E-01 0.93404201E+03</pdfrwt>
<pdfrwt beam="2">  1       -2 0.12768046E+00 0.93404201E+03</pdfrwt>
<totfact> 0.57911596E+01</totfact>
</mgrwt>
</event>
<event>
 6    1  0.1001928E-005  0.3773769E+04  0.7818608E-02  0.8051807E-01
          2   -1    0    0  501    0  0.00000000000E+00  0.00000000000E+00  0.16113501455E+04  0.16113501455E+04  0.00000000000E+00 0. -1.
         -2   -1    0    0    0  501 -0.00000000000E+00 -0.00000000000E+00 -0.22095344334E+04  0.22095344334E+04  0.00000000000E+00 0.  1.
         23    2    1    2    0    0 -0.10255059157E+04 -0.13674397840E+03  0.12970883582E+04  0.16616208846E+04  0.90467984363E+02 0.  0.
         11    1    3    3    0    0 -0.17364802317E+03  0.10821761772E+02  0.21815643572E+03  0.27903938239E+03  0.00000000000E+00 0.  1.
        -11    1    3    3    0    0 -0.85185789256E+03 -0.14756574017E+03  0.10789319225E+04  0.13825815022E+04  0.00000000000E+00 0. -1.
         22    1    1    2    0    0  0.10255059157E+04  0.13674397840E+03 -0.18952726461E+04  0.21592636944E+04  0.00000000000E+00 0.  1.
<mgrwt>
<rscale>  0 0.37737693E+04</rscale>
<asrwt>0</asrwt>
<pdfrwt beam="1">  1        2 0.24790002E+00 0.37737693E+04</pdfrwt>
<pdfrwt beam="2">  1       -2 0.33992837E+00 0.37737693E+04</pdfrwt>
<totfact> 0.15890565E-01</totfact>
</mgrwt>
</event>
<event>
 6    1  0.1001928E-005  0.3816509E+04  0.7818608E-02  0.8042621E-01
          2   -1    0    0  501    0  0.00000000000E+00  0.00000000000E+00  0.31574625753E+04  0.31574625753E+04  0.00000000000E+00 0.  1.
         -2   -1    0    0    0  501 -0.00000000000E+00 -0.00000000000E+00 -0.11532788534E+04  0.11532788534E+04  0.00000000000E+00 0. -1.
         23    2    1    2    0    0  0.40699371390E+03 -0.13270092799E+04  0.24799885090E+04  0.28434351528E+04  0.90459666114E+02 0.  0.
         11    1    3    3    0    0  0.24981603176E+03 -0.77302154304E+03  0.13627911250E+04  0.15865591719E+04  0.00000000000E+00 0. -1.
        -11    1    3    3    0    0  0.15717768214E+03 -0.55398773682E+03  0.11171973841E+04  0.12568759809E+04  0.00000000000E+00 0.  1.
         22    1    1    2    0    0 -0.40699371390E+03  0.13270092799E+04 -0.47580478717E+03  0.14673062760E+04  0.00000000000E+00 0. -1.
<mgrwt>
<rscale>  0 0.38165088E+04</rscale>
<asrwt>0</asrwt>
<pdfrwt beam="1">  1        2 0.48576347E+00 0.38165088E+04</pdfrwt>
<pdfrwt beam="2">  1       -2 0.17742752E+00 0.38165088E+04</pdfrwt>
<totfact> 0.20889091E-01</totfact>
</mgrwt>
</event>
<event>
 6    1  0.1001928E-005  0.7346201E+03  0.7818608E-02  0.9659793E-01
          1   -1    0    0  501    0  0.00000000000E+00  0.00000000000E+00  0.13363262646E+04  0.13363262646E+04  0.00000000000E+00 0. -1.
         -1   -1    0    0    0  501 -0.00000000000E+00 -0.00000000000E+00 -0.10096088161E+03  0.10096088161E+03  0.00000000000E+00 0.  1.
         23    2    1    2    0    0  0.28408224483E+03 -0.16571362971E+03  0.91780329575E+03  0.98011167865E+03  0.10046036045E+03 0.  0.
         11    1    3    3    0    0  0.14626373056E+03 -0.13963241125E+03  0.49769362605E+03  0.53720502098E+03  0.00000000000E+00 0. -1.
        -11    1    3    3    0    0  0.13781851427E+03 -0.26081218467E+02  0.42010966970E+03  0.44290665767E+03  0.00000000000E+00 0.  1.
         22    1    1    2    0    0 -0.28408224483E+03  0.16571362971E+03  0.31756208727E+03  0.45717546760E+03  0.00000000000E+00 0.  1.
<mgrwt>
<rscale>  0 0.73462011E+03</rscale>
<asrwt>0</asrwt>
<pdfrwt beam="1">  1        1 0.20558864E+00 0.73462011E+03</pdfrwt>
<pdfrwt beam="2">  1       -1 0.15532444E-01 0.73462011E+03</pdfrwt>
<totfact> 0.26910972E+02</totfact>
</mgrwt>
</event>
<event>
 6    1  0.1001928E-005  0.5916697E+04  0.7818608E-02  0.7700817E-01
         -2   -1    0    0    0  501 -0.00000000000E+00  0.00000000000E+00  0.35836700651E+04  0.35836700651E+04  0.00000000000E+00 0.  1.
          2   -1    0    0  501    0  0.00000000000E+00 -0.00000000000E+00 -0.24421407878E+04  0.24421407878E+04  0.00000000000E+00 0. -1.
         23    2    1    2    0    0  0.12940800055E+04  0.25773755523E+04 -0.97089191613E+02  0.28870716937E+04  0.90823208533E+02 0.  0.
         11    1    3    3    0    0  0.25704686793E+03  0.55233968361E+03  0.11835712242E+02  0.60933759320E+03  0.00000000000E+00 0. -1.
        -11    1    3    3    0    0  0.10370331376E+04  0.20250358686E+04 -0.10892490386E+03  0.22777341005E+04  0.00000000000E+00 0.  1.
         22    1    1    2    0    0 -0.12940800055E+04 -0.25773755523E+04  0.12386184689E+04  0.31387391592E+04  0.00000000000E+00 0.  1.
<mgrwt>
<rscale>  0 0.59166973E+04</rscale>
<asrwt>0</asrwt>
<pdfrwt beam="1">  1        2 0.37571396E+00 0.59166973E+04</pdfrwt>
<pdfrwt beam="2">  1       -2 0.55133386E+00 0.59166973E+04</pdfrwt>
<totfact> 0.21786309E-03</totfact>
</mgrwt>
</event>
<event>
 6    1  0.1007523E-005  0.2305295E+04  0.7818608E-02  0.8475836E-01
         -2   -1    0    0    0  501 -0.00000000000E+00  0.00000000000E+00  0.61154013517E+03  0.61154013517E+03  0.00000000000E+00 0.  1.
          2   -1    0    0  501    0  0.00000000000E+00 -0.00000000000E+00 -0.21725412403E+04  0.21725412403E+04  0.00000000000E+00 0. -1.
         23    2    1    2    0    0 -0.61961715101E+03 -0.13876890211E+03 -0.19408734828E+04  0.20441589165E+04  0.91725555124E+02 0.  0.
         13    1    3    3    0    0 -0.36295320649E+03 -0.81073758981E+02 -0.98935278075E+03  0.10569422450E+04  0.00000000000E+00 0.  1.
        -13    1    3    3    0    0 -0.25666394452E+03 -0.57695143133E+02 -0.95152070208E+03  0.98721667148E+03  0.00000000000E+00 0. -1.
         22    1    1    2    0    0  0.61961715101E+03  0.13876890211E+03  0.37987237767E+03  0.73992245901E+03  0.00000000000E+00 0.  1.
<mgrwt>
<rscale>  0 0.23052949E+04</rscale>
<asrwt>0</asrwt>
<pdfrwt beam="1">  1        2 0.33423712E+00 0.23052949E+04</pdfrwt>
<pdfrwt beam="2">  1       -2 0.94083097E-01 0.23052949E+04</pdfrwt>
<totfact> 0.46222622E+00</totfact>
</mgrwt>
</event>
<event>
 6    1  0.1001928E-005  0.2027972E+04  0.7818608E-02  0.8593653E-01
         -1   -1    0    0    0  501 -0.00000000000E+00  0.00000000000E+00  0.24805758492E+04  0.24805758492E+04  0.00000000000E+00 0.  1.
          1   -1    0    0  501    0  0.00000000000E+00 -0.00000000000E+00 -0.41448738798E+03  0.41448738798E+03  0.00000000000E+00 0. -1.
         23    2    1    2    0    0  0.87360425322E+03  0.31181287189E+03  0.16128327669E+04  0.18626619670E+04  0.88704063076E+02 0.  0.
         11    1    3    3    0    0  0.71143710391E+03  0.26411797010E+03  0.12488650256E+04  0.14613572140E+04  0.00000000000E+00 0. -1.
        -11    1    3    3    0    0  0.16216714930E+03  0.47694901798E+02  0.36396774136E+03  0.40130475293E+03  0.00000000000E+00 0.  1.
         22    1    1    2    0    0 -0.87360425322E+03 -0.31181287189E+03  0.45325569430E+03  0.10324012702E+04  0.00000000000E+00 0. -1.
<mgrwt>
<rscale>  0 0.20279718E+04</rscale>
<asrwt>0</asrwt>
<pdfrwt beam="1">  1        1 0.63767292E-01 0.20279718E+04</pdfrwt>
<pdfrwt beam="2">  1       -1 0.38162704E+00 0.20279718E+04</pdfrwt>
<totfact> 0.50589139E-01</totfact>
</mgrwt>
</event>
<event>
 6    1  0.1001928E-005  0.1063284E+04  0.7818608E-02  0.9241736E-01
          1   -1    0    0  501    0  0.00000000000E+00  0.00000000000E+00  0.37801316170E+03  0.37801316170E+03  0.00000000000E+00 0. -1.
         -1   -1    0    0    0  501 -0.00000000000E+00 -0.00000000000E+00 -0.74770688889E+03  0.74770688889E+03  0.00000000000E+00 0.  1.
         23    2    1    2    0    0  0.31923145096E+03 -0.10215459454E+03 -0.61777874986E+03  0.70871830126E+03  0.91031677461E+02 0.  0.
         11    1    3    3    0    0  0.11440351804E+03 -0.40664633898E+02 -0.14034953166E+03  0.18557954744E+03  0.00000000000E+00 0. -1.
        -11    1    3    3    0    0  0.20482793292E+03 -0.61489960638E+02 -0.47742921820E+03  0.52313875382E+03  0.00000000000E+00 0.  1.
         22    1    1    2    0    0 -0.31923145096E+03  0.10215459454E+03  0.24808502267E+03  0.41700174933E+03  0.00000000000E+00 0. -1.
<mgrwt>
<rscale>  0 0.10632837E+04</rscale>
<asrwt>0</asrwt>
<pdfrwt beam="1">  1        1 0.58155872E-01 0.10632837E+04</pdfrwt>
<pdfrwt beam="2">  1       -1 0.11503183E+00 0.10632837E+04</pdfrwt>
<totfact> 0.44337008E+01</totfact>
</mgrwt>
</event>
<event>
 6    1  0.1001928E-005  0.1536495E+04  0.7818608E-02  0.8860541E-01
          2   -1    0    0  501    0  0.00000000000E+00  0.00000000000E+00  0.27592635155E+04  0.27592635155E+04  0.00000000000E+00 0. -1.
         -2   -1    0    0    0  501 -0.00000000000E+00 -0.00000000000E+00 -0.21389906060E+03  0.21389906060E+03  0.00000000000E+00 0.  1.
         23    2    1    2    0    0  0.66597823591E+03  0.31759755497E+03  0.16723312750E+04  0.18301043314E+04  0.90524873581E+02 0.  0.
         13    1    3    3    0    0  0.52699139670E+03  0.25318027609E+03  0.14085360336E+04  0.15250553900E+04  0.00000000000E+00 0. -1.
        -13    1    3    3    0    0  0.13898683921E+03  0.64417278879E+02  0.26379524141E+03  0.30504894145E+03  0.00000000000E+00 0.  1.
         22    1    1    2    0    0 -0.66597823591E+03 -0.31759755497E+03  0.87303317990E+03  0.11430582447E+04  0.00000000000E+00 0. -1.
<mgrwt>
<rscale>  0 0.15364945E+04</rscale>
<asrwt>0</asrwt>
<pdfrwt beam="1">  1        2 0.42450206E+00 0.15364945E+04</pdfrwt>
<pdfrwt beam="2">  1       -2 0.32907550E-01 0.15364945E+04</pdfrwt>
<totfact> 0.20406750E+01</totfact>
</mgrwt>
</event>
<event>
 6    1  0.1001928E-005  0.2444301E+04  0.7818608E-02  0.8423102E-01
          1   -1    0    0  501    0  0.00000000000E+00  0.00000000000E+00  0.19167017244E+04  0.19167017244E+04  0.00000000000E+00 0. -1.
         -1   -1    0    0    0  501 -0.00000000000E+00 -0.00000000000E+00 -0.77928262287E+03  0.77928262287E+03  0.00000000000E+00 0.  1.
         23    2    1    2    0    0  0.47750110342E+03  0.33313227190E+03 -0.61339883515E+03  0.85089685293E+03  0.93717175625E+02 0.  0.
         11    1    3    3    0    0  0.20145958391E+03  0.19634185265E+03 -0.27854793701E+03  0.39588513518E+03  0.00000000000E+00 0. -1.
        -11    1    3    3    0    0  0.27604151952E+03  0.13679041925E+03 -0.33485089814E+03  0.45501171774E+03  0.00000000000E+00 0.  1.
         22    1    1    2    0    0 -0.47750110342E+03 -0.33313227190E+03  0.17508179367E+04  0.18450874944E+04  0.00000000000E+00 0. -1.
<mgrwt>
<rscale>  0 0.24443014E+04</rscale>
<asrwt>0</asrwt>
<pdfrwt beam="1">  1        1 0.29487719E+00 0.24443014E+04</pdfrwt>
<pdfrwt beam="2">  1       -1 0.11988963E+00 0.24443014E+04</pdfrwt>
<totfact> 0.18798600E+00</totfact>
</mgrwt>
</event>
<event>
 6    1  0.1001928E-005  0.1796671E+04  0.7818608E-02  0.8708072E-01
          1   -1    0    0  501    0  0.00000000000E+00  0.00000000000E+00  0.85916756686E+03  0.85916756686E+03  0.00000000000E+00 0. -1.
         -1   -1    0    0    0  501 -0.00000000000E+00 -0.00000000000E+00 -0.93928893234E+03  0.93928893234E+03  0.00000000000E+00 0.  1.
         23    2    1    2    0    0 -0.41700352836E+03 -0.29464265272E+03  0.69684908955E+03  0.86873109702E+03  0.91590555445E+02 0.  0.
         11    1    3    3    0    0 -0.24158258419E+03 -0.11591855587E+03  0.37637217347E+03  0.46201219632E+03  0.00000000000E+00 0.  1.
        -11    1    3    3    0    0 -0.17542094417E+03 -0.17872409685E+03  0.32047691608E+03  0.40671890071E+03  0.00000000000E+00 0. -1.
         22    1    1    2    0    0  0.41700352836E+03  0.29464265272E+03 -0.77697045503E+03  0.92972540218E+03  0.00000000000E+00 0.  1.
<mgrwt>
<rscale>  0 0.17966709E+04</rscale>
<asrwt>0</asrwt>
<pdfrwt beam="1">  1        1 0.13217963E+00 0.17966709E+04</pdfrwt>
<pdfrwt beam="2">  1       -1 0.14450599E+00 0.17966709E+04</pdfrwt>
<totfact> 0.71608460E+00</totfact>
</mgrwt>
</event>
<event>
 6    1  0.1001928E-005  0.1906387E+04  0.7818608E-02  0.8651684E-01
         -1   -1    0    0    0  501 -0.00000000000E+00  0.00000000000E+00  0.97924879480E+03  0.97924879480E+03  0.00000000000E+00 0.  1.
          1   -1    0    0  501    0  0.00000000000E+00 -0.00000000000E+00 -0.92783130091E+03  0.92783130091E+03  0.00000000000E+00 0. -1.
         23    2    1    2    0    0 -0.82324110705E+02 -0.73071719230E+03  0.62901684582E+03  0.97201545320E+03  0.91798554461E+02 0.  0.
         13    1    3    3    0    0 -0.48960154205E+02 -0.19496687961E+03  0.21309354953E+03  0.29294716536E+03  0.00000000000E+00 0.  1.
        -13    1    3    3    0    0 -0.33363956501E+02 -0.53575031269E+03  0.41592329630E+03  0.67906828784E+03  0.00000000000E+00 0. -1.
         22    1    1    2    0    0  0.82324110705E+02  0.73071719230E+03 -0.57759935193E+03  0.93506464251E+03  0.00000000000E+00 0. -1.
<mgrwt>
<rscale>  0 0.19063868E+04</rscale>
<asrwt>0</asrwt>
<pdfrwt beam="1">  1        1 0.14274328E+00 0.19063868E+04</pdfrwt>
<pdfrwt beam="2">  1       -1 0.15065366E+00 0.19063868E+04</pdfrwt>
<totfact> 0.55691693E+00</totfact>
</mgrwt>
</event>
<event>
 6    1  0.1001928E-005  0.3633425E+04  0.7818608E-02  0.8082878E-01
         -1   -1    0    0    0  501 -0.00000000000E+00  0.00000000000E+00  0.17550081340E+04  0.17550081340E+04  0.00000000000E+00 0.  1.
          1   -1    0    0  501    0  0.00000000000E+00 -0.00000000000E+00 -0.18805867201E+04  0.18805867201E+04  0.00000000000E+00 0. -1.
         23    2    1    2    0    0 -0.10617897767E+04  0.10344547647E+04  0.98595909090E+03  0.17827564376E+04  0.92795456150E+02 0.  0.
         13    1    3    3    0    0 -0.40491772281E+03  0.38971181511E+03  0.42813268763E+03  0.70649222168E+03  0.00000000000E+00 0. -1.
        -13    1    3    3    0    0 -0.65687205392E+03  0.64474294962E+03  0.55782640327E+03  0.10762642159E+04  0.00000000000E+00 0.  1.
         22    1    1    2    0    0  0.10617897767E+04 -0.10344547647E+04 -0.11115376770E+04  0.18528384165E+04  0.00000000000E+00 0. -1.
<mgrwt>
<rscale>  0 0.36334254E+04</rscale>
<asrwt>0</asrwt>
<pdfrwt beam="1">  1        1 0.28932103E+00 0.36334254E+04</pdfrwt>
<pdfrwt beam="2">  1       -1 0.27000125E+00 0.36334254E+04</pdfrwt>
<totfact> 0.14971608E-01</totfact>
</mgrwt>
</event>
<event>
 6    1  0.1001928E-005  0.2381339E+04  0.7818608E-02  0.8446523E-01
          2   -1    0    0  501    0  0.00000000000E+00  0.00000000000E+00  0.12420477248E+04  0.12420477248E+04  0.00000000000E+00 0. -1.
         -2   -1    0    0    0  501 -0.00000000000E+00 -0.00000000000E+00 -0.11414168905E+04  0.11414168905E+04  0.00000000000E+00 0.  1.
         23    2    1    2    0    0  0.26791746922E+03 -0.22203154448E+03 -0.10874401588E+04  0.11454862385E+04  0.92384233526E+02 0.  0.
         11    1    3    3    0    0  0.10762050259E+03 -0.14684138669E+03 -0.59184515359E+03  0.61921341333E+03  0.00000000000E+00 0.  1.
        -11    1    3    3    0    0  0.16029696663E+03 -0.75190157789E+02 -0.49559500518E+03  0.52627282516E+03  0.00000000000E+00 0. -1.
         22    1    1    2    0    0 -0.26791746922E+03  0.22203154448E+03  0.11880709930E+04  0.12379783768E+04  0.00000000000E+00 0. -1.
<mgrwt>
<rscale>  0 0.23813393E+04</rscale>
<asrwt>0</asrwt>
<pdfrwt beam="1">  1        2 0.19108426E+00 0.23813393E+04</pdfrwt>
<pdfrwt beam="2">  1       -2 0.17560260E+00 0.23813393E+04</pdfrwt>
<totfact> 0.31333717E+00</totfact>
</mgrwt>
</event>
<event>
 6    1  0.1186068E-005  0.3286715E+04  0.7818608E-02  0.8166284E-01
         -2   -1    0    0    0  501 -0.00000000000E+00  0.00000000000E+00  0.27115335402E+04  0.27115335402E+04  0.00000000000E+00 0.  1.
          2   -1    0    0  501    0  0.00000000000E+00 -0.00000000000E+00 -0.99597645100E+03  0.99597645100E+03  0.00000000000E+00 0. -1.
         23    2    1    2    0    0  0.36815445466E+03 -0.14169661887E+04  0.17339438461E+02  0.14653516400E+04  0.60198755697E+02 0.  0.
         11    1    3    3    0    0  0.18081931259E+03 -0.81244637895E+03  0.15404954169E+02  0.83246744986E+03  0.00000000000E+00 0.  1.
        -11    1    3    3    0    0  0.18733514207E+03 -0.60451980980E+03  0.19344842924E+01  0.63288419013E+03  0.00000000000E+00 0. -1.
         22    1    1    2    0    0 -0.36815445466E+03  0.14169661887E+04  0.16982176507E+04  0.22421583512E+04  0.00000000000E+00 0.  1.
<mgrwt>
<rscale>  0 0.32867148E+04</rscale>
<asrwt>0</asrwt>
<pdfrwt beam="1">  1        2 0.15322715E+00 0.32867148E+04</pdfrwt>
<pdfrwt beam="2">  1       -2 0.41715901E+00 0.32867148E+04</pdfrwt>
<totfact> 0.12116100E-01</totfact>
</mgrwt>
</event>
<event>
 6    1  0.1001928E-005  0.2885681E+04  0.7818608E-02  0.8277151E-01
         -2   -1    0    0    0  501 -0.00000000000E+00  0.00000000000E+00  0.57710274255E+03  0.57710274255E+03  0.00000000000E+00 0. -1.
          2   -1    0    0  501    0  0.00000000000E+00 -0.00000000000E+00 -0.36073097486E+04  0.36073097486E+04  0.00000000000E+00 0.  1.
         23    2    1    2    0    0 -0.66630543602E+03 -0.11234722259E+03 -0.33628524861E+04  0.34312605490E+04  0.90483587233E+02 0.  0.
         13    1    3    3    0    0 -0.50954622024E+03 -0.12094224743E+03 -0.26645149277E+04  0.27154933580E+04  0.00000000000E+00 0. -1.
        -13    1    3    3    0    0 -0.15675921578E+03  0.85950248431E+01 -0.69833755843E+03  0.71576719099E+03  0.00000000000E+00 0.  1.
         22    1    1    2    0    0  0.66630543602E+03  0.11234722259E+03  0.33264548006E+03  0.75315194211E+03  0.00000000000E+00 0. -1.
<mgrwt>
<rscale>  0 0.28856808E+04</rscale>
<asrwt>0</asrwt>
<pdfrwt beam="1">  1        2 0.55497072E+00 0.28856808E+04</pdfrwt>
<pdfrwt beam="2">  1       -2 0.88785040E-01 0.28856808E+04</pdfrwt>
<totfact> 0.64243907E-01</totfact>
</mgrwt>
</event>
<event>
 6    1  0.1001928E-005  0.3971895E+04  0.7818608E-02  0.8010240E-01
         -1   -1    0    0    0  501 -0.00000000000E+00  0.00000000000E+00  0.21311885190E+04  0.21311885190E+04  0.00000000000E+00 0.  1.
          1   -1    0    0  501    0  0.00000000000E+00 -0.00000000000E+00 -0.18506046881E+04  0.18506046881E+04  0.00000000000E+00 0. -1.
         23    2    1    2    0    0 -0.52326483406E+03  0.65841710774E+03 -0.16620297432E+04  0.18649401955E+04  0.91323004868E+02 0.  0.
         13    1    3    3    0    0 -0.10235723118E+03  0.77258762308E+02 -0.23945701935E+03  0.27163501844E+03  0.00000000000E+00 0. -1.
        -13    1    3    3    0    0 -0.42090760288E+03  0.58115834543E+03 -0.14225727239E+04  0.15933051771E+04  0.00000000000E+00 0.  1.
         22    1    1    2    0    0  0.52326483406E+03 -0.65841710774E+03  0.19426135741E+04  0.21168530116E+04  0.00000000000E+00 0.  1.
<mgrwt>
<rscale>  0 0.39718950E+04</rscale>
<asrwt>0</asrwt>
<pdfrwt beam="1">  1        1 0.28470841E+00 0.39718950E+04</pdfrwt>
<pdfrwt beam="2">  1       -1 0.32787516E+00 0.39718950E+04</pdfrwt>
<totfact> 0.64168027E-02</totfact>
</mgrwt>
</event>
<event>
 6    1  0.1001928E-005  0.2005050E+04  0.7818608E-02  0.8604263E-01
          1   -1    0    0  501    0  0.00000000000E+00  0.00000000000E+00  0.19973594679E+04  0.19973594679E+04  0.00000000000E+00 0. -1.
         -1   -1    0    0    0  501 -0.00000000000E+00 -0.00000000000E+00 -0.50319276312E+03  0.50319276312E+03  0.00000000000E+00 0.  1.
         23    2    1    2    0    0 -0.62112278322E+02 -0.54470826516E+03 -0.29476818558E+03  0.62949555867E+03  0.93868769562E+02 0.  0.
         13    1    3    3    0    0 -0.85791244390E+02 -0.39820191663E+03 -0.20449059248E+03  0.45578647022E+03  0.00000000000E+00 0. -1.
        -13    1    3    3    0    0  0.23678966067E+02 -0.14650634853E+03 -0.90277593091E+02  0.17370908844E+03  0.00000000000E+00 0.  1.
         22    1    1    2    0    0  0.62112278322E+02  0.54470826516E+03  0.17889348903E+04  0.18710566723E+04  0.00000000000E+00 0. -1.
<mgrwt>
<rscale>  0 0.20050505E+04</rscale>
<asrwt>0</asrwt>
<pdfrwt beam="1">  1        1 0.30728607E+00 0.20050505E+04</pdfrwt>
<pdfrwt beam="2">  1       -1 0.77414272E-01 0.20050505E+04</pdfrwt>
<totfact> 0.46404788E+00</totfact>
</mgrwt>
</event>
<event>
 6    1  0.1001928E-005  0.4352708E+04  0.7818608E-02  0.7936943E-01
         -2   -1    0    0    0  501 -0.00000000000E+00  0.00000000000E+00  0.13530770777E+04  0.13530770777E+04  0.00000000000E+00 0.  1.
          2   -1    0    0  501    0  0.00000000000E+00 -0.00000000000E+00 -0.35005519099E+04  0.35005519099E+04  0.00000000000E+00 0. -1.
         23    2    1    2    0    0  0.53388447466E+03 -0.26249119587E+03 -0.34074824976E+04  0.34602325698E+04  0.91313776745E+02 0.  0.
         11    1    3    3    0    0  0.15570214159E+03 -0.38169932926E+02 -0.10360890347E+04  0.10484181363E+04  0.00000000000E+00 0. -1.
        -11    1    3    3    0    0  0.37818233307E+03 -0.22432126294E+03 -0.23713934628E+04  0.24118144335E+04  0.00000000000E+00 0.  1.
         22    1    1    2    0    0 -0.53388447466E+03  0.26249119587E+03  0.12600076654E+04  0.13933964178E+04  0.00000000000E+00 0.  1.
<mgrwt>
<rscale>  0 0.43527079E+04</rscale>
<asrwt>0</asrwt>
<pdfrwt beam="1">  1        2 0.53854645E+00 0.43527079E+04</pdfrwt>
<pdfrwt beam="2">  1       -2 0.20816570E+00 0.43527079E+04</pdfrwt>
<totfact> 0.73148078E-02</totfact>
</mgrwt>
</event>
<event>
 6    1  0.1001928E-005  0.2020910E+04  0.7818608E-02  0.8596906E-01
         -2   -1    0    0    0  501 -0.00000000000E+00  0.00000000000E+00  0.10137295724E+04  0.10137295724E+04  0.00000000000E+00 0. -1.
          2   -1    0    0  501    0  0.00000000000E+00 -0.00000000000E+00 -0.10071911118E+04  0.10071911118E+04  0.00000000000E+00 0.  1.
         23    2    1    2    0    0 -0.56594145853E+03  0.82812104622E+03  0.10683832976E+03  0.10128858309E+04  0.91918856328E+02 0.  0.
         13    1    3    3    0    0 -0.31641102787E+03  0.39979831803E+03  0.25014443754E+02  0.51047072007E+03  0.00000000000E+00 0. -1.
        -13    1    3    3    0    0 -0.24953043065E+03  0.42832272819E+03  0.81823886001E+02  0.50241511087E+03  0.00000000000E+00 0.  1.
         22    1    1    2    0    0  0.56594145853E+03 -0.82812104622E+03 -0.10029986917E+03  0.10080348533E+04  0.00000000000E+00 0. -1.
<mgrwt>
<rscale>  0 0.20209101E+04</rscale>
<asrwt>0</asrwt>
<pdfrwt beam="1">  1        2 0.15495248E+00 0.20209101E+04</pdfrwt>
<pdfrwt beam="2">  1       -2 0.15595840E+00 0.20209101E+04</pdfrwt>
<totfact> 0.62401806E+00</totfact>
</mgrwt>
</event>
<event>
 6    1  0.1001928E-005  0.5669430E+04  0.7818608E-02  0.7732796E-01
          2   -1    0    0  501    0  0.00000000000E+00  0.00000000000E+00  0.41735308987E+04  0.41735308987E+04  0.00000000000E+00 0. -1.
         -2   -1    0    0    0  501 -0.00000000000E+00 -0.00000000000E+00 -0.19253744233E+04  0.19253744233E+04  0.00000000000E+00 0.  1.
         23    2    1    2    0    0  0.18764669428E+04  0.20044766685E+04  0.36926821721E+03  0.27718531751E+04  0.88068756017E+02 0.  0.
         11    1    3    3    0    0  0.41620147842E+03  0.44334643131E+03  0.11878377421E+03  0.61958801942E+03  0.00000000000E+00 0. -1.
        -11    1    3    3    0    0  0.14602654644E+04  0.15611302372E+04  0.25048444300E+03  0.21522651556E+04  0.00000000000E+00 0.  1.
         22    1    1    2    0    0 -0.18764669428E+04 -0.20044766685E+04  0.18788882581E+04  0.33270521470E+04  0.00000000000E+00 0. -1.
<mgrwt>
<rscale>  0 0.56694302E+04</rscale>
<asrwt>0</asrwt>
<pdfrwt beam="1">  1        2 0.64208167E+00 0.56694302E+04</pdfrwt>
<pdfrwt beam="2">  1       -2 0.29621145E+00 0.56694302E+04</pdfrwt>
<totfact> 0.56353068E-03</totfact>
</mgrwt>
</event>
<event>
 6    1  0.1001928E-005  0.4534452E+04  0.7818608E-02  0.7904633E-01
          1   -1    0    0  501    0  0.00000000000E+00  0.00000000000E+00  0.22940928745E+04  0.22940928745E+04  0.00000000000E+00 0. -1.
         -1   -1    0    0    0  501 -0.00000000000E+00 -0.00000000000E+00 -0.22406739946E+04  0.22406739946E+04  0.00000000000E+00 0.  1.
         23    2    1    2    0    0 -0.93423637337E+03  0.62825041638E+03 -0.19399513268E+04  0.22454392455E+04  0.10530939127E+03 0.  0.
         11    1    3    3    0    0 -0.43817094254E+03  0.34560944612E+03 -0.10212655066E+04  0.11637967602E+04  0.00000000000E+00 0. -1.
        -11    1    3    3    0    0 -0.49606543083E+03  0.28264097026E+03 -0.91868582029E+03  0.10816424854E+04  0.00000000000E+00 0.  1.
         22    1    1    2    0    0  0.93423637337E+03 -0.62825041638E+03  0.19933702068E+04  0.22893276236E+04  0.00000000000E+00 0. -1.
<mgrwt>
<rscale>  0 0.45344522E+04</rscale>
<asrwt>0</asrwt>
<pdfrwt beam="1">  1        1 0.35293736E+00 0.45344522E+04</pdfrwt>
<pdfrwt beam="2">  1       -1 0.34471908E+00 0.45344522E+04</pdfrwt>
<totfact> 0.23705955E-02</totfact>
</mgrwt>
</event>
<event>
 6    1  0.1001928E-005  0.1014648E+04  0.7818608E-02  0.9292623E-01
          1   -1    0    0  501    0  0.00000000000E+00  0.00000000000E+00  0.31439734496E+04  0.31439734496E+04  0.00000000000E+00 0. -1.
         -1   -1    0    0    0  501 -0.00000000000E+00 -0.00000000000E+00 -0.81863844599E+02  0.81863844599E+02  0.00000000000E+00 0.  1.
         23    2    1    2    0    0 -0.44416184750E+03 -0.20428300010E+03  0.19190555114E+04  0.19826221271E+04  0.94895479256E+02 0.  0.
         13    1    3    3    0    0 -0.93681446745E+02 -0.87332140773E+02  0.45759115670E+03  0.47517658082E+03  0.00000000000E+00 0. -1.
        -13    1    3    3    0    0 -0.35048040075E+03 -0.11695085933E+03  0.14614643547E+04  0.15074455463E+04  0.00000000000E+00 0.  1.
         22    1    1    2    0    0  0.44416184750E+03  0.20428300010E+03  0.11430540936E+04  0.12432151671E+04  0.00000000000E+00 0.  1.
<mgrwt>
<rscale>  0 0.10146482E+04</rscale>
<asrwt>0</asrwt>
<pdfrwt beam="1">  1        1 0.48368813E+00 0.10146482E+04</pdfrwt>
<pdfrwt beam="2">  1       -1 0.12594440E-01 0.10146482E+04</pdfrwt>
<totfact> 0.21001194E+01</totfact>
</mgrwt>
</event>
<event>
 6    1  0.1001928E-005  0.2468637E+04  0.7818608E-02  0.8414245E-01
         -2   -1    0    0    0  501 -0.00000000000E+00  0.00000000000E+00  0.65073397648E+03  0.65073397648E+03  0.00000000000E+00 0.  1.
          2   -1    0    0  501    0  0.00000000000E+00 -0.00000000000E+00 -0.23412666597E+04  0.23412666597E+04  0.00000000000E+00 0. -1.
         23    2    1    2    0    0 -0.88353286072E+03 -0.66560716829E+03 -0.18728231341E+03  0.11256070837E+04  0.90848354228E+02 0.  0.
         13    1    3    3    0    0 -0.43773725300E+03 -0.35509446929E+03 -0.13659323202E+03  0.57996870245E+03  0.00000000000E+00 0. -1.
        -13    1    3    3    0    0 -0.44579560773E+03 -0.31051269900E+03 -0.50689081385E+02  0.54563838124E+03  0.00000000000E+00 0.  1.
         22    1    1    2    0    0  0.88353286072E+03  0.66560716829E+03 -0.15032503698E+04  0.18663935525E+04  0.00000000000E+00 0.  1.
<mgrwt>
<rscale>  0 0.24686367E+04</rscale>
<asrwt>0</asrwt>
<pdfrwt beam="1">  1        2 0.36019488E+00 0.24686367E+04</pdfrwt>
<pdfrwt beam="2">  1       -2 0.10011292E+00 0.24686367E+04</pdfrwt>
<totfact> 0.31633722E+00</totfact>
</mgrwt>
</event>
<event>
 6    1  0.1001928E-005  0.2378594E+04  0.7818608E-02  0.8447561E-01
          2   -1    0    0  501    0  0.00000000000E+00  0.00000000000E+00  0.76751001275E+03  0.76751001275E+03  0.00000000000E+00 0. -1.
         -2   -1    0    0    0  501 -0.00000000000E+00 -0.00000000000E+00 -0.18428784566E+04  0.18428784566E+04  0.00000000000E+00 0.  1.
         23    2    1    2    0    0  0.50198806713E+02  0.10301038897E+04  0.10759722006E+03  0.10409803944E+04  0.91809998493E+02 0.  0.
         13    1    3    3    0    0  0.32180381569E+02  0.29229479367E+03  0.68399609961E+02  0.30191112932E+03  0.00000000000E+00 0. -1.
        -13    1    3    3    0    0  0.18018425144E+02  0.73780909606E+03  0.39197610095E+02  0.73906926503E+03  0.00000000000E+00 0.  1.
         22    1    1    2    0    0 -0.50198806713E+02 -0.10301038897E+04 -0.11829656639E+04  0.15694080750E+04  0.00000000000E+00 0.  1.
<mgrwt>
<rscale>  0 0.23785943E+04</rscale>
<asrwt>0</asrwt>
<pdfrwt beam="1">  1        2 0.11807846E+00 0.23785943E+04</pdfrwt>
<pdfrwt beam="2">  1       -2 0.28351976E+00 0.23785943E+04</pdfrwt>
<totfact> 0.13139286E+00</totfact>
</mgrwt>
</event>
<event>
 6    1  0.1001928E-005  0.3896413E+04  0.7818608E-02  0.8025776E-01
         -2   -1    0    0    0  501 -0.00000000000E+00  0.00000000000E+00  0.24706310894E+04  0.24706310894E+04  0.00000000000E+00 0.  1.
          2   -1    0    0  501    0  0.00000000000E+00 -0.00000000000E+00 -0.15362506145E+04  0.15362506145E+04  0.00000000000E+00 0. -1.
         23    2    1    2    0    0 -0.50233149463E+03  0.16455566141E+04 -0.46999316733E+03  0.17859677417E+04  0.92702191243E+02 0.  0.
         13    1    3    3    0    0 -0.32092919044E+03  0.11048396987E+04 -0.27178638880E+03  0.11821734840E+04  0.00000000000E+00 0.  1.
        -13    1    3    3    0    0 -0.18140230419E+03  0.54071691543E+03 -0.19820677853E+03  0.60379425771E+03  0.00000000000E+00 0. -1.
         22    1    1    2    0    0  0.50233149463E+03 -0.16455566141E+04  0.14043736422E+04  0.22209139622E+04  0.00000000000E+00 0.  1.
<mgrwt>
<rscale>  0 0.38964130E+04</rscale>
<asrwt>0</asrwt>
<pdfrwt beam="1">  1        2 0.23634625E+00 0.38964130E+04</pdfrwt>
<pdfrwt beam="2">  1       -2 0.38009709E+00 0.38964130E+04</pdfrwt>
<totfact> 0.96265232E-02</totfact>
</mgrwt>
</event>
<event>
 6    1  0.1001928E-005  0.2684588E+04  0.7818608E-02  0.8340023E-01
         -1   -1    0    0    0  501 -0.00000000000E+00  0.00000000000E+00  0.66066871945E+03  0.66066871945E+03  0.00000000000E+00 0.  1.
          1   -1    0    0  501    0  0.00000000000E+00 -0.00000000000E+00 -0.27271650507E+04  0.27271650507E+04  0.00000000000E+00 0. -1.
         23    2    1    2    0    0 -0.10332972424E+04 -0.85257485376E+03 -0.11178266161E+04  0.17463218753E+04  0.74274331357E+02 0.  0.
         13    1    3    3    0    0 -0.27769885403E+03 -0.21171092241E+03 -0.25330647751E+03  0.43139580405E+03  0.00000000000E+00 0.  1.
        -13    1    3    3    0    0 -0.75559838834E+03 -0.64086393135E+03 -0.86452013857E+03  0.13149260713E+04  0.00000000000E+00 0. -1.
         22    1    1    2    0    0  0.10332972424E+04  0.85257485376E+03 -0.94866971517E+03  0.16415118948E+04  0.00000000000E+00 0. -1.
<mgrwt>
<rscale>  0 0.26845876E+04</rscale>
<asrwt>0</asrwt>
<pdfrwt beam="1">  1        1 0.41956386E+00 0.26845876E+04</pdfrwt>
<pdfrwt beam="2">  1       -1 0.10164134E+00 0.26845876E+04</pdfrwt>
<totfact> 0.75327332E-01</totfact>
</mgrwt>
</event>
<event>
 6    1  0.1001928E-005  0.1947158E+04  0.7818608E-02  0.8631732E-01
         -2   -1    0    0    0  501 -0.00000000000E+00  0.00000000000E+00  0.16642876408E+04  0.16642876408E+04  0.00000000000E+00 0.  1.
          2   -1    0    0  501    0  0.00000000000E+00 -0.00000000000E+00 -0.56952687701E+03  0.56952687701E+03  0.00000000000E+00 0. -1.
         23    2    1    2    0    0 -0.75649272136E+03 -0.23044975246E+03  0.11957550826E+04  0.14365766748E+04  0.92379646987E+02 0.  0.
         13    1    3    3    0    0 -0.50030966781E+03 -0.18825400318E+03  0.75602379796E+03  0.92591647382E+03  0.00000000000E+00 0. -1.
        -13    1    3    3    0    0 -0.25618305355E+03 -0.42195749284E+02  0.43973128467E+03  0.51066020102E+03  0.00000000000E+00 0.  1.
         22    1    1    2    0    0  0.75649272136E+03  0.23044975246E+03 -0.10099431880E+03  0.79723784300E+03  0.00000000000E+00 0. -1.
<mgrwt>
<rscale>  0 0.19471585E+04</rscale>
<asrwt>0</asrwt>
<pdfrwt beam="1">  1        2 0.87619521E-01 0.19471585E+04</pdfrwt>
<pdfrwt beam="2">  1       -2 0.25604425E+00 0.19471585E+04</pdfrwt>
<totfact> 0.29067200E+00</totfact>
</mgrwt>
</event>
<event>
 6    1  0.1001928E-005  0.1839098E+04  0.7818608E-02  0.8685779E-01
          1   -1    0    0  501    0  0.00000000000E+00  0.00000000000E+00  0.29830044134E+04  0.29830044134E+04  0.00000000000E+00 0. -1.
         -1   -1    0    0    0  501 -0.00000000000E+00 -0.00000000000E+00 -0.28346269530E+03  0.28346269530E+03  0.00000000000E+00 0.  1.
         23    2    1    2    0    0  0.44291322842E+03  0.20417236568E+03 -0.27127244620E+02  0.49652448925E+03  0.89119011459E+02 0.  0.
         13    1    3    3    0    0  0.27591414133E+03  0.12613354381E+03  0.26542493506E+02  0.30453700633E+03  0.00000000000E+00 0. -1.
        -13    1    3    3    0    0  0.16699908709E+03  0.78038821868E+02 -0.53669738126E+02  0.19198748292E+03  0.00000000000E+00 0.  1.
         22    1    1    2    0    0 -0.44291322842E+03 -0.20417236568E+03  0.27266689627E+04  0.27699426195E+04  0.00000000000E+00 0. -1.
<mgrwt>
<rscale>  0 0.18390981E+04</rscale>
<asrwt>0</asrwt>
<pdfrwt beam="1">  1        1 0.45892373E+00 0.18390981E+04</pdfrwt>
<pdfrwt beam="2">  1       -1 0.43609648E-01 0.18390981E+04</pdfrwt>
<totfact> 0.30119294E+00</totfact>
</mgrwt>
</event>
<event>
 6    1  0.1001928E-005  0.2161458E+04  0.7818608E-02  0.8534644E-01
          2   -1    0    0  501    0  0.00000000000E+00  0.00000000000E+00  0.16554443106E+04  0.16554443106E+04  0.00000000000E+00 0. -1.
         -2   -1    0    0    0  501 -0.00000000000E+00 -0.00000000000E+00 -0.70553571545E+03  0.70553571545E+03  0.00000000000E+00 0.  1.
         23    2    1    2    0    0  0.44342356730E+03 -0.10357008286E+03 -0.59006890167E+03  0.75509026868E+03  0.12094950617E+03 0.  0.
         13    1    3    3    0    0  0.44417917331E+03 -0.11146384166E+03 -0.59035714118E+03  0.74715519147E+03  0.00000000000E+00 0. -1.
        -13    1    3    3    0    0 -0.75560600934E+00  0.78937587956E+01  0.28823951080E+00  0.79350772133E+01  0.00000000000E+00 0.  1.
         22    1    1    2    0    0 -0.44342356730E+03  0.10357008286E+03  0.15399774968E+04  0.16058897574E+04  0.00000000000E+00 0. -1.
<mgrwt>
<rscale>  0 0.21614579E+04</rscale>
<asrwt>0</asrwt>
<pdfrwt beam="1">  1        2 0.25468374E+00 0.21614579E+04</pdfrwt>
<pdfrwt beam="2">  1       -2 0.10854396E+00 0.21614579E+04</pdfrwt>
<totfact> 0.64614129E+00</totfact>
</mgrwt>
</event>
<event>
 6    1  0.1001928E-005  0.1269513E+04  0.7818608E-02  0.9054097E-01
          1   -1    0    0  501    0  0.00000000000E+00  0.00000000000E+00  0.47633981499E+03  0.47633981499E+03  0.00000000000E+00 0. -1.
         -1   -1    0    0    0  501 -0.00000000000E+00 -0.00000000000E+00 -0.84585782494E+03  0.84585782494E+03  0.00000000000E+00 0.  1.
         23    2    1    2    0    0  0.16365226273E+03 -0.58548099016E+03 -0.36386680128E+03  0.71424863789E+03  0.90454489779E+02 0.  0.
         11    1    3    3    0    0  0.15598707855E+02 -0.20643075901E+03 -0.13843614689E+03  0.24904125103E+03  0.00000000000E+00 0. -1.
        -11    1    3    3    0    0  0.14805355487E+03 -0.37905023115E+03 -0.22543065439E+03  0.46520738685E+03  0.00000000000E+00 0.  1.
         22    1    1    2    0    0 -0.16365226273E+03  0.58548099016E+03 -0.56512086685E+01  0.60794900205E+03  0.00000000000E+00 0. -1.
<mgrwt>
<rscale>  0 0.12695129E+04</rscale>
<asrwt>0</asrwt>
<pdfrwt beam="1">  1        1 0.73283049E-01 0.12695129E+04</pdfrwt>
<pdfrwt beam="2">  1       -1 0.13013197E+00 0.12695129E+04</pdfrwt>
<totfact> 0.23608963E+01</totfact>
</mgrwt>
</event>
<event>
 6    1  0.1001928E-005  0.2166081E+04  0.7818608E-02  0.8532680E-01
         -2   -1    0    0    0  501 -0.00000000000E+00  0.00000000000E+00  0.38548287710E+03  0.38548287710E+03  0.00000000000E+00 0.  1.
          2   -1    0    0  501    0  0.00000000000E+00 -0.00000000000E+00 -0.30428774803E+04  0.30428774803E+04  0.00000000000E+00 0. -1.
         23    2    1    2    0    0 -0.10045385289E+04  0.37671066388E+03 -0.11218061923E+04  0.15551170876E+04  0.94506310374E+02 0.  0.
         13    1    3    3    0    0 -0.17224165691E+03  0.87933417809E+02 -0.16177719264E+03  0.25213356461E+03  0.00000000000E+00 0.  1.
        -13    1    3    3    0    0 -0.83229687196E+03  0.28877724607E+03 -0.96002899964E+03  0.13029835229E+04  0.00000000000E+00 0. -1.
         22    1    1    2    0    0  0.10045385289E+04 -0.37671066388E+03 -0.15355884109E+04  0.18732432698E+04  0.00000000000E+00 0. -1.
<mgrwt>
<rscale>  0 0.21660814E+04</rscale>
<asrwt>0</asrwt>
<pdfrwt beam="1">  1        2 0.46813501E+00 0.21660814E+04</pdfrwt>
<pdfrwt beam="2">  1       -2 0.59305057E-01 0.21660814E+04</pdfrwt>
<totfact> 0.39872578E+00</totfact>
</mgrwt>
</event>
<event>
 6    1  0.1001928E-005  0.2991862E+04  0.7818608E-02  0.8246059E-01
         -1   -1    0    0    0  501 -0.00000000000E+00  0.00000000000E+00  0.12965436727E+04  0.12965436727E+04  0.00000000000E+00 0.  1.
          1   -1    0    0  501    0  0.00000000000E+00 -0.00000000000E+00 -0.17259808521E+04  0.17259808521E+04  0.00000000000E+00 0. -1.
         23    2    1    2    0    0 -0.14483182419E+04 -0.17564511768E+03 -0.54251246414E+03  0.15592190348E+04  0.91472877845E+02 0.  0.
         11    1    3    3    0    0 -0.10417117979E+04 -0.85022197183E+02 -0.38293976444E+03  0.11131195386E+04  0.00000000000E+00 0. -1.
        -11    1    3    3    0    0 -0.40660644398E+03 -0.90622920500E+02 -0.15957269970E+03  0.44609949618E+03  0.00000000000E+00 0.  1.
         22    1    1    2    0    0  0.14483182419E+04  0.17564511768E+03  0.11307528477E+03  0.14633054901E+04  0.00000000000E+00 0.  1.
<mgrwt>
<rscale>  0 0.29918620E+04</rscale>
<asrwt>0</asrwt>
<pdfrwt beam="1">  1        1 0.26553552E+00 0.29918620E+04</pdfrwt>
<pdfrwt beam="2">  1       -1 0.19946826E+00 0.29918620E+04</pdfrwt>
<totfact> 0.59146915E-01</totfact>
</mgrwt>
</event>
<event>
 6    1  0.1001928E-005  0.3191607E+04  0.7818608E-02  0.8191037E-01
         -1   -1    0    0    0  501 -0.00000000000E+00  0.00000000000E+00  0.15821323048E+04  0.15821323048E+04  0.00000000000E+00 0.  1.
          1   -1    0    0  501    0  0.00000000000E+00 -0.00000000000E+00 -0.16095932446E+04  0.16095932446E+04  0.00000000000E+00 0. -1.
         23    2    1    2    0    0 -0.42660238657E+03 -0.96833003883E+03  0.11790171444E+04  0.15869694844E+04  0.93477577218E+02 0.  0.
         11    1    3    3    0    0 -0.33610490537E+03 -0.84408466514E+03  0.10104722204E+04  0.13588596460E+04  0.00000000000E+00 0.  1.
        -11    1    3    3    0    0 -0.90497481202E+02 -0.12424537368E+03  0.16854492396E+03  0.22810983841E+03  0.00000000000E+00 0. -1.
         22    1    1    2    0    0  0.42660238657E+03  0.96833003883E+03 -0.12064780842E+04  0.16047560649E+04  0.00000000000E+00 0. -1.
<mgrwt>
<rscale>  0 0.31916074E+04</rscale>
<asrwt>0</asrwt>
<pdfrwt beam="1">  1        1 0.24762973E+00 0.31916074E+04</pdfrwt>
<pdfrwt beam="2">  1       -1 0.24340497E+00 0.31916074E+04</pdfrwt>
<totfact> 0.35435901E-01</totfact>
</mgrwt>
</event>
<event>
 6    1  0.1001928E-005  0.6333174E+04  0.7818608E-02  0.7650411E-01
         -2   -1    0    0    0  501 -0.00000000000E+00  0.00000000000E+00  0.41027644415E+04  0.41027644415E+04  0.00000000000E+00 0.  1.
          2   -1    0    0  501    0  0.00000000000E+00 -0.00000000000E+00 -0.24440287329E+04  0.24440287329E+04  0.00000000000E+00 0. -1.
         23    2    1    2    0    0  0.77250505464E+03 -0.22996821113E+04 -0.12733220961E+04  0.27412360742E+04  0.87887321481E+02 0.  0.
         13    1    3    3    0    0  0.47331686636E+03 -0.15339661375E+04 -0.85575090786E+03  0.18191730493E+04  0.00000000000E+00 0.  1.
        -13    1    3    3    0    0  0.29918818829E+03 -0.76571597379E+03 -0.41757118823E+03  0.92206302483E+03  0.00000000000E+00 0. -1.
         22    1    1    2    0    0 -0.77250505464E+03  0.22996821113E+04  0.29320578047E+04  0.38055571002E+04  0.00000000000E+00 0.  1.
<mgrwt>
<rscale>  0 0.63331743E+04</rscale>
<asrwt>0</asrwt>
<pdfrwt beam="1">  1        2 0.37600442E+00 0.63331743E+04</pdfrwt>
<pdfrwt beam="2">  1       -2 0.63119453E+00 0.63331743E+04</pdfrwt>
<totfact> 0.98198934E-04</totfact>
</mgrwt>
</event>
<event>
 6    1  0.1188972E-005  0.3015439E+04  0.7818608E-02  0.8239336E-01
          2   -1    0    0  501    0  0.00000000000E+00  0.00000000000E+00  0.12172979789E+04  0.12172979789E+04  0.00000000000E+00 0. -1.
         -2   -1    0    0    0  501 -0.00000000000E+00 -0.00000000000E+00 -0.18674295851E+04  0.18674295851E+04  0.00000000000E+00 0.  1.
         23    2    1    2    0    0 -0.70675149190E+03  0.95363047644E+03  0.62344510541E+03  0.13437777091E+04  0.90255056059E+02 0.  0.
         13    1    3    3    0    0 -0.36832297441E+03  0.56423550039E+03  0.37554121646E+03  0.77139789904E+03  0.00000000000E+00 0.  1.
        -13    1    3    3    0    0 -0.33842851749E+03  0.38939497605E+03  0.24790388896E+03  0.57237981008E+03  0.00000000000E+00 0. -1.
         22    1    1    2    0    0  0.70675149190E+03 -0.95363047644E+03 -0.12735767116E+04  0.17409498549E+04  0.00000000000E+00 0.  1.
<mgrwt>
<rscale>  0 0.30154391E+04</rscale>
<asrwt>0</asrwt>
<pdfrwt beam="1">  1        2 0.18727661E+00 0.30154391E+04</pdfrwt>
<pdfrwt beam="2">  1       -2 0.28729686E+00 0.30154391E+04</pdfrwt>
<totfact> 0.60097233E-01</totfact>
</mgrwt>
</event>
<event>
 6    1  0.1001928E-005  0.3831168E+04  0.7818608E-02  0.8039499E-01
         -2   -1    0    0    0  501 -0.00000000000E+00  0.00000000000E+00  0.12425002931E+04  0.12425002931E+04  0.00000000000E+00 0.  1.
          2   -1    0    0  501    0  0.00000000000E+00 -0.00000000000E+00 -0.29532882403E+04  0.29532882403E+04  0.00000000000E+00 0. -1.
         23    2    1    2    0    0 -0.24120594223E+03  0.10115279896E+04  0.90459264128E+03  0.13812575239E+04  0.90638404647E+02 0.  0.
         13    1    3    3    0    0 -0.19543939699E+03  0.66587164892E+03  0.63295307862E+03  0.93926099167E+03  0.00000000000E+00 0. -1.
        -13    1    3    3    0    0 -0.45766545237E+02  0.34565634069E+03  0.27163956266E+03  0.44199653225E+03  0.00000000000E+00 0.  1.
         22    1    1    2    0    0  0.24120594223E+03 -0.10115279896E+04 -0.26153805886E+04  0.28145310095E+04  0.00000000000E+00 0. -1.
<mgrwt>
<rscale>  0 0.38311677E+04</rscale>
<asrwt>0</asrwt>
<pdfrwt beam="1">  1        2 0.45435204E+00 0.38311677E+04</pdfrwt>
<pdfrwt beam="2">  1       -2 0.19115389E+00 0.38311677E+04</pdfrwt>
<totfact> 0.22663777E-01</totfact>
</mgrwt>
</event>
<event>
 6    1  0.1001928E-005  0.2127762E+04  0.7818608E-02  0.8549112E-01
         -2   -1    0    0    0  501 -0.00000000000E+00  0.00000000000E+00  0.14077804272E+04  0.14077804272E+04  0.00000000000E+00 0.  1.
          2   -1    0    0  501    0  0.00000000000E+00 -0.00000000000E+00 -0.80399111555E+03  0.80399111555E+03  0.00000000000E+00 0. -1.
         23    2    1    2    0    0 -0.87496826246E+03 -0.58183531510E+03  0.14242551066E+03  0.10641834847E+04  0.89998159709E+02 0.  0.
         13    1    3    3    0    0 -0.42846301058E+03 -0.26470827711E+03  0.11031888330E+03  0.51557858704E+03  0.00000000000E+00 0.  1.
        -13    1    3    3    0    0 -0.44650525188E+03 -0.31712703799E+03  0.32106627363E+02  0.54860489763E+03  0.00000000000E+00 0. -1.
         22    1    1    2    0    0  0.87496826246E+03  0.58183531510E+03  0.46136380102E+03  0.11475880581E+04  0.00000000000E+00 0. -1.
<mgrwt>
<rscale>  0 0.21277622E+04</rscale>
<asrwt>0</asrwt>
<pdfrwt beam="1">  1        2 0.12369094E+00 0.21277622E+04</pdfrwt>
<pdfrwt beam="2">  1       -2 0.21658160E+00 0.21277622E+04</pdfrwt>
<totfact> 0.32677500E+00</totfact>
</mgrwt>
</event>
<event>
 6    1  0.1001928E-005  0.2911680E+04  0.7818608E-02  0.8269411E-01
         -2   -1    0    0    0  501 -0.00000000000E+00  0.00000000000E+00  0.83559083313E+03  0.83559083313E+03  0.00000000000E+00 0.  1.
          2   -1    0    0  501    0  0.00000000000E+00 -0.00000000000E+00 -0.25364925736E+04  0.25364925736E+04  0.00000000000E+00 0. -1.
         23    2    1    2    0    0  0.80095962496E+03 -0.12005378897E+04 -0.10598558804E+04  0.17929167467E+04  0.91806469563E+02 0.  0.
         11    1    3    3    0    0  0.48005059097E+03 -0.65033683098E+03 -0.56225822946E+03  0.98464251392E+03  0.00000000000E+00 0.  1.
        -11    1    3    3    0    0  0.32090903399E+03 -0.55020105873E+03 -0.49759765090E+03  0.80827423274E+03  0.00000000000E+00 0. -1.
         22    1    1    2    0    0 -0.80095962496E+03  0.12005378897E+04 -0.64104586008E+03  0.15791666600E+04  0.00000000000E+00 0. -1.
<mgrwt>
<rscale>  0 0.29116799E+04</rscale>
<asrwt>0</asrwt>
<pdfrwt beam="1">  1        2 0.39022962E+00 0.29116799E+04</pdfrwt>
<pdfrwt beam="2">  1       -2 0.12855244E+00 0.29116799E+04</pdfrwt>
<totfact> 0.12767946E+00</totfact>
</mgrwt>
</event>
<event>
 6    1  0.1001928E-005  0.2334882E+04  0.7818608E-02  0.8464293E-01
         -2   -1    0    0    0  501 -0.00000000000E+00  0.00000000000E+00  0.13309370711E+04  0.13309370711E+04  0.00000000000E+00 0.  1.
          2   -1    0    0  501    0  0.00000000000E+00 -0.00000000000E+00 -0.10240294659E+04  0.10240294659E+04  0.00000000000E+00 0. -1.
         23    2    1    2    0    0 -0.37831354210E+02 -0.82061690185E+03  0.98773018986E+03  0.12880257220E+04  0.92498765967E+02 0.  0.
         11    1    3    3    0    0 -0.65295998507E+02 -0.50841157552E+03  0.58738726314E+03  0.77959585328E+03  0.00000000000E+00 0. -1.
        -11    1    3    3    0    0  0.27464644297E+02 -0.31220532632E+03  0.40034292672E+03  0.50842986876E+03  0.00000000000E+00 0.  1.
         22    1    1    2    0    0  0.37831354210E+02  0.82061690185E+03 -0.68082258460E+03  0.10669408150E+04  0.00000000000E+00 0. -1.
<mgrwt>
<rscale>  0 0.23348822E+04</rscale>
<asrwt>0</asrwt>
<pdfrwt beam="1">  1        2 0.15754299E+00 0.23348822E+04</pdfrwt>
<pdfrwt beam="2">  1       -2 0.20475955E+00 0.23348822E+04</pdfrwt>
<totfact> 0.27205393E+00</totfact>
</mgrwt>
</event>
<event>
 6    1  0.1001928E-005  0.5362938E+04  0.7818608E-02  0.7774836E-01
         -2   -1    0    0    0  501 -0.00000000000E+00  0.00000000000E+00  0.15022329530E+04  0.15022329530E+04  0.00000000000E+00 0.  1.
          2   -1    0    0  501    0  0.00000000000E+00 -0.00000000000E+00 -0.47863913932E+04  0.47863913932E+04  0.00000000000E+00 0. -1.
         23    2    1    2    0    0 -0.66226609504E+02 -0.26641682075E+04 -0.19822960504E+04  0.33226466181E+04  0.91130213985E+02 0.  0.
         13    1    3    3    0    0 -0.48178603765E+02 -0.25409277903E+04 -0.19042776189E+04  0.31756744895E+04  0.00000000000E+00 0. -1.
        -13    1    3    3    0    0 -0.18048005740E+02 -0.12324041717E+03 -0.78018431472E+02  0.14697212860E+03  0.00000000000E+00 0.  1.
         22    1    1    2    0    0  0.66226609504E+02  0.26641682075E+04 -0.13018623898E+04  0.29659777281E+04  0.00000000000E+00 0. -1.
<mgrwt>
<rscale>  0 0.53629376E+04</rscale>
<asrwt>0</asrwt>
<pdfrwt beam="1">  1        2 0.73636792E+00 0.53629376E+04</pdfrwt>
<pdfrwt beam="2">  1       -2 0.23111276E+00 0.53629376E+04</pdfrwt>
<totfact> 0.36160517E-03</totfact>
</mgrwt>
</event>
<event>
 6    1  0.1001928E-005  0.9761567E+03  0.7818608E-02  0.9335089E-01
          1   -1    0    0  501    0  0.00000000000E+00  0.00000000000E+00  0.16438634236E+04  0.16438634236E+04  0.00000000000E+00 0. -1.
         -1   -1    0    0    0  501 -0.00000000000E+00 -0.00000000000E+00 -0.14491501300E+03  0.14491501300E+03  0.00000000000E+00 0.  1.
         23    2    1    2    0    0  0.42085802043E+03 -0.21347729378E+03  0.95130735939E+03  0.10658643689E+04  0.91581289151E+02 0.  0.
         11    1    3    3    0    0  0.35809833683E+03 -0.18434298474E+03  0.72679745535E+03  0.83093399014E+03  0.00000000000E+00 0.  1.
        -11    1    3    3    0    0  0.62759683595E+02 -0.29134309039E+02  0.22450990404E+03  0.23493037875E+03  0.00000000000E+00 0. -1.
         22    1    1    2    0    0 -0.42085802043E+03  0.21347729378E+03  0.54764105118E+03  0.72291406769E+03  0.00000000000E+00 0.  1.
<mgrwt>
<rscale>  0 0.97615673E+03</rscale>
<asrwt>0</asrwt>
<pdfrwt beam="1">  1        1 0.25290205E+00 0.97615673E+03</pdfrwt>
<pdfrwt beam="2">  1       -1 0.22294618E-01 0.97615673E+03</pdfrwt>
<totfact> 0.89139411E+01</totfact>
</mgrwt>
</event>
<event>
 6    1  0.1001928E-005  0.1252203E+04  0.7818608E-02  0.9068352E-01
          1   -1    0    0  501    0  0.00000000000E+00  0.00000000000E+00  0.10895895138E+04  0.10895895138E+04  0.00000000000E+00 0. -1.
         -1   -1    0    0    0  501 -0.00000000000E+00 -0.00000000000E+00 -0.35977133847E+03  0.35977133847E+03  0.00000000000E+00 0.  1.
         23    2    1    2    0    0 -0.20604996415E+03 -0.19694090113E+03 -0.27371159296E+03  0.40613781662E+03  0.93742112738E+02 0.  0.
         11    1    3    3    0    0 -0.56513066718E+02 -0.47110749010E+02 -0.13287145829E+03  0.15188144656E+03  0.00000000000E+00 0. -1.
        -11    1    3    3    0    0 -0.14953689744E+03 -0.14983015212E+03 -0.14084013467E+03  0.25425637005E+03  0.00000000000E+00 0.  1.
         22    1    1    2    0    0  0.20604996415E+03  0.19694090113E+03  0.10035297682E+04  0.10432230356E+04  0.00000000000E+00 0. -1.
<mgrwt>
<rscale>  0 0.12522030E+04</rscale>
<asrwt>0</asrwt>
<pdfrwt beam="1">  1        1 0.16762915E+00 0.12522030E+04</pdfrwt>
<pdfrwt beam="2">  1       -1 0.55349437E-01 0.12522030E+04</pdfrwt>
<totfact> 0.42004829E+01</totfact>
</mgrwt>
</event>
<event>
 6    1  0.1001928E-005  0.4707273E+04  0.7818608E-02  0.7875321E-01
         -2   -1    0    0    0  501 -0.00000000000E+00  0.00000000000E+00  0.14618285729E+04  0.14618285729E+04  0.00000000000E+00 0.  1.
          2   -1    0    0  501    0  0.00000000000E+00 -0.00000000000E+00 -0.37895043956E+04  0.37895043956E+04  0.00000000000E+00 0. -1.
         23    2    1    2    0    0  0.20328020608E+04  0.11823684109E+04 -0.10848947515E+04  0.25914863435E+04  0.92334011726E+02 0.  0.
         11    1    3    3    0    0  0.32314577935E+03  0.16619850595E+03 -0.19835674513E+03  0.41399340143E+03  0.00000000000E+00 0. -1.
        -11    1    3    3    0    0  0.17096562814E+04  0.10161699049E+04 -0.88653800633E+03  0.21774929421E+04  0.00000000000E+00 0.  1.
         22    1    1    2    0    0 -0.20328020608E+04 -0.11823684109E+04 -0.12427810713E+04  0.26598466250E+04  0.00000000000E+00 0.  1.
<mgrwt>
<rscale>  0 0.47072734E+04</rscale>
<asrwt>0</asrwt>
<pdfrwt beam="1">  1        2 0.58300067E+00 0.47072734E+04</pdfrwt>
<pdfrwt beam="2">  1       -2 0.22489671E+00 0.47072734E+04</pdfrwt>
<totfact> 0.34196548E-02</totfact>
</mgrwt>
</event>
<event>
 6    1  0.1001928E-005  0.2749901E+03  0.7818608E-02  0.1098457E+00
         -1   -1    0    0    0  501 -0.00000000000E+00  0.00000000000E+00  0.12432140116E+02  0.12432140116E+02  0.00000000000E+00 0.  1.
          1   -1    0    0  501    0  0.00000000000E+00 -0.00000000000E+00 -0.15206460938E+04  0.15206460938E+04  0.00000000000E+00 0. -1.
         23    2    1    2    0    0 -0.29300550737E+02  0.67686716927E+02 -0.13808600863E+04  0.13859081913E+04  0.92341338001E+02 0.  0.
         13    1    3    3    0    0  0.85178367376E+00  0.21637776232E+02 -0.10695740985E+04  0.10697932843E+04  0.00000000000E+00 0.  1.
        -13    1    3    3    0    0 -0.30152334411E+02  0.46048940696E+02 -0.31128598786E+03  0.31611490703E+03  0.00000000000E+00 0. -1.
         22    1    1    2    0    0  0.29300550737E+02 -0.67686716927E+02 -0.12735386738E+03  0.14717004267E+03  0.00000000000E+00 0.  1.
<mgrwt>
<rscale>  0 0.27499007E+03</rscale>
<asrwt>0</asrwt>
<pdfrwt beam="1">  1        1 0.23394548E+00 0.27499007E+03</pdfrwt>
<pdfrwt beam="2">  1       -1 0.19126375E-02 0.27499007E+03</pdfrwt>
<totfact> 0.50761326E+03</totfact>
</mgrwt>
</event>
<event>
 6    1  0.1001928E-005  0.2441506E+04  0.7818608E-02  0.8424126E-01
          2   -1    0    0  501    0  0.00000000000E+00  0.00000000000E+00  0.18144387294E+04  0.18144387294E+04  0.00000000000E+00 0. -1.
         -2   -1    0    0    0  501 -0.00000000000E+00 -0.00000000000E+00 -0.82132145418E+03  0.82132145418E+03  0.00000000000E+00 0.  1.
         23    2    1    2    0    0  0.83561432696E+03  0.80396628966E+03  0.90325339425E+03  0.14727087593E+04  0.91604024211E+02 0.  0.
         13    1    3    3    0    0  0.19366975791E+03  0.14650692643E+03  0.15943551780E+03  0.29050290697E+03  0.00000000000E+00 0. -1.
        -13    1    3    3    0    0  0.64194456905E+03  0.65745936323E+03  0.74381787645E+03  0.11822058524E+04  0.00000000000E+00 0.  1.
         22    1    1    2    0    0 -0.83561432696E+03 -0.80396628966E+03  0.89863880972E+02  0.11630514242E+04  0.00000000000E+00 0. -1.
<mgrwt>
<rscale>  0 0.24415056E+04</rscale>
<asrwt>0</asrwt>
<pdfrwt beam="1">  1        2 0.27914442E+00 0.24415056E+04</pdfrwt>
<pdfrwt beam="2">  1       -2 0.12635715E+00 0.24415056E+04</pdfrwt>
<totfact> 0.35427726E+00</totfact>
</mgrwt>
</event>
<event>
 6    1  0.1001928E-005  0.1999026E+04  0.7818608E-02  0.8607076E-01
          2   -1    0    0  501    0  0.00000000000E+00  0.00000000000E+00  0.13642290925E+04  0.13642290925E+04  0.00000000000E+00 0. -1.
         -2   -1    0    0    0  501 -0.00000000000E+00 -0.00000000000E+00 -0.73230064535E+03  0.73230064535E+03  0.00000000000E+00 0.  1.
         23    2    1    2    0    0 -0.16364756493E+03  0.29970282781E+03 -0.66644516822E+03  0.75400362802E+03  0.88147593880E+02 0.  0.
         11    1    3    3    0    0 -0.53988736269E+01  0.88840902001E+02 -0.16464979678E+03  0.18716679536E+03  0.00000000000E+00 0. -1.
        -11    1    3    3    0    0 -0.15824869130E+03  0.21086192581E+03 -0.50179537144E+03  0.56683683266E+03  0.00000000000E+00 0.  1.
         22    1    1    2    0    0  0.16364756493E+03 -0.29970282781E+03  0.12983736154E+04  0.13425261098E+04  0.00000000000E+00 0. -1.
<mgrwt>
<rscale>  0 0.19990256E+04</rscale>
<asrwt>0</asrwt>
<pdfrwt beam="1">  1        2 0.20988140E+00 0.19990256E+04</pdfrwt>
<pdfrwt beam="2">  1       -2 0.11266164E+00 0.19990256E+04</pdfrwt>
<totfact> 0.87409123E+00</totfact>
</mgrwt>
</event>
<event>
 6    1  0.1001928E-005  0.2074465E+04  0.7818608E-02  0.8572576E-01
          1   -1    0    0  501    0  0.00000000000E+00  0.00000000000E+00  0.15020257457E+04  0.15020257457E+04  0.00000000000E+00 0. -1.
         -1   -1    0    0    0  501 -0.00000000000E+00 -0.00000000000E+00 -0.71626701376E+03  0.71626701376E+03  0.00000000000E+00 0.  1.
         23    2    1    2    0    0  0.94551906907E+03  0.42033738782E+03  0.42863266139E+03  0.11236563541E+04  0.90486541357E+02 0.  0.
         13    1    3    3    0    0  0.12723523956E+03  0.89750797899E+02  0.76170937492E+02  0.17333788861E+03  0.00000000000E+00 0. -1.
        -13    1    3    3    0    0  0.81828382951E+03  0.33058658992E+03  0.35246172389E+03  0.95031846551E+03  0.00000000000E+00 0.  1.
         22    1    1    2    0    0 -0.94551906907E+03 -0.42033738782E+03  0.35712607053E+03  0.10946364053E+04  0.00000000000E+00 0. -1.
<mgrwt>
<rscale>  0 0.20744652E+04</rscale>
<asrwt>0</asrwt>
<pdfrwt beam="1">  1        1 0.23108088E+00 0.20744652E+04</pdfrwt>
<pdfrwt beam="2">  1       -1 0.11019493E+00 0.20744652E+04</pdfrwt>
<totfact> 0.45674470E+00</totfact>
</mgrwt>
</event>
<event>
 6    1  0.1001928E-005  0.2408976E+04  0.7818608E-02  0.8436151E-01
          3   -1    0    0  501    0  0.00000000000E+00  0.00000000000E+00  0.13346286951E+04  0.13346286951E+04  0.00000000000E+00 0. -1.
         -3   -1    0    0    0  501 -0.00000000000E+00 -0.00000000000E+00 -0.10870377068E+04  0.10870377068E+04  0.00000000000E+00 0.  1.
         23    2    1    2    0    0  0.64176809228E+03  0.92157792262E+03  0.55698573214E+03  0.12568070716E+04  0.90325841815E+02 0.  0.
         13    1    3    3    0    0  0.19046693692E+03  0.21307009368E+03  0.16247927323E+03  0.32874919485E+03  0.00000000000E+00 0. -1.
        -13    1    3    3    0    0  0.45130115535E+03  0.70850782894E+03  0.39450645891E+03  0.92805787676E+03  0.00000000000E+00 0.  1.
         22    1    1    2    0    0 -0.64176809228E+03 -0.92157792262E+03 -0.30939474381E+03  0.11648593302E+04  0.00000000000E+00 0. -1.
<mgrwt>
<rscale>  0 0.24089763E+04</rscale>
<asrwt>0</asrwt>
<pdfrwt beam="1">  1        3 0.20532749E+00 0.24089763E+04</pdfrwt>
<pdfrwt beam="2">  1       -3 0.16723657E+00 0.24089763E+04</pdfrwt>
<totfact> 0.77223668E-02</totfact>
</mgrwt>
</event>
<event>
 6    1  0.1001928E-005  0.1152131E+04  0.7818608E-02  0.9155820E-01
         -2   -1    0    0    0  501 -0.00000000000E+00  0.00000000000E+00  0.85464647196E+03  0.85464647196E+03  0.00000000000E+00 0.  1.
          2   -1    0    0  501    0  0.00000000000E+00 -0.00000000000E+00 -0.38829113565E+03  0.38829113565E+03  0.00000000000E+00 0. -1.
         23    2    1    2    0    0  0.23639602909E+03 -0.40845432448E+03 -0.11485845883E+03  0.49425376685E+03  0.91522143370E+02 0.  0.
         13    1    3    3    0    0  0.99636929544E+02 -0.21765118635E+03 -0.17176142161E+02  0.23998870079E+03  0.00000000000E+00 0.  1.
        -13    1    3    3    0    0  0.13675909955E+03 -0.19080313814E+03 -0.97682316670E+02  0.25426506607E+03  0.00000000000E+00 0. -1.
         22    1    1    2    0    0 -0.23639602909E+03  0.40845432448E+03  0.58121379514E+03  0.74868384076E+03  0.00000000000E+00 0.  1.
<mgrwt>
<rscale>  0 0.11521313E+04</rscale>
<asrwt>0</asrwt>
<pdfrwt beam="1">  1        2 0.59737098E-01 0.11521313E+04</pdfrwt>
<pdfrwt beam="2">  1       -2 0.13148407E+00 0.11521313E+04</pdfrwt>
<totfact> 0.34318664E+01</totfact>
</mgrwt>
</event>
<event>
 6    1  0.1001928E-005  0.2722783E+04  0.7818608E-02  0.8327650E-01
         -1   -1    0    0    0  501 -0.00000000000E+00  0.00000000000E+00  0.31585782789E+04  0.31585782789E+04  0.00000000000E+00 0.  1.
          1   -1    0    0  501    0  0.00000000000E+00 -0.00000000000E+00 -0.58677871286E+03  0.58677871286E+03  0.00000000000E+00 0. -1.
         23    2    1    2    0    0  0.22796454451E+03 -0.75683420828E+03 -0.23490067018E+03  0.82948112534E+03  0.89970884595E+02 0.  0.
         11    1    3    3    0    0  0.40968210003E+02 -0.28122567151E+03 -0.73381084945E+02  0.29351500162E+03  0.00000000000E+00 0. -1.
        -11    1    3    3    0    0  0.18699633451E+03 -0.47560853677E+03 -0.16151958523E+03  0.53596612373E+03  0.00000000000E+00 0.  1.
         22    1    1    2    0    0 -0.22796454451E+03  0.75683420828E+03  0.28067002362E+04  0.29158758664E+04  0.00000000000E+00 0.  1.
<mgrwt>
<rscale>  0 0.27227828E+04</rscale>
<asrwt>0</asrwt>
<pdfrwt beam="1">  1        1 0.90273650E-01 0.27227828E+04</pdfrwt>
<pdfrwt beam="2">  1       -1 0.48593511E+00 0.27227828E+04</pdfrwt>
<totfact> 0.56664287E-02</totfact>
</mgrwt>
</event>
<event>
 6    1  0.1001928E-005  0.2376770E+04  0.7818608E-02  0.8448252E-01
         -1   -1    0    0    0  501 -0.00000000000E+00  0.00000000000E+00  0.68991986819E+03  0.68991986819E+03  0.00000000000E+00 0.  1.
          1   -1    0    0  501    0  0.00000000000E+00 -0.00000000000E+00 -0.20469903972E+04  0.20469903972E+04  0.00000000000E+00 0. -1.
         23    2    1    2    0    0 -0.84333722845E+03 -0.73010352448E+03 -0.11455803477E+04  0.16015702572E+04  0.91673979235E+02 0.  0.
         11    1    3    3    0    0 -0.32300286111E+03 -0.32627646710E+03 -0.43057439068E+03  0.62942949341E+03  0.00000000000E+00 0. -1.
        -11    1    3    3    0    0 -0.52033436734E+03 -0.40382705738E+03 -0.71500595699E+03  0.97214076380E+03  0.00000000000E+00 0.  1.
         22    1    1    2    0    0  0.84333722845E+03  0.73010352448E+03 -0.21149018134E+03  0.11353400082E+04  0.00000000000E+00 0.  1.
<mgrwt>
<rscale>  0 0.23767704E+04</rscale>
<asrwt>0</asrwt>
<pdfrwt beam="1">  1        1 0.31492160E+00 0.23767704E+04</pdfrwt>
<pdfrwt beam="2">  1       -1 0.10614152E+00 0.23767704E+04</pdfrwt>
<totfact> 0.20634449E+00</totfact>
</mgrwt>
</event>
<event>
 6    1  0.1001928E-005  0.2664360E+04  0.7818608E-02  0.8346662E-01
         -1   -1    0    0    0  501 -0.00000000000E+00  0.00000000000E+00  0.61516027825E+03  0.61516027825E+03  0.00000000000E+00 0.  1.
          1   -1    0    0  501    0  0.00000000000E+00 -0.00000000000E+00 -0.28849450350E+04  0.28849450350E+04  0.00000000000E+00 0. -1.
         23    2    1    2    0    0 -0.53051151877E+03  0.77966694843E+03 -0.23694808672E+04  0.25518108777E+04  0.89309314479E+02 0.  0.
         11    1    3    3    0    0 -0.22613120564E+03  0.40160031790E+03 -0.10954853950E+04  0.11884891199E+04  0.00000000000E+00 0. -1.
        -11    1    3    3    0    0 -0.30438031313E+03  0.37806663053E+03 -0.12739954722E+04  0.13633217578E+04  0.00000000000E+00 0.  1.
         22    1    1    2    0    0  0.53051151877E+03 -0.77966694843E+03  0.99696110432E+02  0.94829443553E+03  0.00000000000E+00 0.  1.
<mgrwt>
<rscale>  0 0.26643600E+04</rscale>
<asrwt>0</asrwt>
<pdfrwt beam="1">  1        1 0.44383771E+00 0.26643600E+04</pdfrwt>
<pdfrwt beam="2">  1       -1 0.94640040E-01 0.26643600E+04</pdfrwt>
<totfact> 0.68483301E-01</totfact>
</mgrwt>
</event>
<event>
 6    1  0.1001928E-005  0.2630833E+04  0.7818608E-02  0.8357803E-01
          2   -1    0    0  501    0  0.00000000000E+00  0.00000000000E+00  0.24776101301E+04  0.24776101301E+04  0.00000000000E+00 0. -1.
         -2   -1    0    0    0  501 -0.00000000000E+00 -0.00000000000E+00 -0.69838267523E+03  0.69838267523E+03  0.00000000000E+00 0.  1.
         23    2    1    2    0    0 -0.53836145118E+03 -0.81138577863E+03 -0.17438361639E+03  0.99315608408E+03  0.88144357739E+02 0.  0.
         13    1    3    3    0    0 -0.42982423974E+03 -0.59104471788E+03 -0.10822684786E+03  0.73877993083E+03  0.00000000000E+00 0. -1.
        -13    1    3    3    0    0 -0.10853721144E+03 -0.22034106075E+03 -0.66156768524E+02  0.25437615324E+03  0.00000000000E+00 0.  1.
         22    1    1    2    0    0  0.53836145118E+03  0.81138577863E+03  0.19536110712E+04  0.21828367212E+04  0.00000000000E+00 0. -1.
<mgrwt>
<rscale>  0 0.26308326E+04</rscale>
<asrwt>0</asrwt>
<pdfrwt beam="1">  1        2 0.38117078E+00 0.26308326E+04</pdfrwt>
<pdfrwt beam="2">  1       -2 0.10744349E+00 0.26308326E+04</pdfrwt>
<totfact> 0.22003579E+00</totfact>
</mgrwt>
</event>
<event>
 6    1  0.1001928E-005  0.4169116E+04  0.7818608E-02  0.7971273E-01
         -1   -1    0    0    0  501 -0.00000000000E+00  0.00000000000E+00  0.14094596288E+04  0.14094596288E+04  0.00000000000E+00 0.  1.
          1   -1    0    0  501    0  0.00000000000E+00 -0.00000000000E+00 -0.30830130866E+04  0.30830130866E+04  0.00000000000E+00 0. -1.
         23    2    1    2    0    0  0.93771246213E+03 -0.18366086887E+04 -0.51320568191E+03  0.21262852550E+04  0.72613887550E+02 0.  0.
         13    1    3    3    0    0  0.37281678199E+03 -0.79703059161E+03 -0.23861975904E+03  0.91169595058E+03  0.00000000000E+00 0.  1.
        -13    1    3    3    0    0  0.56489568014E+03 -0.10395780971E+04 -0.27458592287E+03  0.12145893044E+04  0.00000000000E+00 0. -1.
         22    1    1    2    0    0 -0.93771246213E+03  0.18366086887E+04 -0.11603477758E+04  0.23661874604E+04  0.00000000000E+00 0.  1.
<mgrwt>
<rscale>  0 0.41691162E+04</rscale>
<asrwt>0</asrwt>
<pdfrwt beam="1">  1        1 0.47430970E+00 0.41691162E+04</pdfrwt>
<pdfrwt beam="2">  1       -1 0.21683994E+00 0.41691162E+04</pdfrwt>
<totfact> 0.46314157E-02</totfact>
</mgrwt>
</event>
<event>
 6    1  0.1001928E-005  0.4694289E+04  0.7818608E-02  0.7877478E-01
         -1   -1    0    0    0  501 -0.00000000000E+00  0.00000000000E+00  0.19043323339E+04  0.19043323339E+04  0.00000000000E+00 0.  1.
          1   -1    0    0  501    0  0.00000000000E+00 -0.00000000000E+00 -0.28929229097E+04  0.28929229097E+04  0.00000000000E+00 0. -1.
         23    2    1    2    0    0 -0.21546211887E+04 -0.65119024390E+03 -0.11712028324E+04  0.25389841269E+04  0.91011656570E+02 0.  0.
         13    1    3    3    0    0 -0.71600624496E+03 -0.25957102843E+03 -0.38241862597E+03  0.85222418829E+03  0.00000000000E+00 0.  1.
        -13    1    3    3    0    0 -0.14386149437E+04 -0.39161921547E+03 -0.78878420644E+03  0.16867599386E+04  0.00000000000E+00 0. -1.
         22    1    1    2    0    0  0.21546211887E+04  0.65119024390E+03  0.18261225669E+03  0.22582711167E+04  0.00000000000E+00 0.  1.
<mgrwt>
<rscale>  0 0.46942887E+04</rscale>
<asrwt>0</asrwt>
<pdfrwt beam="1">  1        1 0.44506506E+00 0.46942887E+04</pdfrwt>
<pdfrwt beam="2">  1       -1 0.29297421E+00 0.46942887E+04</pdfrwt>
<totfact> 0.19391560E-02</totfact>
</mgrwt>
</event>
<event>
 6    1  0.1001928E-005  0.4125584E+04  0.7818608E-02  0.7979681E-01
          1   -1    0    0  501    0  0.00000000000E+00  0.00000000000E+00  0.36959590921E+04  0.36959590921E+04  0.00000000000E+00 0. -1.
         -1   -1    0    0    0  501 -0.00000000000E+00 -0.00000000000E+00 -0.11512870857E+04  0.11512870857E+04  0.00000000000E+00 0.  1.
         23    2    1    2    0    0 -0.67029537641E+03  0.31784359856E+03 -0.98723563808E+03  0.12382723550E+04  0.91453678367E+02 0.  0.
         11    1    3    3    0    0 -0.36596301914E+03  0.16555393664E+03 -0.45929531946E+03  0.61015508503E+03  0.00000000000E+00 0. -1.
        -11    1    3    3    0    0 -0.30433235727E+03  0.15228966192E+03 -0.52794031862E+03  0.62811726997E+03  0.00000000000E+00 0.  1.
         22    1    1    2    0    0  0.67029537641E+03 -0.31784359856E+03  0.35319076445E+04  0.36089738228E+04  0.00000000000E+00 0. -1.
<mgrwt>
<rscale>  0 0.41255836E+04</rscale>
<asrwt>0</asrwt>
<pdfrwt beam="1">  1        1 0.56860909E+00 0.41255836E+04</pdfrwt>
<pdfrwt beam="2">  1       -1 0.17712109E+00 0.41255836E+04</pdfrwt>
<totfact> 0.29338082E-02</totfact>
</mgrwt>
</event>
<event>
 6    1  0.1001928E-005  0.2221740E+04  0.7818608E-02  0.8509433E-01
         -2   -1    0    0    0  501 -0.00000000000E+00  0.00000000000E+00  0.15764919693E+04  0.15764919693E+04  0.00000000000E+00 0.  1.
          2   -1    0    0  501    0  0.00000000000E+00 -0.00000000000E+00 -0.78277121467E+03  0.78277121467E+03  0.00000000000E+00 0. -1.
         23    2    1    2    0    0  0.10979964453E+04  0.14683825096E+03  0.45238921526E+03  0.12000975852E+04  0.91763533366E+02 0.  0.
         13    1    3    3    0    0  0.36121760455E+03  0.72342044586E+02  0.18959019001E+03  0.41431385374E+03  0.00000000000E+00 0.  1.
        -13    1    3    3    0    0  0.73677884071E+03  0.74496206373E+02  0.26279902525E+03  0.78578373141E+03  0.00000000000E+00 0. -1.
         22    1    1    2    0    0 -0.10979964453E+04 -0.14683825096E+03  0.34133153938E+03  0.11591655988E+04  0.00000000000E+00 0.  1.
<mgrwt>
<rscale>  0 0.22217403E+04</rscale>
<asrwt>0</asrwt>
<pdfrwt beam="1">  1        2 0.12042634E+00 0.22217403E+04</pdfrwt>
<pdfrwt beam="2">  1       -2 0.24253723E+00 0.22217403E+04</pdfrwt>
<totfact> 0.23106926E+00</totfact>
</mgrwt>
</event>
<event>
 6    1  0.1001928E-005  0.3610895E+04  0.7818608E-02  0.8088001E-01
         -1   -1    0    0    0  501 -0.00000000000E+00  0.00000000000E+00  0.21416657503E+04  0.21416657503E+04  0.00000000000E+00 0.  1.
          1   -1    0    0  501    0  0.00000000000E+00 -0.00000000000E+00 -0.15220114971E+04  0.15220114971E+04  0.00000000000E+00 0. -1.
         23    2    1    2    0    0  0.13207735412E+04 -0.68637159288E+03 -0.72460083037E+03  0.16580425746E+04  0.92250231725E+02 0.  0.
         11    1    3    3    0    0  0.10812135517E+04 -0.59556840166E+03 -0.58006310704E+03  0.13638906384E+04  0.00000000000E+00 0.  1.
        -11    1    3    3    0    0  0.23955998948E+03 -0.90803191216E+02 -0.14453772333E+03  0.29415193619E+03  0.00000000000E+00 0. -1.
         22    1    1    2    0    0 -0.13207735412E+04  0.68637159288E+03  0.13442550837E+04  0.20056346728E+04  0.00000000000E+00 0.  1.
<mgrwt>
<rscale>  0 0.36108946E+04</rscale>
<asrwt>0</asrwt>
<pdfrwt beam="1">  1        1 0.23415562E+00 0.36108946E+04</pdfrwt>
<pdfrwt beam="2">  1       -1 0.32948704E+00 0.36108946E+04</pdfrwt>
<totfact> 0.10827526E-01</totfact>
</mgrwt>
</event>
<event>
 6    1  0.1001928E-005  0.1161567E+04  0.7818608E-02  0.9147178E-01
          1   -1    0    0  501    0  0.00000000000E+00  0.00000000000E+00  0.96495186135E+03  0.96495186135E+03  0.00000000000E+00 0. -1.
         -1   -1    0    0    0  501 -0.00000000000E+00 -0.00000000000E+00 -0.34956097412E+03  0.34956097412E+03  0.00000000000E+00 0.  1.
         23    2    1    2    0    0 -0.46177318930E+03 -0.29646637761E+03  0.51160198550E+03  0.75603371541E+03  0.93400191967E+02 0.  0.
         11    1    3    3    0    0 -0.21942542300E+03 -0.86859562034E+02  0.22782266422E+03  0.32801717350E+03  0.00000000000E+00 0. -1.
        -11    1    3    3    0    0 -0.24234776630E+03 -0.20960681558E+03  0.28377932128E+03  0.42801654191E+03  0.00000000000E+00 0.  1.
         22    1    1    2    0    0  0.46177318930E+03  0.29646637761E+03  0.10378890173E+03  0.55847912005E+03  0.00000000000E+00 0.  1.
<mgrwt>
<rscale>  0 0.11615671E+04</rscale>
<asrwt>0</asrwt>
<pdfrwt beam="1">  1        1 0.14845413E+00 0.11615671E+04</pdfrwt>
<pdfrwt beam="2">  1       -1 0.53778612E-01 0.11615671E+04</pdfrwt>
<totfact> 0.55836520E+01</totfact>
</mgrwt>
</event>
<event>
 6    1  0.1001928E-005  0.1190603E+04  0.7818608E-02  0.9121122E-01
         -2   -1    0    0    0  501 -0.00000000000E+00  0.00000000000E+00  0.56447315675E+03  0.56447315675E+03  0.00000000000E+00 0.  1.
          2   -1    0    0  501    0  0.00000000000E+00 -0.00000000000E+00 -0.62781360113E+03  0.62781360113E+03  0.00000000000E+00 0. -1.
         23    2    1    2    0    0 -0.16486508537E+02  0.47966476566E+03 -0.38042952108E+03  0.61705152344E+03  0.75338367990E+02 0.  0.
         11    1    3    3    0    0  0.18456508464E+02  0.14334590710E+03 -0.82653340147E+02  0.16649404321E+03  0.00000000000E+00 0.  1.
        -11    1    3    3    0    0 -0.34943017000E+02  0.33631885856E+03 -0.29777618094E+03  0.45055748023E+03  0.00000000000E+00 0. -1.
         22    1    1    2    0    0  0.16486508537E+02 -0.47966476566E+03  0.31708907670E+03  0.57523523444E+03  0.00000000000E+00 0.  1.
<mgrwt>
<rscale>  0 0.11906031E+04</rscale>
<asrwt>0</asrwt>
<pdfrwt beam="1">  1        2 0.96586707E-01 0.11906031E+04</pdfrwt>
<pdfrwt beam="2">  1       -2 0.86842025E-01 0.11906031E+04</pdfrwt>
<totfact> 0.53186562E+01</totfact>
</mgrwt>
</event>
<event>
 6    1  0.1001928E-005  0.2070815E+04  0.7818608E-02  0.8574210E-01
          1   -1    0    0  501    0  0.00000000000E+00  0.00000000000E+00  0.33828489859E+04  0.33828489859E+04  0.00000000000E+00 0.  1.
         -1   -1    0    0    0  501 -0.00000000000E+00 -0.00000000000E+00 -0.31691289480E+03  0.31691289480E+03  0.00000000000E+00 0. -1.
         23    2    1    2    0    0  0.16335296739E+02 -0.93228467769E+03  0.73926187757E+03  0.11932035913E+04  0.88346615834E+02 0.  0.
         13    1    3    3    0    0  0.39192622195E+02 -0.19165154736E+03  0.15416492561E+03  0.24906465331E+03  0.00000000000E+00 0.  1.
        -13    1    3    3    0    0 -0.22857325455E+02 -0.74063313033E+03  0.58509695196E+03  0.94413893801E+03  0.00000000000E+00 0. -1.
         22    1    1    2    0    0 -0.16335296739E+02  0.93228467769E+03  0.23266742135E+04  0.25065582894E+04  0.00000000000E+00 0. -1.
<mgrwt>
<rscale>  0 0.20708148E+04</rscale>
<asrwt>0</asrwt>
<pdfrwt beam="1">  1        1 0.52043828E+00 0.20708148E+04</pdfrwt>
<pdfrwt beam="2">  1       -1 0.48755832E-01 0.20708148E+04</pdfrwt>
<totfact> 0.12014801E+00</totfact>
</mgrwt>
</event>
<event>
 6    1  0.1421353E-005  0.3822584E+04  0.7818608E-02  0.8041326E-01
         -2   -1    0    0    0  501 -0.00000000000E+00  0.00000000000E+00  0.13317752775E+04  0.13317752775E+04  0.00000000000E+00 0.  1.
          2   -1    0    0  501    0  0.00000000000E+00 -0.00000000000E+00 -0.27429834185E+04  0.27429834185E+04  0.00000000000E+00 0. -1.
         23    2    1    2    0    0  0.15192623397E+04  0.27869550068E+03 -0.19049690728E+04  0.24531455804E+04  0.56452030618E+02 0.  0.
         13    1    3    3    0    0  0.61225877966E+03  0.95654246165E+02 -0.72885735513E+03  0.95668364269E+03  0.00000000000E+00 0. -1.
        -13    1    3    3    0    0  0.90700356003E+03  0.18304125451E+03 -0.11761117176E+04  0.14964619378E+04  0.00000000000E+00 0.  1.
         22    1    1    2    0    0 -0.15192623397E+04 -0.27869550068E+03  0.49376093170E+03  0.16216131156E+04  0.00000000000E+00 0.  1.
<mgrwt>
<rscale>  0 0.38225842E+04</rscale>
<asrwt>0</asrwt>
<pdfrwt beam="1">  1        2 0.42199745E+00 0.38225842E+04</pdfrwt>
<pdfrwt beam="2">  1       -2 0.20488850E+00 0.38225842E+04</pdfrwt>
<totfact> 0.24745513E-01</totfact>
</mgrwt>
</event>
<event>
 6    1  0.1001928E-005  0.1492953E+04  0.7818608E-02  0.8889153E-01
         -2   -1    0    0    0  501 -0.00000000000E+00  0.00000000000E+00  0.57045208388E+03  0.57045208388E+03  0.00000000000E+00 0. -1.
          2   -1    0    0  501    0  0.00000000000E+00 -0.00000000000E+00 -0.97681617715E+03  0.97681617715E+03  0.00000000000E+00 0.  1.
         23    2    1    2    0    0 -0.31749376680E+03 -0.58098425150E+03 -0.55490980348E+03  0.86873246943E+03  0.91794449630E+02 0.  0.
         13    1    3    3    0    0 -0.15175601532E+03 -0.35584987176E+03 -0.28879945176E+03  0.48276717240E+03  0.00000000000E+00 0. -1.
        -13    1    3    3    0    0 -0.16573775149E+03 -0.22513437974E+03 -0.26611035173E+03  0.38596529702E+03  0.00000000000E+00 0.  1.
         22    1    1    2    0    0  0.31749376680E+03  0.58098425150E+03  0.14854571021E+03  0.67853579160E+03  0.00000000000E+00 0. -1.
<mgrwt>
<rscale>  0 0.14929525E+04</rscale>
<asrwt>0</asrwt>
<pdfrwt beam="1">  1        2 0.15027941E+00 0.14929525E+04</pdfrwt>
<pdfrwt beam="2">  1       -2 0.87761860E-01 0.14929525E+04</pdfrwt>
<totfact> 0.28235147E+01</totfact>
</mgrwt>
</event>
<event>
 6    1  0.1001928E-005  0.5454947E+03  0.7818608E-02  0.1002542E+00
         -1   -1    0    0    0  501 -0.00000000000E+00  0.00000000000E+00  0.62772437928E+03  0.62772437928E+03  0.00000000000E+00 0.  1.
          1   -1    0    0  501    0  0.00000000000E+00 -0.00000000000E+00 -0.11850920474E+03  0.11850920474E+03  0.00000000000E+00 0. -1.
         23    2    1    2    0    0  0.23120873637E+03 -0.91025455742E+01  0.43866589487E+03  0.50432960105E+03  0.91543667525E+02 0.  0.
         13    1    3    3    0    0  0.15694253577E+03  0.80942404086E+01  0.36895904453E+03  0.40103273283E+03  0.00000000000E+00 0.  1.
        -13    1    3    3    0    0  0.74266200600E+02 -0.17196785983E+02  0.69706850343E+02  0.10329686822E+03  0.00000000000E+00 0. -1.
         22    1    1    2    0    0 -0.23120873637E+03  0.91025455742E+01  0.70549279670E+02  0.24190398296E+03  0.00000000000E+00 0. -1.
<mgrwt>
<rscale>  0 0.54549470E+03</rscale>
<asrwt>0</asrwt>
<pdfrwt beam="1">  1        1 0.18232186E-01 0.54549470E+03</pdfrwt>
<pdfrwt beam="2">  1       -1 0.96572980E-01 0.54549470E+03</pdfrwt>
<totfact> 0.31144086E+02</totfact>
</mgrwt>
</event>
<event>
 6    1  0.1001928E-005  0.1768227E+04  0.7818608E-02  0.8723381E-01
         -1   -1    0    0    0  501 -0.00000000000E+00  0.00000000000E+00  0.56299449361E+03  0.56299449361E+03  0.00000000000E+00 0.  1.
          1   -1    0    0  501    0  0.00000000000E+00 -0.00000000000E+00 -0.13883913687E+04  0.13883913687E+04  0.00000000000E+00 0. -1.
         23    2    1    2    0    0  0.62830333203E+03 -0.23004975855E+03  0.21972028221E+03  0.71043548421E+03  0.93560709509E+02 0.  0.
         11    1    3    3    0    0  0.46394716922E+03 -0.20568322246E+03  0.14189794481E+03  0.52696071065E+03  0.00000000000E+00 0. -1.
        -11    1    3    3    0    0  0.16435616281E+03 -0.24366536088E+02  0.77822337398E+02  0.18347477356E+03  0.00000000000E+00 0.  1.
         22    1    1    2    0    0 -0.62830333203E+03  0.23004975855E+03 -0.10451171573E+04  0.12409503781E+04  0.00000000000E+00 0. -1.
<mgrwt>
<rscale>  0 0.17682270E+04</rscale>
<asrwt>0</asrwt>
<pdfrwt beam="1">  1        1 0.21359867E+00 0.17682270E+04</pdfrwt>
<pdfrwt beam="2">  1       -1 0.86614538E-01 0.17682270E+04</pdfrwt>
<totfact> 0.97340279E+00</totfact>
</mgrwt>
</event>
<event>
 6    1  0.1001928E-005  0.2238790E+04  0.7818608E-02  0.8502454E-01
         -1   -1    0    0    0  501 -0.00000000000E+00  0.00000000000E+00  0.19564551553E+04  0.19564551553E+04  0.00000000000E+00 0.  1.
          1   -1    0    0  501    0  0.00000000000E+00 -0.00000000000E+00 -0.64046687522E+03  0.64046687522E+03  0.00000000000E+00 0. -1.
         23    2    1    2    0    0  0.16204180608E+03 -0.14599146331E+03  0.19304457989E+04  0.19449027849E+04  0.91950017422E+02 0.  0.
         11    1    3    3    0    0  0.11170024649E+03 -0.14788340081E+03  0.14401311987E+04  0.14520069954E+04  0.00000000000E+00 0.  1.
        -11    1    3    3    0    0  0.50341559594E+02  0.18919375000E+01  0.49031460024E+03  0.49289578946E+03  0.00000000000E+00 0. -1.
         22    1    1    2    0    0 -0.16204180608E+03  0.14599146331E+03 -0.61445751883E+03  0.65201924567E+03  0.00000000000E+00 0. -1.
<mgrwt>
<rscale>  0 0.22387896E+04</rscale>
<asrwt>0</asrwt>
<pdfrwt beam="1">  1        1 0.98533366E-01 0.22387896E+04</pdfrwt>
<pdfrwt beam="2">  1       -1 0.30099310E+00 0.22387896E+04</pdfrwt>
<totfact> 0.92072757E-01</totfact>
</mgrwt>
</event>
<event>
 6    1  0.1001928E-005  0.4068390E+04  0.7818608E-02  0.7990890E-01
          2   -1    0    0  501    0  0.00000000000E+00  0.00000000000E+00  0.23174749649E+04  0.23174749649E+04  0.00000000000E+00 0. -1.
         -2   -1    0    0    0  501 -0.00000000000E+00 -0.00000000000E+00 -0.17855425056E+04  0.17855425056E+04  0.00000000000E+00 0.  1.
         23    2    1    2    0    0 -0.19322579288E+04  0.42198035630E+02  0.90200609124E+03  0.21351872261E+04  0.10004061376E+03 0.  0.
         13    1    3    3    0    0 -0.11663862649E+04 -0.36350460938E+01  0.50052298878E+03  0.12692491460E+04  0.00000000000E+00 0.  1.
        -13    1    3    3    0    0 -0.76587166390E+03  0.45833081724E+02  0.40148310246E+03  0.86593808007E+03  0.00000000000E+00 0. -1.
         22    1    1    2    0    0  0.19322579288E+04 -0.42198035630E+02 -0.37007363194E+03  0.19678302443E+04  0.00000000000E+00 0.  1.
<mgrwt>
<rscale>  0 0.40683904E+04</rscale>
<asrwt>0</asrwt>
<pdfrwt beam="1">  1        2 0.35653461E+00 0.40683904E+04</pdfrwt>
<pdfrwt beam="2">  1       -2 0.27469885E+00 0.40683904E+04</pdfrwt>
<totfact> 0.15772952E-01</totfact>
</mgrwt>
</event>
<event>
 6    1  0.1001928E-005  0.3111459E+04  0.7818608E-02  0.8212600E-01
         -1   -1    0    0    0  501 -0.00000000000E+00  0.00000000000E+00  0.15010520619E+04  0.15010520619E+04  0.00000000000E+00 0.  1.
          1   -1    0    0  501    0  0.00000000000E+00 -0.00000000000E+00 -0.16123989157E+04  0.16123989157E+04  0.00000000000E+00 0. -1.
         23    2    1    2    0    0 -0.53620345566E+03  0.11792373843E+04 -0.91537962938E+03  0.15887924393E+04  0.90700576966E+02 0.  0.
         13    1    3    3    0    0 -0.34270333846E+03  0.75957519014E+03 -0.64128113274E+03  0.10514949067E+04  0.00000000000E+00 0. -1.
        -13    1    3    3    0    0 -0.19350011721E+03  0.41966219421E+03 -0.27409849663E+03  0.53729753253E+03  0.00000000000E+00 0.  1.
         22    1    1    2    0    0  0.53620345566E+03 -0.11792373843E+04  0.80403277559E+03  0.15246585384E+04  0.00000000000E+00 0.  1.
<mgrwt>
<rscale>  0 0.31114593E+04</rscale>
<asrwt>0</asrwt>
<pdfrwt beam="1">  1        1 0.24806137E+00 0.31114593E+04</pdfrwt>
<pdfrwt beam="2">  1       -1 0.23093109E+00 0.31114593E+04</pdfrwt>
<totfact> 0.42926923E-01</totfact>
</mgrwt>
</event>
<event>
 6    1  0.1001928E-005  0.1433333E+04  0.7818608E-02  0.8930038E-01
          2   -1    0    0  501    0  0.00000000000E+00  0.00000000000E+00  0.14282122720E+04  0.14282122720E+04  0.00000000000E+00 0.  1.
         -2   -1    0    0    0  501 -0.00000000000E+00 -0.00000000000E+00 -0.35961786220E+03  0.35961786220E+03  0.00000000000E+00 0. -1.
         23    2    1    2    0    0  0.64977800776E+03 -0.31243460051E+02  0.90163978708E+03  0.11162190420E+04  0.99010256665E+02 0.  0.
         11    1    3    3    0    0  0.39878637003E+03 -0.65303977499E+02  0.53027199321E+03  0.66669600657E+03  0.00000000000E+00 0. -1.
        -11    1    3    3    0    0  0.25099163773E+03  0.34060517448E+02  0.37136779387E+03  0.44952303543E+03  0.00000000000E+00 0.  1.
         22    1    1    2    0    0 -0.64977800776E+03  0.31243460051E+02  0.16695462277E+03  0.67161109225E+03  0.00000000000E+00 0. -1.
<mgrwt>
<rscale>  0 0.14333327E+04</rscale>
<asrwt>0</asrwt>
<pdfrwt beam="1">  1        2 0.21972496E+00 0.14333327E+04</pdfrwt>
<pdfrwt beam="2">  1       -2 0.55325826E-01 0.14333327E+04</pdfrwt>
<totfact> 0.41568122E+01</totfact>
</mgrwt>
</event>
<event>
 6    1  0.1001928E-005  0.2023334E+04  0.7818608E-02  0.8595789E-01
          2   -1    0    0  501    0  0.00000000000E+00  0.00000000000E+00  0.76742792914E+03  0.76742792914E+03  0.00000000000E+00 0. -1.
         -2   -1    0    0    0  501 -0.00000000000E+00 -0.00000000000E+00 -0.13336361771E+04  0.13336361771E+04  0.00000000000E+00 0.  1.
         23    2    1    2    0    0  0.86618417645E+03  0.10297723825E+03  0.24463577389E+03  0.91012020878E+03  0.87136636554E+02 0.  0.
         13    1    3    3    0    0  0.71525157717E+03  0.10656927308E+03  0.22796055287E+03  0.75822677497E+03  0.00000000000E+00 0. -1.
        -13    1    3    3    0    0  0.15093259928E+03 -0.35920348274E+01  0.16675221020E+02  0.15189343381E+03  0.00000000000E+00 0.  1.
         22    1    1    2    0    0 -0.86618417645E+03 -0.10297723825E+03 -0.81084402185E+03  0.11909438975E+04  0.00000000000E+00 0.  1.
<mgrwt>
<rscale>  0 0.20233335E+04</rscale>
<asrwt>0</asrwt>
<pdfrwt beam="1">  1        2 0.11806584E+00 0.20233335E+04</pdfrwt>
<pdfrwt beam="2">  1       -2 0.20517480E+00 0.20233335E+04</pdfrwt>
<totfact> 0.41498946E+00</totfact>
</mgrwt>
</event>
<event>
 6    1  0.1001928E-005  0.3150317E+04  0.7818608E-02  0.8202063E-01
         -2   -1    0    0    0  501 -0.00000000000E+00  0.00000000000E+00  0.14674724296E+04  0.14674724296E+04  0.00000000000E+00 0.  1.
          2   -1    0    0  501    0  0.00000000000E+00 -0.00000000000E+00 -0.16907462639E+04  0.16907462639E+04  0.00000000000E+00 0. -1.
         23    2    1    2    0    0  0.70529240933E+03 -0.13597852263E+04 -0.47364531710E+03  0.16060785182E+04  0.93247391440E+02 0.  0.
         13    1    3    3    0    0  0.15519681566E+03 -0.29103272886E+03 -0.62522511979E+02  0.33570100590E+03  0.00000000000E+00 0. -1.
        -13    1    3    3    0    0  0.55009559367E+03 -0.10687524974E+04 -0.41112280512E+03  0.12703775123E+04  0.00000000000E+00 0.  1.
         22    1    1    2    0    0 -0.70529240933E+03  0.13597852263E+04  0.25037148279E+03  0.15521401753E+04  0.00000000000E+00 0.  1.
<mgrwt>
<rscale>  0 0.31503165E+04</rscale>
<asrwt>0</asrwt>
<pdfrwt beam="1">  1        2 0.26011481E+00 0.31503165E+04</pdfrwt>
<pdfrwt beam="2">  1       -2 0.22576499E+00 0.31503165E+04</pdfrwt>
<totfact> 0.76271253E-01</totfact>
</mgrwt>
</event>
<event>
 6    1  0.1001928E-005  0.1348892E+04  0.7818608E-02  0.8991667E-01
          2   -1    0    0  501    0  0.00000000000E+00  0.00000000000E+00  0.10149230874E+04  0.10149230874E+04  0.00000000000E+00 0. -1.
         -2   -1    0    0    0  501 -0.00000000000E+00 -0.00000000000E+00 -0.44818909004E+03  0.44818909004E+03  0.00000000000E+00 0.  1.
         23    2    1    2    0    0 -0.44992037210E+03  0.26543058118E+03  0.74169946088E+03  0.91220869399E+03  0.95524219250E+02 0.  0.
         11    1    3    3    0    0 -0.64636490630E+02  0.11580730124E+02  0.13375831124E+03  0.14900763422E+03  0.00000000000E+00 0.  1.
        -11    1    3    3    0    0 -0.38528388147E+03  0.25384985106E+03  0.60794114965E+03  0.76320105977E+03  0.00000000000E+00 0. -1.
         22    1    1    2    0    0  0.44992037210E+03 -0.26543058118E+03 -0.17496546352E+03  0.55090348345E+03  0.00000000000E+00 0.  1.
<mgrwt>
<rscale>  0 0.13488921E+04</rscale>
<asrwt>0</asrwt>
<pdfrwt beam="1">  1        2 0.15614201E+00 0.13488921E+04</pdfrwt>
<pdfrwt beam="2">  1       -2 0.68952168E-01 0.13488921E+04</pdfrwt>
<totfact> 0.46250092E+01</totfact>
</mgrwt>
</event>
<event>
 6    1  0.1001928E-005  0.2342185E+04  0.7818608E-02  0.8461472E-01
          2   -1    0    0  501    0  0.00000000000E+00  0.00000000000E+00  0.20230018444E+04  0.20230018444E+04  0.00000000000E+00 0. -1.
         -2   -1    0    0    0  501 -0.00000000000E+00 -0.00000000000E+00 -0.67793183630E+03  0.67793183630E+03  0.00000000000E+00 0.  1.
         23    2    1    2    0    0  0.65616767695E+03 -0.47742945388E+03 -0.29747568445E+03  0.86887165778E+03  0.89169900463E+02 0.  0.
         13    1    3    3    0    0  0.59210516699E+02 -0.78016835978E+02 -0.30038032539E+02  0.10244410858E+03  0.00000000000E+00 0.  1.
        -13    1    3    3    0    0  0.59695716025E+03 -0.39941261790E+03 -0.26743765191E+03  0.76642754920E+03  0.00000000000E+00 0. -1.
         22    1    1    2    0    0 -0.65616767695E+03  0.47742945388E+03  0.16425456926E+04  0.18320620229E+04  0.00000000000E+00 0. -1.
<mgrwt>
<rscale>  0 0.23421848E+04</rscale>
<asrwt>0</asrwt>
<pdfrwt beam="1">  1        2 0.31123105E+00 0.23421848E+04</pdfrwt>
<pdfrwt beam="2">  1       -2 0.10429721E+00 0.23421848E+04</pdfrwt>
<totfact> 0.43781004E+00</totfact>
</mgrwt>
</event>
<event>
 6    1  0.1001928E-005  0.1517033E+04  0.7818608E-02  0.8873204E-01
          2   -1    0    0  501    0  0.00000000000E+00  0.00000000000E+00  0.15779966197E+04  0.15779966197E+04  0.00000000000E+00 0. -1.
         -2   -1    0    0    0  501 -0.00000000000E+00 -0.00000000000E+00 -0.36460620254E+03  0.36460620254E+03  0.00000000000E+00 0.  1.
         23    2    1    2    0    0  0.46391105156E+03 -0.59577017798E+03  0.57185652681E+03  0.95178432162E+03  0.93369903569E+02 0.  0.
         13    1    3    3    0    0  0.23770359689E+03 -0.28894942188E+03  0.34033990212E+03  0.50579246471E+03  0.00000000000E+00 0.  1.
        -13    1    3    3    0    0  0.22620745467E+03 -0.30682075610E+03  0.23151662468E+03  0.44599185691E+03  0.00000000000E+00 0. -1.
         22    1    1    2    0    0 -0.46391105156E+03  0.59577017798E+03  0.64153389038E+03  0.99081850065E+03  0.00000000000E+00 0.  1.
<mgrwt>
<rscale>  0 0.15170331E+04</rscale>
<asrwt>0</asrwt>
<pdfrwt beam="1">  1        2 0.24276871E+00 0.15170331E+04</pdfrwt>
<pdfrwt beam="2">  1       -2 0.56093263E-01 0.15170331E+04</pdfrwt>
<totfact> 0.33030109E+01</totfact>
</mgrwt>
</event>
<event>
 6    1  0.1001928E-005  0.4028610E+04  0.7818608E-02  0.7998800E-01
          2   -1    0    0  501    0  0.00000000000E+00  0.00000000000E+00  0.26523535945E+04  0.26523535945E+04  0.00000000000E+00 0. -1.
         -2   -1    0    0    0  501 -0.00000000000E+00 -0.00000000000E+00 -0.15297452922E+04  0.15297452922E+04  0.00000000000E+00 0.  1.
         23    2    1    2    0    0  0.71096242847E+03 -0.18657413838E+04  0.29333380547E+03  0.20201195442E+04  0.91541060555E+02 0.  0.
         11    1    3    3    0    0  0.35274505928E+03 -0.80013876139E+03  0.13639089187E+03  0.88501615223E+03  0.00000000000E+00 0. -1.
        -11    1    3    3    0    0  0.35821736919E+03 -0.10656026224E+04  0.15694291360E+03  0.11351033920E+04  0.00000000000E+00 0.  1.
         22    1    1    2    0    0 -0.71096242847E+03  0.18657413838E+04  0.82927449681E+03  0.21619793424E+04  0.00000000000E+00 0. -1.
<mgrwt>
<rscale>  0 0.40286104E+04</rscale>
<asrwt>0</asrwt>
<pdfrwt beam="1">  1        2 0.40805440E+00 0.40286104E+04</pdfrwt>
<pdfrwt beam="2">  1       -2 0.23534543E+00 0.40286104E+04</pdfrwt>
<totfact> 0.17660334E-01</totfact>
</mgrwt>
</event>
<event>
 6    1  0.1001928E-005  0.1174579E+04  0.7818608E-02  0.9135403E-01
         -1   -1    0    0    0  501 -0.00000000000E+00  0.00000000000E+00  0.37626016337E+03  0.37626016337E+03  0.00000000000E+00 0.  1.
          1   -1    0    0  501    0  0.00000000000E+00 -0.00000000000E+00 -0.91667666031E+03  0.91667666031E+03  0.00000000000E+00 0. -1.
         23    2    1    2    0    0  0.36763061757E+03 -0.44967399592E+03 -0.20694352846E+03  0.62318821839E+03  0.90437591690E+02 0.  0.
         13    1    3    3    0    0  0.14877653438E+03 -0.25328444682E+03 -0.10637718339E+03  0.31241570596E+03  0.00000000000E+00 0.  1.
        -13    1    3    3    0    0  0.21885408319E+03 -0.19638954910E+03 -0.10056634506E+03  0.31077251243E+03  0.00000000000E+00 0. -1.
         22    1    1    2    0    0 -0.36763061757E+03  0.44967399592E+03 -0.33347296848E+03  0.66974860529E+03  0.00000000000E+00 0. -1.
<mgrwt>
<rscale>  0 0.11745789E+04</rscale>
<asrwt>0</asrwt>
<pdfrwt beam="1">  1        1 0.14102718E+00 0.11745789E+04</pdfrwt>
<pdfrwt beam="2">  1       -1 0.57886179E-01 0.11745789E+04</pdfrwt>
<totfact> 0.52856605E+01</totfact>
</mgrwt>
</event>
<event>
 6    1  0.1001928E-005  0.3559286E+04  0.7818608E-02  0.8099882E-01
         -1   -1    0    0    0  501 -0.00000000000E+00  0.00000000000E+00  0.24886098066E+04  0.24886098066E+04  0.00000000000E+00 0.  1.
          1   -1    0    0  501    0  0.00000000000E+00 -0.00000000000E+00 -0.12726498106E+04  0.12726498106E+04  0.00000000000E+00 0. -1.
         23    2    1    2    0    0 -0.12817760704E+04 -0.49498344353E+03  0.18016395528E+04  0.22676133916E+04  0.90592006691E+02 0.  0.
         11    1    3    3    0    0 -0.75540745410E+03 -0.25857559540E+03  0.99232457995E+03  0.12736600144E+04  0.00000000000E+00 0. -1.
        -11    1    3    3    0    0 -0.52636861632E+03 -0.23640784813E+03  0.80931497280E+03  0.99395337723E+03  0.00000000000E+00 0.  1.
         22    1    1    2    0    0  0.12817760704E+04  0.49498344353E+03 -0.58567955681E+03  0.14936462256E+04  0.00000000000E+00 0. -1.
<mgrwt>
<rscale>  0 0.35592858E+04</rscale>
<asrwt>0</asrwt>
<pdfrwt beam="1">  1        1 0.19579228E+00 0.35592858E+04</pdfrwt>
<pdfrwt beam="2">  1       -1 0.38286305E+00 0.35592858E+04</pdfrwt>
<totfact> 0.71837478E-02</totfact>
</mgrwt>
</event>
<event>
 6    1  0.1001928E-005  0.2337521E+04  0.7818608E-02  0.8463272E-01
         -1   -1    0    0    0  501 -0.00000000000E+00  0.00000000000E+00  0.50672014375E+03  0.50672014375E+03  0.00000000000E+00 0.  1.
          1   -1    0    0  501    0  0.00000000000E+00 -0.00000000000E+00 -0.26957692995E+04  0.26957692995E+04  0.00000000000E+00 0. -1.
         23    2    1    2    0    0 -0.37248083654E+03 -0.70866975240E+03 -0.22594976231E+04  0.23987993424E+04  0.89185117310E+02 0.  0.
         13    1    3    3    0    0 -0.18001561094E+03 -0.41426417801E+03 -0.11831157571E+04  0.12664056712E+04  0.00000000000E+00 0. -1.
        -13    1    3    3    0    0 -0.19246522560E+03 -0.29440557438E+03 -0.10763818659E+04  0.11323936712E+04  0.00000000000E+00 0.  1.
         22    1    1    2    0    0  0.37248083654E+03  0.70866975240E+03  0.70448467325E+02  0.80369010079E+03  0.00000000000E+00 0.  1.
<mgrwt>
<rscale>  0 0.23375206E+04</rscale>
<asrwt>0</asrwt>
<pdfrwt beam="1">  1        1 0.41473374E+00 0.23375206E+04</pdfrwt>
<pdfrwt beam="2">  1       -1 0.77956946E-01 0.23375206E+04</pdfrwt>
<totfact> 0.14672608E+00</totfact>
</mgrwt>
</event>
<event>
 6    1  0.1001928E-005  0.2443864E+04  0.7818608E-02  0.8423262E-01
          2   -1    0    0  501    0  0.00000000000E+00  0.00000000000E+00  0.21896800697E+04  0.21896800697E+04  0.00000000000E+00 0.  1.
         -2   -1    0    0    0  501 -0.00000000000E+00 -0.00000000000E+00 -0.68188871835E+03  0.68188871835E+03  0.00000000000E+00 0. -1.
         23    2    1    2    0    0 -0.10132254949E+04  0.57810177919E+03  0.11757610335E+04  0.16586913406E+04  0.89528681960E+02 0.  0.
         13    1    3    3    0    0 -0.51608856549E+03  0.24497630673E+03  0.55655300924E+03  0.79756632977E+03  0.00000000000E+00 0.  1.
        -13    1    3    3    0    0 -0.49713692943E+03  0.33312547246E+03  0.61920802421E+03  0.86112501081E+03  0.00000000000E+00 0. -1.
         22    1    1    2    0    0  0.10132254949E+04 -0.57810177919E+03  0.33203031794E+03  0.12128774475E+04  0.00000000000E+00 0. -1.
<mgrwt>
<rscale>  0 0.24438643E+04</rscale>
<asrwt>0</asrwt>
<pdfrwt beam="1">  1        2 0.33687385E+00 0.24438643E+04</pdfrwt>
<pdfrwt beam="2">  1       -2 0.10490596E+00 0.24438643E+04</pdfrwt>
<totfact> 0.34538718E+00</totfact>
</mgrwt>
</event>
<event>
 6    1  0.1001928E-005  0.4615064E+04  0.7818608E-02  0.7890797E-01
         -2   -1    0    0    0  501 -0.00000000000E+00  0.00000000000E+00  0.14590339553E+04  0.14590339553E+04  0.00000000000E+00 0.  1.
          2   -1    0    0  501    0  0.00000000000E+00 -0.00000000000E+00 -0.36494715960E+04  0.36494715960E+04  0.00000000000E+00 0. -1.
         23    2    1    2    0    0 -0.10198409727E+04 -0.33848666915E+03  0.11636738696E+04  0.15864730616E+04  0.90061454629E+02 0.  0.
         13    1    3    3    0    0 -0.57186128551E+03 -0.16202167358E+03  0.58935259387E+03  0.83702618386E+03  0.00000000000E+00 0. -1.
        -13    1    3    3    0    0 -0.44797968721E+03 -0.17646499558E+03  0.57432127569E+03  0.74944687772E+03  0.00000000000E+00 0.  1.
         22    1    1    2    0    0  0.10198409727E+04  0.33848666915E+03 -0.33541115103E+04  0.35220324896E+04  0.00000000000E+00 0. -1.
<mgrwt>
<rscale>  0 0.46150636E+04</rscale>
<asrwt>0</asrwt>
<pdfrwt beam="1">  1        2 0.56145717E+00 0.46150636E+04</pdfrwt>
<pdfrwt beam="2">  1       -2 0.22446676E+00 0.46150636E+04</pdfrwt>
<totfact> 0.44090042E-02</totfact>
</mgrwt>
</event>
<event>
 6    1  0.1001928E-005  0.5131713E+04  0.7818608E-02  0.7808504E-01
          2   -1    0    0  501    0  0.00000000000E+00  0.00000000000E+00  0.12114872299E+04  0.12114872299E+04  0.00000000000E+00 0. -1.
         -2   -1    0    0    0  501 -0.00000000000E+00 -0.00000000000E+00 -0.54343278747E+04  0.54343278747E+04  0.00000000000E+00 0.  1.
         23    2    1    2    0    0 -0.15722476578E+04 -0.19119369021E+03 -0.47250725949E+04  0.49842632227E+04  0.89728044691E+02 0.  0.
         13    1    3    3    0    0 -0.66046137965E+03 -0.10502468670E+03 -0.18789966013E+04  0.19944592366E+04  0.00000000000E+00 0.  1.
        -13    1    3    3    0    0 -0.91178627812E+03 -0.86169003512E+02 -0.28460759936E+04  0.29898039861E+04  0.00000000000E+00 0. -1.
         22    1    1    2    0    0  0.15722476578E+04  0.19119369021E+03  0.50223195001E+03  0.16615518819E+04  0.00000000000E+00 0. -1.
<mgrwt>
<rscale>  0 0.51317127E+04</rscale>
<asrwt>0</asrwt>
<pdfrwt beam="1">  1        2 0.18638265E+00 0.51317127E+04</pdfrwt>
<pdfrwt beam="2">  1       -2 0.83605044E+00 0.51317127E+04</pdfrwt>
<totfact> 0.57827494E-04</totfact>
</mgrwt>
</event>
<event>
 6    1  0.1001928E-005  0.3371953E+04  0.7818608E-02  0.8144824E-01
          1   -1    0    0  501    0  0.00000000000E+00  0.00000000000E+00  0.14601310902E+04  0.14601310902E+04  0.00000000000E+00 0. -1.
         -1   -1    0    0    0  501 -0.00000000000E+00 -0.00000000000E+00 -0.19467548780E+04  0.19467548780E+04  0.00000000000E+00 0.  1.
         23    2    1    2    0    0  0.83846580040E+03  0.71239297064E+03 -0.15325714049E+04  0.18888164505E+04  0.91235024170E+02 0.  0.
         13    1    3    3    0    0  0.70130750936E+02  0.71397590373E+02 -0.18552780716E+03  0.21079968066E+03  0.00000000000E+00 0. -1.
        -13    1    3    3    0    0  0.76833504946E+03  0.64099538026E+03 -0.13470435977E+04  0.16780167698E+04  0.00000000000E+00 0.  1.
         22    1    1    2    0    0 -0.83846580040E+03 -0.71239297064E+03  0.10459476170E+04  0.15180695177E+04  0.00000000000E+00 0. -1.
<mgrwt>
<rscale>  0 0.33719533E+04</rscale>
<asrwt>0</asrwt>
<pdfrwt beam="1">  1        1 0.22463555E+00 0.33719533E+04</pdfrwt>
<pdfrwt beam="2">  1       -1 0.29950075E+00 0.33719533E+04</pdfrwt>
<totfact> 0.19129345E-01</totfact>
</mgrwt>
</event>
<event>
 6    1  0.1001928E-005  0.9300559E+03  0.7818608E-02  0.9388771E-01
         -2   -1    0    0    0  501 -0.00000000000E+00  0.00000000000E+00  0.27854920646E+03  0.27854920646E+03  0.00000000000E+00 0.  1.
          2   -1    0    0  501    0  0.00000000000E+00 -0.00000000000E+00 -0.77634754465E+03  0.77634754465E+03  0.00000000000E+00 0. -1.
         23    2    1    2    0    0 -0.53444733743E+02 -0.41777156907E+03 -0.46281147856E+03  0.63226984256E+03  0.90450349048E+02 0.  0.
         11    1    3    3    0    0 -0.16523935724E+01 -0.46636163221E+02 -0.10154010449E+03  0.11174996620E+03  0.00000000000E+00 0.  1.
        -11    1    3    3    0    0 -0.51792340171E+02 -0.37113540584E+03 -0.36127137407E+03  0.52051987636E+03  0.00000000000E+00 0. -1.
         22    1    1    2    0    0  0.53444733743E+02  0.41777156907E+03 -0.34986859638E+02  0.42262690855E+03  0.00000000000E+00 0.  1.
<mgrwt>
<rscale>  0 0.93005590E+03</rscale>
<asrwt>0</asrwt>
<pdfrwt beam="1">  1        2 0.11943808E+00 0.93005590E+03</pdfrwt>
<pdfrwt beam="2">  1       -2 0.42853724E-01 0.93005590E+03</pdfrwt>
<totfact> 0.18527663E+02</totfact>
</mgrwt>
</event>
<event>
 6    1  0.1111832E-005  0.3334549E+04  0.7818608E-02  0.8154160E-01
          2   -1    0    0  501    0  0.00000000000E+00  0.00000000000E+00  0.17260692578E+04  0.17260692578E+04  0.00000000000E+00 0. -1.
         -2   -1    0    0    0  501 -0.00000000000E+00 -0.00000000000E+00 -0.16104821219E+04  0.16104821219E+04  0.00000000000E+00 0.  1.
         23    2    1    2    0    0  0.71007337628E+03  0.12628071053E+04  0.88091742282E+03  0.16980714643E+04  0.92440289987E+02 0.  0.
         13    1    3    3    0    0  0.39752109073E+03  0.61389341336E+03  0.45254474192E+03  0.86004934974E+03  0.00000000000E+00 0.  1.
        -13    1    3    3    0    0  0.31255228555E+03  0.64891369196E+03  0.42837268090E+03  0.83802211460E+03  0.00000000000E+00 0. -1.
         22    1    1    2    0    0 -0.71007337628E+03 -0.12628071053E+04 -0.76533028690E+03  0.16384799153E+04  0.00000000000E+00 0.  1.
<mgrwt>
<rscale>  0 0.33345487E+04</rscale>
<asrwt>0</asrwt>
<pdfrwt beam="1">  1        2 0.26554912E+00 0.33345487E+04</pdfrwt>
<pdfrwt beam="2">  1       -2 0.24776648E+00 0.33345487E+04</pdfrwt>
<totfact> 0.52400143E-01</totfact>
</mgrwt>
</event>
<event>
 6    1  0.1001928E-005  0.1625164E+04  0.7818608E-02  0.8805236E-01
          1   -1    0    0  501    0  0.00000000000E+00  0.00000000000E+00  0.58917676994E+03  0.58917676994E+03  0.00000000000E+00 0. -1.
         -1   -1    0    0    0  501 -0.00000000000E+00 -0.00000000000E+00 -0.11206988922E+04  0.11206988922E+04  0.00000000000E+00 0.  1.
         23    2    1    2    0    0  0.71081998523E+03  0.33310195638E+03 -0.56219374317E+02  0.79219670579E+03  0.90515401233E+02 0.  0.
         11    1    3    3    0    0  0.34054431062E+03  0.16797447873E+03 -0.71904913353E+02  0.38646625928E+03  0.00000000000E+00 0.  1.
        -11    1    3    3    0    0  0.37027567461E+03  0.16512747765E+03  0.15685539036E+02  0.40573044651E+03  0.00000000000E+00 0. -1.
         22    1    1    2    0    0 -0.71081998523E+03 -0.33310195638E+03 -0.47530274798E+03  0.91767895638E+03  0.00000000000E+00 0.  1.
<mgrwt>
<rscale>  0 0.16251643E+04</rscale>
<asrwt>0</asrwt>
<pdfrwt beam="1">  1        1 0.90642581E-01 0.16251643E+04</pdfrwt>
<pdfrwt beam="2">  1       -1 0.17241521E+00 0.16251643E+04</pdfrwt>
<totfact> 0.79526730E+00</totfact>
</mgrwt>
</event>
<event>
 6    1  0.1001928E-005  0.2569335E+04  0.7818608E-02  0.8378693E-01
         -1   -1    0    0    0  501 -0.00000000000E+00  0.00000000000E+00  0.13467923979E+04  0.13467923979E+04  0.00000000000E+00 0.  1.
          1   -1    0    0  501    0  0.00000000000E+00 -0.00000000000E+00 -0.12254081839E+04  0.12254081839E+04  0.00000000000E+00 0. -1.
         23    2    1    2    0    0  0.11140298366E+03  0.12410124252E+04 -0.24585196118E+03  0.12732067894E+04  0.89943745914E+02 0.  0.
         13    1    3    3    0    0  0.10130003783E+03  0.72965490438E+03 -0.17174156176E+03  0.75640805203E+03  0.00000000000E+00 0.  1.
        -13    1    3    3    0    0  0.10102945837E+02  0.51135752085E+03 -0.74110399415E+02  0.51679873737E+03  0.00000000000E+00 0. -1.
         22    1    1    2    0    0 -0.11140298366E+03 -0.12410124252E+04  0.36723617524E+03  0.12989937924E+04  0.00000000000E+00 0.  1.
<mgrwt>
<rscale>  0 0.25693349E+04</rscale>
<asrwt>0</asrwt>
<pdfrwt beam="1">  1        1 0.18852434E+00 0.25693349E+04</pdfrwt>
<pdfrwt beam="2">  1       -1 0.20719883E+00 0.25693349E+04</pdfrwt>
<totfact> 0.12145825E+00</totfact>
</mgrwt>
</event>
<event>
 6    1  0.1001928E-005  0.2178328E+04  0.7818608E-02  0.8527503E-01
         -2   -1    0    0    0  501 -0.00000000000E+00  0.00000000000E+00  0.21741229883E+03  0.21741229883E+03  0.00000000000E+00 0.  1.
          2   -1    0    0  501    0  0.00000000000E+00 -0.00000000000E+00 -0.54563522594E+04  0.54563522594E+04  0.00000000000E+00 0. -1.
         23    2    1    2    0    0 -0.85815256166E+02 -0.10832457198E+04 -0.27224896577E+04  0.29327232097E+04  0.90166182829E+02 0.  0.
         13    1    3    3    0    0 -0.10230442722E+03 -0.81363464404E+03 -0.20223281223E+04  0.21822645495E+04  0.00000000000E+00 0.  1.
        -13    1    3    3    0    0  0.16489171053E+02 -0.26961107578E+03 -0.70016153541E+03  0.75045866016E+03  0.00000000000E+00 0. -1.
         22    1    1    2    0    0  0.85815256166E+02  0.10832457198E+04 -0.25164503029E+04  0.27410413486E+04  0.00000000000E+00 0.  1.
<mgrwt>
<rscale>  0 0.21783279E+04</rscale>
<asrwt>0</asrwt>
<pdfrwt beam="1">  1        2 0.83943888E+00 0.21783279E+04</pdfrwt>
<pdfrwt beam="2">  1       -2 0.33448043E-01 0.21783279E+04</pdfrwt>
<totfact> 0.56477844E-02</totfact>
</mgrwt>
</event>
<event>
 6    1  0.1001928E-005  0.2681521E+04  0.7818608E-02  0.8341026E-01
         -2   -1    0    0    0  501 -0.00000000000E+00  0.00000000000E+00  0.13215342247E+04  0.13215342247E+04  0.00000000000E+00 0.  1.
          2   -1    0    0  501    0  0.00000000000E+00 -0.00000000000E+00 -0.13602662112E+04  0.13602662112E+04  0.00000000000E+00 0. -1.
         23    2    1    2    0    0  0.12111080589E+03 -0.49571058123E+03 -0.12576755261E+04  0.13603541976E+04  0.91755143198E+02 0.  0.
         13    1    3    3    0    0  0.10672020486E+03 -0.45399557869E+03 -0.10641086131E+04  0.11618211257E+04  0.00000000000E+00 0. -1.
        -13    1    3    3    0    0  0.14390601035E+02 -0.41715002540E+02 -0.19356691301E+03  0.19853307192E+03  0.00000000000E+00 0.  1.
         22    1    1    2    0    0 -0.12111080589E+03  0.49571058123E+03  0.12189435397E+04  0.13214462383E+04  0.00000000000E+00 0.  1.
<mgrwt>
<rscale>  0 0.26815207E+04</rscale>
<asrwt>0</asrwt>
<pdfrwt beam="1">  1        2 0.20927173E+00 0.26815207E+04</pdfrwt>
<pdfrwt beam="2">  1       -2 0.20331296E+00 0.26815207E+04</pdfrwt>
<totfact> 0.16956046E+00</totfact>
</mgrwt>
</event>
<event>
 6    1  0.1001928E-005  0.4529480E+03  0.7818608E-02  0.1026847E+00
          1   -1    0    0  501    0  0.00000000000E+00  0.00000000000E+00  0.34704285220E+03  0.34704285220E+03  0.00000000000E+00 0. -1.
         -1   -1    0    0    0  501 -0.00000000000E+00 -0.00000000000E+00 -0.14779291581E+03  0.14779291581E+03  0.00000000000E+00 0.  1.
         23    2    1    2    0    0  0.55414047649E+02 -0.18638837425E+03  0.21064034277E+03  0.30005105585E+03  0.88599883668E+02 0.  0.
         11    1    3    3    0    0  0.45978633212E+02 -0.88194293258E+02  0.16192513207E+03  0.19003161966E+03  0.00000000000E+00 0.  1.
        -11    1    3    3    0    0  0.94354144377E+01 -0.98194080990E+02  0.48715210702E+02  0.11001943620E+03  0.00000000000E+00 0. -1.
         22    1    1    2    0    0 -0.55414047649E+02  0.18638837425E+03 -0.11390406378E+02  0.19478471215E+03  0.00000000000E+00 0.  1.
<mgrwt>
<rscale>  0 0.45294801E+03</rscale>
<asrwt>0</asrwt>
<pdfrwt beam="1">  1        1 0.53391208E-01 0.45294801E+03</pdfrwt>
<pdfrwt beam="2">  1       -1 0.22737372E-01 0.45294801E+03</pdfrwt>
<totfact> 0.11918701E+03</totfact>
</mgrwt>
</event>
<event>
 6    1  0.1001928E-005  0.5878704E+03  0.7818608E-02  0.9930896E-01
          2   -1    0    0  501    0  0.00000000000E+00  0.00000000000E+00  0.83469601140E+03  0.83469601140E+03  0.00000000000E+00 0. -1.
         -2   -1    0    0    0  501 -0.00000000000E+00 -0.00000000000E+00 -0.10350822700E+03  0.10350822700E+03  0.00000000000E+00 0.  1.
         23    2    1    2    0    0  0.48397283718E+02 -0.27328864354E+03  0.49112608247E+03  0.57124565697E+03  0.89932151981E+02 0.  0.
         11    1    3    3    0    0  0.37017839221E+02 -0.51519020883E+02  0.65568062320E+02  0.91234317719E+02  0.00000000000E+00 0.  1.
        -11    1    3    3    0    0  0.11379444497E+02 -0.22176962265E+03  0.42555802015E+03  0.48001133925E+03  0.00000000000E+00 0. -1.
         22    1    1    2    0    0 -0.48397283718E+02  0.27328864354E+03  0.24006170193E+03  0.36695858144E+03  0.00000000000E+00 0.  1.
<mgrwt>
<rscale>  0 0.58787041E+03</rscale>
<asrwt>0</asrwt>
<pdfrwt beam="1">  1        2 0.12841477E+00 0.58787041E+03</pdfrwt>
<pdfrwt beam="2">  1       -2 0.15924343E-01 0.58787041E+03</pdfrwt>
<totfact> 0.10354807E+03</totfact>
</mgrwt>
</event>
<event>
 6    1  0.1001928E-005  0.1919714E+04  0.7818608E-02  0.8645105E-01
         -2   -1    0    0    0  501 -0.00000000000E+00  0.00000000000E+00  0.55360053027E+03  0.55360053027E+03  0.00000000000E+00 0.  1.
          2   -1    0    0  501    0  0.00000000000E+00 -0.00000000000E+00 -0.16642415473E+04  0.16642415473E+04  0.00000000000E+00 0. -1.
         23    2    1    2    0    0  0.53966873201E+03  0.70805562838E+03 -0.14909156329E+03  0.90743661925E+03  0.92886008265E+02 0.  0.
         11    1    3    3    0    0  0.44702462262E+03  0.53338199230E+03 -0.13739609731E+03  0.70936947390E+03  0.00000000000E+00 0.  1.
        -11    1    3    3    0    0  0.92644109382E+02  0.17467363607E+03 -0.11695465973E+02  0.19806714535E+03  0.00000000000E+00 0. -1.
         22    1    1    2    0    0 -0.53966873201E+03 -0.70805562838E+03 -0.96154945374E+03  0.13104054583E+04  0.00000000000E+00 0.  1.
<mgrwt>
<rscale>  0 0.19197135E+04</rscale>
<asrwt>0</asrwt>
<pdfrwt beam="1">  1        2 0.25603716E+00 0.19197135E+04</pdfrwt>
<pdfrwt beam="2">  1       -2 0.85169314E-01 0.19197135E+04</pdfrwt>
<totfact> 0.11515405E+01</totfact>
</mgrwt>
</event>
<event>
 6    1  0.1001928E-005  0.2461318E+04  0.7818608E-02  0.8416897E-01
          1   -1    0    0  501    0  0.00000000000E+00  0.00000000000E+00  0.24954445555E+04  0.24954445555E+04  0.00000000000E+00 0. -1.
         -1   -1    0    0    0  501 -0.00000000000E+00 -0.00000000000E+00 -0.60691463145E+03  0.60691463145E+03  0.00000000000E+00 0.  1.
         23    2    1    2    0    0 -0.76444391488E+03 -0.71167787592E+03  0.12902558587E+03  0.10562127078E+04  0.89876494565E+02 0.  0.
         11    1    3    3    0    0 -0.54927779858E+03 -0.45479590907E+03  0.81344668734E+02  0.71774812716E+03  0.00000000000E+00 0.  1.
        -11    1    3    3    0    0 -0.21516611630E+03 -0.25688196685E+03  0.47680917135E+02  0.33846458065E+03  0.00000000000E+00 0. -1.
         22    1    1    2    0    0  0.76444391488E+03  0.71167787592E+03  0.17595043382E+04  0.20461464792E+04  0.00000000000E+00 0. -1.
<mgrwt>
<rscale>  0 0.24613182E+04</rscale>
<asrwt>0</asrwt>
<pdfrwt beam="1">  1        1 0.38391454E+00 0.24613182E+04</pdfrwt>
<pdfrwt beam="2">  1       -1 0.93371483E-01 0.24613182E+04</pdfrwt>
<totfact> 0.13536124E+00</totfact>
</mgrwt>
</event>
<event>
 6    1  0.1001928E-005  0.5443488E+04  0.7818608E-02  0.7763513E-01
         -2   -1    0    0    0  501 -0.00000000000E+00  0.00000000000E+00  0.18108001383E+04  0.18108001383E+04  0.00000000000E+00 0.  1.
          2   -1    0    0  501    0  0.00000000000E+00 -0.00000000000E+00 -0.40909493050E+04  0.40909493050E+04  0.00000000000E+00 0. -1.
         23    2    1    2    0    0 -0.84557286347E+03 -0.15633942777E+04 -0.33740872621E+04  0.38146711767E+04  0.89756332970E+02 0.  0.
         11    1    3    3    0    0 -0.52776235123E+03 -0.93671253266E+03 -0.21249880257E+04  0.23814990190E+04  0.00000000000E+00 0.  1.
        -11    1    3    3    0    0 -0.31781051224E+03 -0.62668174502E+03 -0.12490992364E+04  0.14331721577E+04  0.00000000000E+00 0. -1.
         22    1    1    2    0    0  0.84557286347E+03  0.15633942777E+04  0.10939380953E+04  0.20870782667E+04  0.00000000000E+00 0.  1.
<mgrwt>
<rscale>  0 0.54434884E+04</rscale>
<asrwt>0</asrwt>
<pdfrwt beam="1">  1        2 0.62937682E+00 0.54434884E+04</pdfrwt>
<pdfrwt beam="2">  1       -2 0.27858464E+00 0.54434884E+04</pdfrwt>
<totfact> 0.86453735E-03</totfact>
</mgrwt>
</event>
<event>
 6    1  0.1001928E-005  0.3382520E+04  0.7818608E-02  0.8142210E-01
         -1   -1    0    0    0  501 -0.00000000000E+00  0.00000000000E+00  0.12290328320E+04  0.12290328320E+04  0.00000000000E+00 0.  1.
          1   -1    0    0  501    0  0.00000000000E+00 -0.00000000000E+00 -0.23273264942E+04  0.23273264942E+04  0.00000000000E+00 0. -1.
         23    2    1    2    0    0  0.11239545957E+04  0.10532401321E+04 -0.12807082043E+04  0.20052746174E+04  0.91236384495E+02 0.  0.
         13    1    3    3    0    0  0.10605970437E+04  0.96577503934E+03 -0.11764488551E+04  0.18551602153E+04  0.00000000000E+00 0. -1.
        -13    1    3    3    0    0  0.63357551969E+02  0.87465092721E+02 -0.10425934921E+03  0.15011440216E+03  0.00000000000E+00 0.  1.
         22    1    1    2    0    0 -0.11239545957E+04 -0.10532401321E+04  0.18241454207E+03  0.15510847089E+04  0.00000000000E+00 0.  1.
<mgrwt>
<rscale>  0 0.33825202E+04</rscale>
<asrwt>0</asrwt>
<pdfrwt beam="1">  1        1 0.35805023E+00 0.33825202E+04</pdfrwt>
<pdfrwt beam="2">  1       -1 0.18908197E+00 0.33825202E+04</pdfrwt>
<totfact> 0.26337231E-01</totfact>
</mgrwt>
</event>
<event>
 6    1  0.1001928E-005  0.1303099E+04  0.7818608E-02  0.9027111E-01
         -1   -1    0    0    0  501 -0.00000000000E+00  0.00000000000E+00  0.38440579514E+03  0.38440579514E+03  0.00000000000E+00 0.  1.
          1   -1    0    0  501    0  0.00000000000E+00 -0.00000000000E+00 -0.11043452590E+04  0.11043452590E+04  0.00000000000E+00 0. -1.
         23    2    1    2    0    0  0.51724704597E+03  0.38532523902E+03 -0.28246258205E+03  0.70938845013E+03  0.86178979629E+02 0.  0.
         13    1    3    3    0    0  0.43609074682E+03  0.30695243221E+03 -0.26403928835E+03  0.59507283663E+03  0.00000000000E+00 0.  1.
        -13    1    3    3    0    0  0.81156299149E+02  0.78372806814E+02 -0.18423293695E+02  0.11431561350E+03  0.00000000000E+00 0. -1.
         22    1    1    2    0    0 -0.51724704597E+03 -0.38532523902E+03 -0.43747688177E+03  0.77936260397E+03  0.00000000000E+00 0.  1.
<mgrwt>
<rscale>  0 0.13030989E+04</rscale>
<asrwt>0</asrwt>
<pdfrwt beam="1">  1        1 0.16989927E+00 0.13030989E+04</pdfrwt>
<pdfrwt beam="2">  1       -1 0.59139354E-01 0.13030989E+04</pdfrwt>
<totfact> 0.35822968E+01</totfact>
</mgrwt>
</event>
<event>
 6    1  0.1001928E-005  0.2239019E+04  0.7818608E-02  0.8502361E-01
          2   -1    0    0  501    0  0.00000000000E+00  0.00000000000E+00  0.71983524715E+03  0.71983524715E+03  0.00000000000E+00 0. -1.
         -2   -1    0    0    0  501 -0.00000000000E+00 -0.00000000000E+00 -0.17410943592E+04  0.17410943592E+04  0.00000000000E+00 0.  1.
         23    2    1    2    0    0 -0.95152382943E+03 -0.27633035049E+03 -0.10798316167E+04  0.14683638408E+04  0.91104270120E+02 0.  0.
         11    1    3    3    0    0 -0.36855115033E+03 -0.76543566073E+02 -0.36120622637E+03  0.52168841839E+03  0.00000000000E+00 0.  1.
        -11    1    3    3    0    0 -0.58297267910E+03 -0.19978678441E+03 -0.71862539035E+03  0.94667542244E+03  0.00000000000E+00 0. -1.
         22    1    1    2    0    0  0.95152382943E+03  0.27633035049E+03  0.58572504663E+02  0.99256576552E+03  0.00000000000E+00 0. -1.
<mgrwt>
<rscale>  0 0.22390186E+04</rscale>
<asrwt>0</asrwt>
<pdfrwt beam="1">  1        2 0.11074389E+00 0.22390186E+04</pdfrwt>
<pdfrwt beam="2">  1       -2 0.26786067E+00 0.22390186E+04</pdfrwt>
<totfact> 0.17993885E+00</totfact>
</mgrwt>
</event>
<event>
 6    1  0.1001928E-005  0.3699137E+04  0.7818608E-02  0.8068153E-01
         -2   -1    0    0    0  501 -0.00000000000E+00  0.00000000000E+00  0.11561542494E+04  0.11561542494E+04  0.00000000000E+00 0.  1.
          2   -1    0    0  501    0  0.00000000000E+00 -0.00000000000E+00 -0.29588648879E+04  0.29588648879E+04  0.00000000000E+00 0. -1.
         23    2    1    2    0    0  0.13679718507E+04  0.12394058181E+04 -0.79460934394E+03  0.20117497808E+04  0.90881268047E+02 0.  0.
         11    1    3    3    0    0  0.61563089169E+03  0.59781584236E+03 -0.33194644994E+03  0.92009435483E+03  0.00000000000E+00 0. -1.
        -11    1    3    3    0    0  0.75234095901E+03  0.64158997571E+03 -0.46266289400E+03  0.10916554260E+04  0.00000000000E+00 0.  1.
         22    1    1    2    0    0 -0.13679718507E+04 -0.12394058181E+04 -0.10081012945E+04  0.21032693565E+04  0.00000000000E+00 0. -1.
<mgrwt>
<rscale>  0 0.36991373E+04</rscale>
<asrwt>0</asrwt>
<pdfrwt beam="1">  1        2 0.45520998E+00 0.36991373E+04</pdfrwt>
<pdfrwt beam="2">  1       -2 0.17786988E+00 0.36991373E+04</pdfrwt>
<totfact> 0.28001584E-01</totfact>
</mgrwt>
</event>
<event>
 6    1  0.1001928E-005  0.2745267E+04  0.7818608E-02  0.8320465E-01
          1   -1    0    0  501    0  0.00000000000E+00  0.00000000000E+00  0.69597383528E+03  0.69597383528E+03  0.00000000000E+00 0. -1.
         -1   -1    0    0    0  501 -0.00000000000E+00 -0.00000000000E+00 -0.27071743406E+04  0.27071743406E+04  0.00000000000E+00 0.  1.
         23    2    1    2    0    0  0.23655098340E+03  0.13283704690E+04 -0.13081555640E+04  0.18817025935E+04  0.94916806173E+02 0.  0.
         13    1    3    3    0    0  0.99091840923E+02  0.81935470429E+03 -0.79230530024E+03  0.11440756151E+04  0.00000000000E+00 0. -1.
        -13    1    3    3    0    0  0.13745914248E+03  0.50901576470E+03 -0.51585026374E+03  0.73762697833E+03  0.00000000000E+00 0.  1.
         22    1    1    2    0    0 -0.23655098340E+03 -0.13283704690E+04 -0.70304494131E+03  0.15214455824E+04  0.00000000000E+00 0. -1.
<mgrwt>
<rscale>  0 0.27452668E+04</rscale>
<asrwt>0</asrwt>
<pdfrwt beam="1">  1        1 0.10707290E+00 0.27452668E+04</pdfrwt>
<pdfrwt beam="2">  1       -1 0.41648837E+00 0.27452668E+04</pdfrwt>
<totfact> 0.13170247E-01</totfact>
</mgrwt>
</event>
<event>
 6    1  0.1001928E-005  0.2247347E+04  0.7818608E-02  0.8498976E-01
         -1   -1    0    0    0  501 -0.00000000000E+00  0.00000000000E+00  0.64597354315E+03  0.64597354315E+03  0.00000000000E+00 0.  1.
          1   -1    0    0  501    0  0.00000000000E+00 -0.00000000000E+00 -0.19546346782E+04  0.19546346782E+04  0.00000000000E+00 0. -1.
         23    2    1    2    0    0  0.92009672122E+02 -0.84556079082E+02 -0.19457742924E+04  0.19513558162E+04  0.78335267997E+02 0.  0.
         13    1    3    3    0    0  0.43072239331E+02 -0.69196226743E+02 -0.15678026735E+04  0.15699199211E+04  0.00000000000E+00 0. -1.
        -13    1    3    3    0    0  0.48937432792E+02 -0.15359852339E+02 -0.37797161889E+03  0.38143589511E+03  0.00000000000E+00 0.  1.
         22    1    1    2    0    0 -0.92009672122E+02  0.84556079082E+02  0.63711315737E+03  0.64925240513E+03  0.00000000000E+00 0.  1.
<mgrwt>
<rscale>  0 0.22473471E+04</rscale>
<asrwt>0</asrwt>
<pdfrwt beam="1">  1        1 0.30071303E+00 0.22473471E+04</pdfrwt>
<pdfrwt beam="2">  1       -1 0.99380546E-01 0.22473471E+04</pdfrwt>
<totfact> 0.28076127E+00</totfact>
</mgrwt>
</event>
<event>
 6    1  0.1001928E-005  0.2343467E+04  0.7818608E-02  0.8460977E-01
          2   -1    0    0  501    0  0.00000000000E+00  0.00000000000E+00  0.14576977990E+04  0.14576977990E+04  0.00000000000E+00 0. -1.
         -2   -1    0    0    0  501 -0.00000000000E+00 -0.00000000000E+00 -0.94186812158E+03  0.94186812158E+03  0.00000000000E+00 0.  1.
         23    2    1    2    0    0  0.17124991030E+03  0.98066466078E+03 -0.37101486232E+03  0.10663281524E+04  0.91509518434E+02 0.  0.
         13    1    3    3    0    0  0.15855353631E+03  0.94731462985E+03 -0.37350065687E+03  0.10305566324E+04  0.00000000000E+00 0. -1.
        -13    1    3    3    0    0  0.12696373986E+02  0.33350030931E+02  0.24857945506E+01  0.35771520097E+02  0.00000000000E+00 0.  1.
         22    1    1    2    0    0 -0.17124991030E+03 -0.98066466078E+03  0.88684453972E+03  0.13332377681E+04  0.00000000000E+00 0. -1.
<mgrwt>
<rscale>  0 0.23434667E+04</rscale>
<asrwt>0</asrwt>
<pdfrwt beam="1">  1        2 0.22426120E+00 0.23434667E+04</pdfrwt>
<pdfrwt beam="2">  1       -2 0.14490279E+00 0.23434667E+04</pdfrwt>
<totfact> 0.39786228E+00</totfact>
</mgrwt>
</event>
<event>
 6    1  0.1001928E-005  0.9456328E+03  0.7818608E-02  0.9370270E-01
         -1   -1    0    0    0  501 -0.00000000000E+00  0.00000000000E+00  0.53411022429E+03  0.53411022429E+03  0.00000000000E+00 0.  1.
          1   -1    0    0  501    0  0.00000000000E+00 -0.00000000000E+00 -0.41855655778E+03  0.41855655778E+03  0.00000000000E+00 0. -1.
         23    2    1    2    0    0  0.36940777745E+03  0.13975820796E+03  0.31252778884E+03  0.51131287918E+03  0.88163364771E+02 0.  0.
         13    1    3    3    0    0  0.24624432975E+03  0.13619815063E+03  0.22159600726E+03  0.35817732564E+03  0.00000000000E+00 0. -1.
        -13    1    3    3    0    0  0.12316344770E+03  0.35600573309E+01  0.90931781581E+02  0.15313555354E+03  0.00000000000E+00 0.  1.
         22    1    1    2    0    0 -0.36940777745E+03 -0.13975820796E+03 -0.19697412232E+03  0.44135390289E+03  0.00000000000E+00 0. -1.
<mgrwt>
<rscale>  0 0.94563278E+03</rscale>
<asrwt>0</asrwt>
<pdfrwt beam="1">  1        1 0.64393317E-01 0.94563278E+03</pdfrwt>
<pdfrwt beam="2">  1       -1 0.82170804E-01 0.94563278E+03</pdfrwt>
<totfact> 0.83688261E+01</totfact>
</mgrwt>
</event>
<event>
 6    1  0.1001928E-005  0.3701344E+04  0.7818608E-02  0.8067664E-01
         -1   -1    0    0    0  501 -0.00000000000E+00  0.00000000000E+00  0.14224626666E+04  0.14224626666E+04  0.00000000000E+00 0.  1.
          1   -1    0    0  501    0  0.00000000000E+00 -0.00000000000E+00 -0.24077872089E+04  0.24077872089E+04  0.00000000000E+00 0. -1.
         23    2    1    2    0    0  0.62024428774E+03 -0.26880492847E+03 -0.22744896801E+04  0.23746036895E+04  0.92088605889E+02 0.  0.
         13    1    3    3    0    0  0.55344491073E+03 -0.20680433678E+03 -0.19470427923E+04  0.20347100378E+04  0.00000000000E+00 0. -1.
        -13    1    3    3    0    0  0.66799377014E+02 -0.62000591687E+02 -0.32744688783E+03  0.33989365173E+03  0.00000000000E+00 0.  1.
         22    1    1    2    0    0 -0.62024428774E+03  0.26880492847E+03  0.12891651378E+04  0.14556461859E+04  0.00000000000E+00 0.  1.
<mgrwt>
<rscale>  0 0.37013443E+04</rscale>
<asrwt>0</asrwt>
<pdfrwt beam="1">  1        1 0.37042880E+00 0.37013443E+04</pdfrwt>
<pdfrwt beam="2">  1       -1 0.21884041E+00 0.37013443E+04</pdfrwt>
<totfact> 0.14104029E-01</totfact>
</mgrwt>
</event>
<event>
 6    1  0.1001928E-005  0.1808825E+04  0.7818608E-02  0.8701620E-01
         -1   -1    0    0    0  501 -0.00000000000E+00  0.00000000000E+00  0.69889104366E+03  0.69889104366E+03  0.00000000000E+00 0.  1.
          1   -1    0    0  501    0  0.00000000000E+00 -0.00000000000E+00 -0.11703717349E+04  0.11703717349E+04  0.00000000000E+00 0. -1.
         23    2    1    2    0    0  0.75232670849E+03 -0.13888131874E+02 -0.75045269744E+03  0.10667581140E+04  0.92764573388E+02 0.  0.
         13    1    3    3    0    0  0.21070161067E+03 -0.10215555830E+01 -0.27116727788E+03  0.34340632625E+03  0.00000000000E+00 0. -1.
        -13    1    3    3    0    0  0.54162509782E+03 -0.12866576291E+02 -0.47928541956E+03  0.72335178771E+03  0.00000000000E+00 0.  1.
         22    1    1    2    0    0 -0.75232670849E+03  0.13888131874E+02  0.27897200618E+03  0.80250466463E+03  0.00000000000E+00 0.  1.
<mgrwt>
<rscale>  0 0.18088254E+04</rscale>
<asrwt>0</asrwt>
<pdfrwt beam="1">  1        1 0.18005719E+00 0.18088254E+04</pdfrwt>
<pdfrwt beam="2">  1       -1 0.10752170E+00 0.18088254E+04</pdfrwt>
<totfact> 0.85325668E+00</totfact>
</mgrwt>
</event>
<event>
 6    1  0.1001928E-005  0.2013042E+04  0.7818608E-02  0.8600548E-01
          2   -1    0    0  501    0  0.00000000000E+00  0.00000000000E+00  0.22096507204E+04  0.22096507204E+04  0.00000000000E+00 0. -1.
         -2   -1    0    0    0  501 -0.00000000000E+00 -0.00000000000E+00 -0.45848152769E+03  0.45848152769E+03  0.00000000000E+00 0.  1.
         23    2    1    2    0    0 -0.33759945834E+03  0.54433287461E+03  0.19029150554E+04  0.20098781334E+04  0.90844540606E+02 0.  0.
         13    1    3    3    0    0 -0.13375105313E+03  0.29729603736E+03  0.10050264517E+04  0.10565758121E+04  0.00000000000E+00 0.  1.
        -13    1    3    3    0    0 -0.20384840521E+03  0.24703683726E+03  0.89788860363E+03  0.95330232130E+03  0.00000000000E+00 0. -1.
         22    1    1    2    0    0  0.33759945834E+03 -0.54433287461E+03 -0.15174586266E+03  0.65825411468E+03  0.00000000000E+00 0.  1.
<mgrwt>
<rscale>  0 0.20130415E+04</rscale>
<asrwt>0</asrwt>
<pdfrwt beam="1">  1        2 0.33994626E+00 0.20130415E+04</pdfrwt>
<pdfrwt beam="2">  1       -2 0.70535621E-01 0.20130415E+04</pdfrwt>
<totfact> 0.86526340E+00</totfact>
</mgrwt>
</event>
<event>
 6    1  0.1001928E-005  0.3873816E+04  0.7818608E-02  0.8030497E-01
         -2   -1    0    0    0  501 -0.00000000000E+00  0.00000000000E+00  0.12095776512E+04  0.12095776512E+04  0.00000000000E+00 0.  1.
          2   -1    0    0  501    0  0.00000000000E+00 -0.00000000000E+00 -0.31015894513E+04  0.31015894513E+04  0.00000000000E+00 0. -1.
         23    2    1    2    0    0 -0.12139710685E+04 -0.72130850099E+03 -0.24201036309E+04  0.28035555177E+04  0.94922325124E+02 0.  0.
         13    1    3    3    0    0 -0.73053523655E+03 -0.40608739471E+03 -0.13516581856E+04  0.15892037486E+04  0.00000000000E+00 0.  1.
        -13    1    3    3    0    0 -0.48343583195E+03 -0.31522110629E+03 -0.10684454453E+04  0.12143517691E+04  0.00000000000E+00 0. -1.
         22    1    1    2    0    0  0.12139710685E+04  0.72130850099E+03  0.52809183079E+03  0.15076115848E+04  0.00000000000E+00 0.  1.
<mgrwt>
<rscale>  0 0.38738164E+04</rscale>
<asrwt>0</asrwt>
<pdfrwt beam="1">  1        2 0.47716761E+00 0.38738164E+04</pdfrwt>
<pdfrwt beam="2">  1       -2 0.18608887E+00 0.38738164E+04</pdfrwt>
<totfact> 0.19693017E-01</totfact>
</mgrwt>
</event>
<event>
 6    1  0.1001928E-005  0.2432545E+04  0.7818608E-02  0.8427419E-01
          1   -1    0    0  501    0  0.00000000000E+00  0.00000000000E+00  0.12138811776E+04  0.12138811776E+04  0.00000000000E+00 0. -1.
         -1   -1    0    0    0  501 -0.00000000000E+00 -0.00000000000E+00 -0.12186686236E+04  0.12186686236E+04  0.00000000000E+00 0.  1.
         23    2    1    2    0    0  0.11180735144E+04  0.45732925624E+03  0.12424227841E+03  0.12176888618E+04  0.89953255562E+02 0.  0.
         13    1    3    3    0    0  0.38656572108E+03  0.19452884899E+03  0.71500840121E+02  0.43861931095E+03  0.00000000000E+00 0.  1.
        -13    1    3    3    0    0  0.73150779335E+03  0.26280040725E+03  0.52741438293E+02  0.77906955087E+03  0.00000000000E+00 0. -1.
         22    1    1    2    0    0 -0.11180735144E+04 -0.45732925624E+03 -0.12902972438E+03  0.12148609394E+04  0.00000000000E+00 0. -1.
<mgrwt>
<rscale>  0 0.24325451E+04</rscale>
<asrwt>0</asrwt>
<pdfrwt beam="1">  1        1 0.18675095E+00 0.24325451E+04</pdfrwt>
<pdfrwt beam="2">  1       -1 0.18748748E+00 0.24325451E+04</pdfrwt>
<totfact> 0.17169318E+00</totfact>
</mgrwt>
</event>
<event>
 6    1  0.1001928E-005  0.2054700E+04  0.7818608E-02  0.8581465E-01
         -1   -1    0    0    0  501 -0.00000000000E+00  0.00000000000E+00  0.70309524077E+03  0.70309524077E+03  0.00000000000E+00 0.  1.
          1   -1    0    0  501    0  0.00000000000E+00 -0.00000000000E+00 -0.15011448393E+04  0.15011448393E+04  0.00000000000E+00 0. -1.
         23    2    1    2    0    0  0.89366958009E+03 -0.10350063743E+03  0.12788116171E+03  0.91323060176E+03  0.90988131859E+02 0.  0.
         13    1    3    3    0    0  0.58743372477E+03 -0.24373826552E+02  0.82941307409E+02  0.59376066297E+03  0.00000000000E+00 0.  1.
        -13    1    3    3    0    0  0.30623585532E+03 -0.79126810876E+02  0.44939854306E+02  0.31946993879E+03  0.00000000000E+00 0. -1.
         22    1    1    2    0    0 -0.89366958009E+03  0.10350063743E+03 -0.92593076028E+03  0.12910094783E+04  0.00000000000E+00 0. -1.
<mgrwt>
<rscale>  0 0.20546998E+04</rscale>
<asrwt>0</asrwt>
<pdfrwt beam="1">  1        1 0.23094536E+00 0.20546998E+04</pdfrwt>
<pdfrwt beam="2">  1       -1 0.10816850E+00 0.20546998E+04</pdfrwt>
<totfact> 0.47870432E+00</totfact>
</mgrwt>
</event>
<event>
 6    1  0.1001928E-005  0.3173670E+04  0.7818608E-02  0.8195806E-01
          2   -1    0    0  501    0  0.00000000000E+00  0.00000000000E+00  0.14137593997E+04  0.14137593997E+04  0.00000000000E+00 0. -1.
         -2   -1    0    0    0  501 -0.00000000000E+00 -0.00000000000E+00 -0.17810983605E+04  0.17810983605E+04  0.00000000000E+00 0.  1.
         23    2    1    2    0    0  0.91738259483E+03  0.59776426471E+03 -0.13381887627E+04  0.17314841650E+04  0.91516705486E+02 0.  0.
         11    1    3    3    0    0  0.57113183992E+03  0.42097698584E+03 -0.83988053351E+03  0.10994601001E+04  0.00000000000E+00 0. -1.
        -11    1    3    3    0    0  0.34625075490E+03  0.17678727887E+03 -0.49830822921E+03  0.63202406484E+03  0.00000000000E+00 0.  1.
         22    1    1    2    0    0 -0.91738259483E+03 -0.59776426471E+03  0.97084980195E+03  0.14633735953E+04  0.00000000000E+00 0. -1.
<mgrwt>
<rscale>  0 0.31736695E+04</rscale>
<asrwt>0</asrwt>
<pdfrwt beam="1">  1        2 0.21750145E+00 0.31736695E+04</pdfrwt>
<pdfrwt beam="2">  1       -2 0.27401513E+00 0.31736695E+04</pdfrwt>
<totfact> 0.54930341E-01</totfact>
</mgrwt>
</event>
<event>
 6    1  0.1001928E-005  0.1781840E+04  0.7818608E-02  0.8716017E-01
          1   -1    0    0  501    0  0.00000000000E+00  0.00000000000E+00  0.13136753654E+04  0.13136753654E+04  0.00000000000E+00 0. -1.
         -1   -1    0    0    0  501 -0.00000000000E+00 -0.00000000000E+00 -0.60421176213E+03  0.60421176213E+03  0.00000000000E+00 0.  1.
         23    2    1    2    0    0 -0.26865691401E+03  0.71494984768E+03  0.84454028238E+03  0.11422741240E+04  0.90620436723E+02 0.  0.
         11    1    3    3    0    0 -0.15425297777E+03  0.47911133447E+03  0.50119105449E+03  0.71030565608E+03  0.00000000000E+00 0.  1.
        -11    1    3    3    0    0 -0.11440393624E+03  0.23583851322E+03  0.34334922789E+03  0.43196846787E+03  0.00000000000E+00 0. -1.
         22    1    1    2    0    0  0.26865691401E+03 -0.71494984768E+03 -0.13507667906E+03  0.77561300361E+03  0.00000000000E+00 0.  1.
<mgrwt>
<rscale>  0 0.17818396E+04</rscale>
<asrwt>0</asrwt>
<pdfrwt beam="1">  1        1 0.20210390E+00 0.17818396E+04</pdfrwt>
<pdfrwt beam="2">  1       -1 0.92955656E-01 0.17818396E+04</pdfrwt>
<totfact> 0.93975229E+00</totfact>
</mgrwt>
</event>
<event>
 6    1  0.1001928E-005  0.2737659E+04  0.7818608E-02  0.8322888E-01
         -2   -1    0    0    0  501 -0.00000000000E+00  0.00000000000E+00  0.89933562991E+03  0.89933562991E+03  0.00000000000E+00 0.  1.
          2   -1    0    0  501    0  0.00000000000E+00 -0.00000000000E+00 -0.20834205278E+04  0.20834205278E+04  0.00000000000E+00 0. -1.
         23    2    1    2    0    0 -0.16285479981E+03 -0.11594330073E+04  0.17683571218E+03  0.11875092412E+04  0.90004137258E+02 0.  0.
         11    1    3    3    0    0 -0.11446373839E+03 -0.83274515723E+03  0.85820260074E+02  0.84494470904E+03  0.00000000000E+00 0. -1.
        -11    1    3    3    0    0 -0.48391061425E+02 -0.32668785006E+03  0.91015452103E+02  0.34256453220E+03  0.00000000000E+00 0.  1.
         22    1    1    2    0    0  0.16285479981E+03  0.11594330073E+04 -0.13609206101E+04  0.17952469165E+04  0.00000000000E+00 0. -1.
<mgrwt>
<rscale>  0 0.27376591E+04</rscale>
<asrwt>0</asrwt>
<pdfrwt beam="1">  1        2 0.32052623E+00 0.27376591E+04</pdfrwt>
<pdfrwt beam="2">  1       -2 0.13835933E+00 0.27376591E+04</pdfrwt>
<totfact> 0.19441883E+00</totfact>
</mgrwt>
</event>
<event>
 6    1  0.1001928E-005  0.2197118E+04  0.7818608E-02  0.8519629E-01
          2   -1    0    0  501    0  0.00000000000E+00  0.00000000000E+00  0.15719021411E+04  0.15719021411E+04  0.00000000000E+00 0. -1.
         -2   -1    0    0    0  501 -0.00000000000E+00 -0.00000000000E+00 -0.76775233472E+03  0.76775233472E+03  0.00000000000E+00 0.  1.
         23    2    1    2    0    0  0.65990107906E+03  0.44249176373E+03 -0.40214358455E+03  0.89521266663E+03  0.91748900738E+02 0.  0.
         13    1    3    3    0    0  0.38144163602E+02  0.29690712314E+02 -0.19641400362E+01  0.48377406511E+02  0.00000000000E+00 0.  1.
        -13    1    3    3    0    0  0.62175691546E+03  0.41280105142E+03 -0.40017944452E+03  0.84683526012E+03  0.00000000000E+00 0. -1.
         22    1    1    2    0    0 -0.65990107906E+03 -0.44249176373E+03  0.12062933909E+04  0.14444418092E+04  0.00000000000E+00 0. -1.
<mgrwt>
<rscale>  0 0.21971177E+04</rscale>
<asrwt>0</asrwt>
<pdfrwt beam="1">  1        2 0.24183110E+00 0.21971177E+04</pdfrwt>
<pdfrwt beam="2">  1       -2 0.11811574E+00 0.21971177E+04</pdfrwt>
<totfact> 0.58395215E+00</totfact>
</mgrwt>
</event>
<event>
 6    1  0.1001928E-005  0.2092797E+04  0.7818608E-02  0.8564423E-01
         -2   -1    0    0    0  501 -0.00000000000E+00  0.00000000000E+00  0.12812241041E+04  0.12812241041E+04  0.00000000000E+00 0.  1.
          2   -1    0    0  501    0  0.00000000000E+00 -0.00000000000E+00 -0.85461212287E+03  0.85461212287E+03  0.00000000000E+00 0. -1.
         23    2    1    2    0    0  0.81135070794E+03  0.40298695333E+03 -0.31680044273E+03  0.96393585241E+03  0.90118539766E+02 0.  0.
         11    1    3    3    0    0  0.20770417929E+03  0.10078979173E+03 -0.12307601916E+03  0.26162437712E+03  0.00000000000E+00 0.  1.
        -11    1    3    3    0    0  0.60364652865E+03  0.30219716160E+03 -0.19372442358E+03  0.70231147528E+03  0.00000000000E+00 0. -1.
         22    1    1    2    0    0 -0.81135070794E+03 -0.40298695333E+03  0.74341242399E+03  0.11719003746E+04  0.00000000000E+00 0.  1.
<mgrwt>
<rscale>  0 0.20927968E+04</rscale>
<asrwt>0</asrwt>
<pdfrwt beam="1">  1        2 0.13147879E+00 0.20927968E+04</pdfrwt>
<pdfrwt beam="2">  1       -2 0.19711140E+00 0.20927968E+04</pdfrwt>
<totfact> 0.40351439E+00</totfact>
</mgrwt>
</event>
<event>
 6    1  0.1001928E-005  0.1287059E+04  0.7818608E-02  0.9039891E-01
         -2   -1    0    0    0  501 -0.00000000000E+00  0.00000000000E+00  0.51620324930E+03  0.51620324930E+03  0.00000000000E+00 0.  1.
          2   -1    0    0  501    0  0.00000000000E+00 -0.00000000000E+00 -0.80226158824E+03  0.80226158824E+03  0.00000000000E+00 0. -1.
         23    2    1    2    0    0  0.14805745030E+03  0.88143609454E+02  0.48788642252E+03  0.52557089869E+03  0.92202515138E+02 0.  0.
         11    1    3    3    0    0  0.69442312669E+01  0.10932555628E+02  0.15827168090E+03  0.15880071818E+03  0.00000000000E+00 0.  1.
        -11    1    3    3    0    0  0.14111321903E+03  0.77211053826E+02  0.32961474162E+03  0.36677018051E+03  0.00000000000E+00 0. -1.
         22    1    1    2    0    0 -0.14805745030E+03 -0.88143609454E+02 -0.77394476146E+03  0.79289393885E+03  0.00000000000E+00 0. -1.
<mgrwt>
<rscale>  0 0.12870587E+04</rscale>
<asrwt>0</asrwt>
<pdfrwt beam="1">  1        2 0.12342486E+00 0.12870587E+04</pdfrwt>
<pdfrwt beam="2">  1       -2 0.79415885E-01 0.12870587E+04</pdfrwt>
<totfact> 0.47330075E+01</totfact>
</mgrwt>
</event>
<event>
 6    1  0.1001928E-005  0.2422803E+04  0.7818608E-02  0.8431015E-01
          1   -1    0    0  501    0  0.00000000000E+00  0.00000000000E+00  0.13103418749E+04  0.13103418749E+04  0.00000000000E+00 0. -1.
         -1   -1    0    0    0  501 -0.00000000000E+00 -0.00000000000E+00 -0.11199321265E+04  0.11199321265E+04  0.00000000000E+00 0.  1.
         23    2    1    2    0    0  0.14636402320E+03 -0.10414552900E+04  0.69432554882E+03  0.12640910473E+04  0.98927547301E+02 0.  0.
         13    1    3    3    0    0  0.10807001394E+03 -0.75771382381E+03  0.45119550013E+03  0.88847439246E+03  0.00000000000E+00 0. -1.
        -13    1    3    3    0    0  0.38294009256E+02 -0.28374146622E+03  0.24313004868E+03  0.37561665481E+03  0.00000000000E+00 0.  1.
         22    1    1    2    0    0 -0.14636402320E+03  0.10414552900E+04 -0.50391580045E+03  0.11661829541E+04  0.00000000000E+00 0. -1.
<mgrwt>
<rscale>  0 0.24228033E+04</rscale>
<asrwt>0</asrwt>
<pdfrwt beam="1">  1        1 0.20159106E+00 0.24228033E+04</pdfrwt>
<pdfrwt beam="2">  1       -1 0.17229725E+00 0.24228033E+04</pdfrwt>
<totfact> 0.18826827E+00</totfact>
</mgrwt>
</event>
<event>
 6    1  0.1001928E-005  0.1746760E+04  0.7818608E-02  0.8735136E-01
         -2   -1    0    0    0  501 -0.00000000000E+00  0.00000000000E+00  0.11024156263E+04  0.11024156263E+04  0.00000000000E+00 0.  1.
          2   -1    0    0  501    0  0.00000000000E+00 -0.00000000000E+00 -0.69192806752E+03  0.69192806752E+03  0.00000000000E+00 0. -1.
         23    2    1    2    0    0 -0.14691368837E+03  0.49793419352E+03  0.92417956587E+03  0.10640002329E+04  0.92013763474E+02 0.  0.
         11    1    3    3    0    0  0.34065120471E+01  0.12013643100E+03  0.22987438522E+03  0.25939660629E+03  0.00000000000E+00 0. -1.
        -11    1    3    3    0    0 -0.15032020041E+03  0.37779776252E+03  0.69430518065E+03  0.80460362657E+03  0.00000000000E+00 0.  1.
         22    1    1    2    0    0  0.14691368837E+03 -0.49793419352E+03 -0.51369200704E+03  0.73034346099E+03  0.00000000000E+00 0. -1.
<mgrwt>
<rscale>  0 0.17467596E+04</rscale>
<asrwt>0</asrwt>
<pdfrwt beam="1">  1        2 0.10645047E+00 0.17467596E+04</pdfrwt>
<pdfrwt beam="2">  1       -2 0.16960240E+00 0.17467596E+04</pdfrwt>
<totfact> 0.84506205E+00</totfact>
</mgrwt>
</event>
<event>
 6    1  0.1001928E-005  0.2976688E+04  0.7818608E-02  0.8250419E-01
         -2   -1    0    0    0  501 -0.00000000000E+00  0.00000000000E+00  0.21661238281E+04  0.21661238281E+04  0.00000000000E+00 0.  1.
          2   -1    0    0  501    0  0.00000000000E+00 -0.00000000000E+00 -0.10226415533E+04  0.10226415533E+04  0.00000000000E+00 0. -1.
         23    2    1    2    0    0 -0.58756096300E+03 -0.40290994323E+02 -0.89036604321E+03  0.10713636174E+04  0.90648002678E+02 0.  0.
         13    1    3    3    0    0 -0.15448194625E+03  0.28725391204E+02 -0.22270524333E+03  0.27255723293E+03  0.00000000000E+00 0.  1.
        -13    1    3    3    0    0 -0.43307901675E+03 -0.69016385527E+02 -0.66766079988E+03  0.79880638450E+03  0.00000000000E+00 0. -1.
         22    1    1    2    0    0  0.58756096300E+03  0.40290994323E+02  0.20338483180E+04  0.21174017639E+04  0.00000000000E+00 0.  1.
<mgrwt>
<rscale>  0 0.29766883E+04</rscale>
<asrwt>0</asrwt>
<pdfrwt beam="1">  1        2 0.15732947E+00 0.29766883E+04</pdfrwt>
<pdfrwt beam="2">  1       -2 0.33324982E+00 0.29766883E+04</pdfrwt>
<totfact> 0.41391894E-01</totfact>
</mgrwt>
</event>
<event>
 6    1  0.1001928E-005  0.7333355E+03  0.7818608E-02  0.9661863E-01
          1   -1    0    0  501    0  0.00000000000E+00  0.00000000000E+00  0.18220018403E+04  0.18220018403E+04  0.00000000000E+00 0. -1.
         -1   -1    0    0    0  501 -0.00000000000E+00 -0.00000000000E+00 -0.73789857035E+02  0.73789857035E+02  0.00000000000E+00 0.  1.
         23    2    1    2    0    0 -0.33611209192E+02 -0.18231023473E+03  0.16884373375E+04  0.17010104268E+04  0.90824525094E+02 0.  0.
         11    1    3    3    0    0 -0.24927118531E+02 -0.19188877331E+03  0.15795440826E+04  0.15913523090E+04  0.00000000000E+00 0.  1.
        -11    1    3    3    0    0 -0.86840906612E+01  0.95785385831E+01  0.10889325485E+03  0.10965811773E+03  0.00000000000E+00 0. -1.
         22    1    1    2    0    0  0.33611209192E+02  0.18231023473E+03  0.59774645757E+02  0.19478127052E+03  0.00000000000E+00 0.  1.
<mgrwt>
<rscale>  0 0.73333554E+03</rscale>
<asrwt>0</asrwt>
<pdfrwt beam="1">  1        1 0.28030794E+00 0.73333554E+03</pdfrwt>
<pdfrwt beam="2">  1       -1 0.11352287E-01 0.73333554E+03</pdfrwt>
<totfact> 0.20834748E+02</totfact>
</mgrwt>
</event>
<event>
 6    1  0.1001928E-005  0.3154887E+04  0.7818608E-02  0.8200834E-01
         -2   -1    0    0    0  501 -0.00000000000E+00  0.00000000000E+00  0.10067925567E+04  0.10067925567E+04  0.00000000000E+00 0.  1.
          2   -1    0    0  501    0  0.00000000000E+00 -0.00000000000E+00 -0.24715395892E+04  0.24715395892E+04  0.00000000000E+00 0. -1.
         23    2    1    2    0    0  0.13769465303E+04 -0.72937688568E+03 -0.47149522166E+03  0.16304897423E+04  0.90645832204E+02 0.  0.
         11    1    3    3    0    0  0.65280350937E+03 -0.29673263884E+03 -0.20339324257E+03  0.74536668286E+03  0.00000000000E+00 0. -1.
        -11    1    3    3    0    0  0.72414302094E+03 -0.43264424684E+03 -0.26810197909E+03  0.88512305941E+03  0.00000000000E+00 0.  1.
         22    1    1    2    0    0 -0.13769465303E+04  0.72937688568E+03 -0.99325181085E+03  0.18478424036E+04  0.00000000000E+00 0.  1.
<mgrwt>
<rscale>  0 0.31548868E+04</rscale>
<asrwt>0</asrwt>
<pdfrwt beam="1">  1        2 0.38023686E+00 0.31548868E+04</pdfrwt>
<pdfrwt beam="2">  1       -2 0.15489116E+00 0.31548868E+04</pdfrwt>
<totfact> 0.84038969E-01</totfact>
</mgrwt>
</event>
<event>
 6    1  0.1001928E-005  0.2642188E+04  0.7818608E-02  0.8354011E-01
          1   -1    0    0  501    0  0.00000000000E+00  0.00000000000E+00  0.85667146428E+03  0.85667146428E+03  0.00000000000E+00 0. -1.
         -1   -1    0    0    0  501 -0.00000000000E+00 -0.00000000000E+00 -0.20372906587E+04  0.20372906587E+04  0.00000000000E+00 0.  1.
         23    2    1    2    0    0 -0.67322170840E+03 -0.45066416510E+03  0.54970373345E+03  0.98337501607E+03  0.92339424386E+02 0.  0.
         11    1    3    3    0    0 -0.45670844566E+03 -0.34496590238E+03  0.35406293219E+03  0.67301161809E+03  0.00000000000E+00 0. -1.
        -11    1    3    3    0    0 -0.21651326275E+03 -0.10569826272E+03  0.19564080126E+03  0.31036339798E+03  0.00000000000E+00 0.  1.
         22    1    1    2    0    0  0.67322170840E+03  0.45066416510E+03 -0.17303229279E+04  0.19105871069E+04  0.00000000000E+00 0.  1.
<mgrwt>
<rscale>  0 0.26421876E+04</rscale>
<asrwt>0</asrwt>
<pdfrwt beam="1">  1        1 0.13179561E+00 0.26421876E+04</pdfrwt>
<pdfrwt beam="2">  1       -1 0.31342933E+00 0.26421876E+04</pdfrwt>
<totfact> 0.46863681E-01</totfact>
</mgrwt>
</event>
<event>
 6    1  0.1001928E-005  0.4910881E+04  0.7818608E-02  0.7842404E-01
         -1   -1    0    0    0  501 -0.00000000000E+00  0.00000000000E+00  0.24414316956E+04  0.24414316956E+04  0.00000000000E+00 0.  1.
          1   -1    0    0  501    0  0.00000000000E+00 -0.00000000000E+00 -0.24695301050E+04  0.24695301050E+04  0.00000000000E+00 0. -1.
         23    2    1    2    0    0 -0.52777307018E+03  0.17919555251E+03 -0.24045592104E+04  0.24700149764E+04  0.91725282225E+02 0.  0.
         13    1    3    3    0    0 -0.38165917296E+03  0.15384311538E+03 -0.16114471995E+04  0.16631576910E+04  0.00000000000E+00 0. -1.
        -13    1    3    3    0    0 -0.14611389722E+03  0.25352437124E+02 -0.79311201100E+03  0.80685728541E+03  0.00000000000E+00 0.  1.
         22    1    1    2    0    0  0.52777307018E+03 -0.17919555251E+03  0.23764608010E+04  0.24409468242E+04  0.00000000000E+00 0.  1.
<mgrwt>
<rscale>  0 0.49108814E+04</rscale>
<asrwt>0</asrwt>
<pdfrwt beam="1">  1        1 0.37992771E+00 0.49108814E+04</pdfrwt>
<pdfrwt beam="2">  1       -1 0.37560487E+00 0.49108814E+04</pdfrwt>
<totfact> 0.10835104E-02</totfact>
</mgrwt>
</event>
<event>
 6    1  0.1001928E-005  0.2122542E+04  0.7818608E-02  0.8551378E-01
         -1   -1    0    0    0  501 -0.00000000000E+00  0.00000000000E+00  0.74599288054E+03  0.74599288054E+03  0.00000000000E+00 0.  1.
          1   -1    0    0  501    0  0.00000000000E+00 -0.00000000000E+00 -0.15097941787E+04  0.15097941787E+04  0.00000000000E+00 0. -1.
         23    2    1    2    0    0  0.58762914145E+03 -0.84508035298E+03 -0.64890492369E+03  0.12200892327E+04  0.89840553298E+02 0.  0.
         13    1    3    3    0    0  0.42681376332E+03 -0.67178085485E+03 -0.47862435335E+03  0.92873073446E+03  0.00000000000E+00 0. -1.
        -13    1    3    3    0    0  0.16081537812E+03 -0.17329949812E+03 -0.17028057033E+03  0.29135849829E+03  0.00000000000E+00 0.  1.
         22    1    1    2    0    0 -0.58762914145E+03  0.84508035298E+03 -0.11489637443E+03  0.10356978265E+04  0.00000000000E+00 0.  1.
<mgrwt>
<rscale>  0 0.21225416E+04</rscale>
<asrwt>0</asrwt>
<pdfrwt beam="1">  1        1 0.23227603E+00 0.21225416E+04</pdfrwt>
<pdfrwt beam="2">  1       -1 0.11476814E+00 0.21225416E+04</pdfrwt>
<totfact> 0.40771782E+00</totfact>
</mgrwt>
</event>
<event>
 6    1  0.1001928E-005  0.8379921E+03  0.7818608E-02  0.9506597E-01
          1   -1    0    0  501    0  0.00000000000E+00  0.00000000000E+00  0.34221566744E+04  0.34221566744E+04  0.00000000000E+00 0. -1.
         -1   -1    0    0    0  501 -0.00000000000E+00 -0.00000000000E+00 -0.51300302437E+02  0.51300302437E+02  0.00000000000E+00 0.  1.
         23    2    1    2    0    0 -0.18368379654E+03 -0.29470575480E+03  0.26405118762E+04  0.26647578353E+04  0.89666791083E+02 0.  0.
         13    1    3    3    0    0 -0.14932105087E+03 -0.28503167180E+03  0.23048311471E+04  0.23271842313E+04  0.00000000000E+00 0. -1.
        -13    1    3    3    0    0 -0.34362745673E+02 -0.96740829963E+01  0.33568072919E+03  0.33757360400E+03  0.00000000000E+00 0.  1.
         22    1    1    2    0    0  0.18368379654E+03  0.29470575480E+03  0.73034449572E+03  0.80869914149E+03  0.00000000000E+00 0.  1.
<mgrwt>
<rscale>  0 0.83799206E+03</rscale>
<asrwt>0</asrwt>
<pdfrwt beam="1">  1        1 0.52648546E+00 0.83799206E+03</pdfrwt>
<pdfrwt beam="2">  1       -1 0.78923569E-02 0.83799206E+03</pdfrwt>
<totfact> 0.27905010E+01</totfact>
</mgrwt>
</event>
<event>
 6    1  0.1001928E-005  0.3537776E+04  0.7818608E-02  0.8104895E-01
         -1   -1    0    0    0  501 -0.00000000000E+00  0.00000000000E+00  0.27398612799E+04  0.27398612799E+04  0.00000000000E+00 0.  1.
          1   -1    0    0  501    0  0.00000000000E+00 -0.00000000000E+00 -0.11420159540E+04  0.11420159540E+04  0.00000000000E+00 0. -1.
         23    2    1    2    0    0 -0.77801946023E+03 -0.91249138758E+03 -0.62564782234E+03  0.13556395980E+04  0.91480649548E+02 0.  0.
         13    1    3    3    0    0 -0.19179409412E+03 -0.27686704322E+03 -0.14914692529E+03  0.36835463821E+03  0.00000000000E+00 0.  1.
        -13    1    3    3    0    0 -0.58622536611E+03 -0.63562434436E+03 -0.47650089705E+03  0.98728495983E+03  0.00000000000E+00 0. -1.
         22    1    1    2    0    0  0.77801946023E+03  0.91249138758E+03  0.22234931482E+04  0.25262376359E+04  0.00000000000E+00 0.  1.
<mgrwt>
<rscale>  0 0.35377763E+04</rscale>
<asrwt>0</asrwt>
<pdfrwt beam="1">  1        1 0.17569476E+00 0.35377763E+04</pdfrwt>
<pdfrwt beam="2">  1       -1 0.42151712E+00 0.35377763E+04</pdfrwt>
<totfact> 0.48767613E-02</totfact>
</mgrwt>
</event>
<event>
 6    1  0.1001928E-005  0.1115144E+04  0.7818608E-02  0.9190556E-01
         -2   -1    0    0    0  501 -0.00000000000E+00  0.00000000000E+00  0.31360915773E+03  0.31360915773E+03  0.00000000000E+00 0.  1.
          2   -1    0    0  501    0  0.00000000000E+00 -0.00000000000E+00 -0.99131887078E+03  0.99131887078E+03  0.00000000000E+00 0. -1.
         23    2    1    2    0    0  0.88102344917E+02 -0.53993972511E+03 -0.44251465948E+03  0.70943357585E+03  0.90442494169E+02 0.  0.
         13    1    3    3    0    0 -0.58456181433E+01 -0.21823536714E+03 -0.15339399243E+03  0.26681559856E+03  0.00000000000E+00 0. -1.
        -13    1    3    3    0    0  0.93947963061E+02 -0.32170435797E+03 -0.28912066705E+03  0.44261797729E+03  0.00000000000E+00 0.  1.
         22    1    1    2    0    0 -0.88102344917E+02  0.53993972511E+03 -0.23519505357E+03  0.59549445266E+03  0.00000000000E+00 0.  1.
<mgrwt>
<rscale>  0 0.11151443E+04</rscale>
<asrwt>0</asrwt>
<pdfrwt beam="1">  1        2 0.15251059E+00 0.11151443E+04</pdfrwt>
<pdfrwt beam="2">  1       -2 0.48247564E-01 0.11151443E+04</pdfrwt>
<totfact> 0.10297013E+02</totfact>
</mgrwt>
</event>
<event>
 6    1  0.1001928E-005  0.2001497E+04  0.7818608E-02  0.8605921E-01
          2   -1    0    0  501    0  0.00000000000E+00  0.00000000000E+00  0.28243383650E+04  0.28243383650E+04  0.00000000000E+00 0. -1.
         -2   -1    0    0    0  501 -0.00000000000E+00 -0.00000000000E+00 -0.35459541597E+03  0.35459541597E+03  0.00000000000E+00 0.  1.
         23    2    1    2    0    0  0.73235888338E+03 -0.56899611790E+03  0.64879208228E+03  0.11354152038E+04  0.90168745561E+02 0.  0.
         11    1    3    3    0    0  0.11985283077E+02 -0.96844443285E+01  0.28664183681E+02  0.32543369502E+02  0.00000000000E+00 0. -1.
        -11    1    3    3    0    0  0.72037360030E+03 -0.55931167357E+03  0.62012789860E+03  0.11028718343E+04  0.00000000000E+00 0.  1.
         22    1    1    2    0    0 -0.73235888338E+03  0.56899611790E+03  0.18209508667E+04  0.20435185772E+04  0.00000000000E+00 0. -1.
<mgrwt>
<rscale>  0 0.20014969E+04</rscale>
<asrwt>0</asrwt>
<pdfrwt beam="1">  1        2 0.43451358E+00 0.20014969E+04</pdfrwt>
<pdfrwt beam="2">  1       -2 0.54553143E-01 0.20014969E+04</pdfrwt>
<totfact> 0.65760840E+00</totfact>
</mgrwt>
</event>
<event>
 6    1  0.1001928E-005  0.1723433E+04  0.7818608E-02  0.8748111E-01
         -2   -1    0    0    0  501 -0.00000000000E+00  0.00000000000E+00  0.38216689622E+03  0.38216689622E+03  0.00000000000E+00 0.  1.
          2   -1    0    0  501    0  0.00000000000E+00 -0.00000000000E+00 -0.19430130072E+04  0.19430130072E+04  0.00000000000E+00 0. -1.
         23    2    1    2    0    0 -0.63090834519E+03  0.54432168847E+03 -0.10657455843E+04  0.13559245335E+04  0.91576468430E+02 0.  0.
         11    1    3    3    0    0 -0.18597351408E+03  0.11952366067E+03 -0.24111765963E+03  0.32712349225E+03  0.00000000000E+00 0. -1.
        -11    1    3    3    0    0 -0.44493483111E+03  0.42479802780E+03 -0.82462792471E+03  0.10288010413E+04  0.00000000000E+00 0.  1.
         22    1    1    2    0    0  0.63090834519E+03 -0.54432168847E+03 -0.49510052667E+03  0.96925536989E+03  0.00000000000E+00 0.  1.
<mgrwt>
<rscale>  0 0.17234329E+04</rscale>
<asrwt>0</asrwt>
<pdfrwt beam="1">  1        2 0.29892507E+00 0.17234329E+04</pdfrwt>
<pdfrwt beam="2">  1       -2 0.58794908E-01 0.17234329E+04</pdfrwt>
<totfact> 0.18454091E+01</totfact>
</mgrwt>
</event>
<event>
 6    1  0.1001928E-005  0.8544623E+03  0.7818608E-02  0.9484367E-01
         -2   -1    0    0    0  501 -0.00000000000E+00  0.00000000000E+00  0.13161449851E+03  0.13161449851E+03  0.00000000000E+00 0. -1.
          2   -1    0    0  501    0  0.00000000000E+00 -0.00000000000E+00 -0.13868263973E+04  0.13868263973E+04  0.00000000000E+00 0.  1.
         23    2    1    2    0    0 -0.12622208897E+03 -0.27591833693E+03 -0.11567369300E+04  0.11994420496E+04  0.92509246956E+02 0.  0.
         11    1    3    3    0    0 -0.57007878392E+02 -0.90253944194E+02 -0.57663594280E+03  0.58643386939E+03  0.00000000000E+00 0. -1.
        -11    1    3    3    0    0 -0.69214210582E+02 -0.18566439274E+03 -0.58010098721E+03  0.61300818024E+03  0.00000000000E+00 0.  1.
         22    1    1    2    0    0  0.12622208897E+03  0.27591833693E+03 -0.98474968807E+02  0.31899884621E+03  0.00000000000E+00 0. -1.
<mgrwt>
<rscale>  0 0.85446231E+03</rscale>
<asrwt>0</asrwt>
<pdfrwt beam="1">  1        2 0.21335791E+00 0.85446231E+03</pdfrwt>
<pdfrwt beam="2">  1       -2 0.20248384E-01 0.85446231E+03</pdfrwt>
<totfact> 0.30913587E+02</totfact>
</mgrwt>
</event>
<event>
 6    1  0.1001928E-005  0.2589336E+04  0.7818608E-02  0.8371832E-01
          2   -1    0    0  501    0  0.00000000000E+00  0.00000000000E+00  0.13476995390E+04  0.13476995390E+04  0.00000000000E+00 0. -1.
         -2   -1    0    0    0  501 -0.00000000000E+00 -0.00000000000E+00 -0.12437236510E+04  0.12437236510E+04  0.00000000000E+00 0.  1.
         23    2    1    2    0    0 -0.46067992616E+03 -0.89401826155E+02  0.12579191590E+04  0.13457090359E+04  0.91397580072E+02 0.  0.
         13    1    3    3    0    0 -0.17575047837E+03 -0.49351905346E+02  0.37466512720E+03  0.41677067885E+03  0.00000000000E+00 0.  1.
        -13    1    3    3    0    0 -0.28492944779E+03 -0.40049920809E+02  0.88325403185E+03  0.92893835702E+03  0.00000000000E+00 0. -1.
         22    1    1    2    0    0  0.46067992616E+03  0.89401826155E+02 -0.11539432710E+04  0.12457141541E+04  0.00000000000E+00 0.  1.
<mgrwt>
<rscale>  0 0.25893364E+04</rscale>
<asrwt>0</asrwt>
<pdfrwt beam="1">  1        2 0.20733839E+00 0.25893364E+04</pdfrwt>
<pdfrwt beam="2">  1       -2 0.19134210E+00 0.25893364E+04</pdfrwt>
<totfact> 0.20848314E+00</totfact>
</mgrwt>
</event>
<event>
 6    1  0.1001928E-005  0.1470552E+04  0.7818608E-02  0.8904275E-01
          2   -1    0    0  501    0  0.00000000000E+00  0.00000000000E+00  0.12438319734E+04  0.12438319734E+04  0.00000000000E+00 0.  1.
         -2   -1    0    0    0  501 -0.00000000000E+00 -0.00000000000E+00 -0.43464936782E+03  0.43464936782E+03  0.00000000000E+00 0. -1.
         23    2    1    2    0    0 -0.60234240414E+03 -0.78215449967E+02  0.87328725013E+03  0.10677085243E+04  0.91852289775E+02 0.  0.
         13    1    3    3    0    0 -0.33319388680E+03 -0.19195786925E+02  0.54544743632E+03  0.63945253946E+03  0.00000000000E+00 0. -1.
        -13    1    3    3    0    0 -0.26914851733E+03 -0.59019663042E+02  0.32783981381E+03  0.42825598481E+03  0.00000000000E+00 0.  1.
         22    1    1    2    0    0  0.60234240414E+03  0.78215449967E+02 -0.64104644573E+02  0.61077281692E+03  0.00000000000E+00 0. -1.
<mgrwt>
<rscale>  0 0.14705520E+04</rscale>
<asrwt>0</asrwt>
<pdfrwt beam="1">  1        2 0.19135876E+00 0.14705520E+04</pdfrwt>
<pdfrwt beam="2">  1       -2 0.66869134E-01 0.14705520E+04</pdfrwt>
<totfact> 0.35469064E+01</totfact>
</mgrwt>
</event>
<event>
 6    1  0.1001928E-005  0.5270052E+04  0.7818608E-02  0.7788148E-01
          2   -1    0    0  501    0  0.00000000000E+00  0.00000000000E+00  0.14113529096E+04  0.14113529096E+04  0.00000000000E+00 0. -1.
         -2   -1    0    0    0  501 -0.00000000000E+00 -0.00000000000E+00 -0.49196501455E+04  0.49196501455E+04  0.00000000000E+00 0.  1.
         23    2    1    2    0    0 -0.11562581285E+04  0.14922226365E+04 -0.39617799933E+04  0.43895325125E+04  0.92917742428E+02 0.  0.
         13    1    3    3    0    0 -0.27055929674E+03  0.28765460999E+03 -0.82236250509E+03  0.91226509167E+03  0.00000000000E+00 0. -1.
        -13    1    3    3    0    0 -0.88569883176E+03  0.12045680265E+04 -0.31394174882E+04  0.34772674209E+04  0.00000000000E+00 0.  1.
         22    1    1    2    0    0  0.11562581285E+04 -0.14922226365E+04  0.45348275734E+03  0.19414705426E+04  0.00000000000E+00 0. -1.
<mgrwt>
<rscale>  0 0.52700522E+04</rscale>
<asrwt>0</asrwt>
<pdfrwt beam="1">  1        2 0.21713121E+00 0.52700522E+04</pdfrwt>
<pdfrwt beam="2">  1       -2 0.75686926E+00 0.52700522E+04</pdfrwt>
<totfact> 0.13636214E-03</totfact>
</mgrwt>
</event>
<event>
 6    1  0.1004089E-005  0.3415034E+04  0.7818608E-02  0.8134226E-01
         -2   -1    0    0    0  501 -0.00000000000E+00  0.00000000000E+00  0.14731906882E+04  0.14731906882E+04  0.00000000000E+00 0.  1.
          2   -1    0    0  501    0  0.00000000000E+00 -0.00000000000E+00 -0.19791153104E+04  0.19791153104E+04  0.00000000000E+00 0. -1.
         23    2    1    2    0    0 -0.10864701537E+02 -0.42740866509E+03 -0.19230060646E+04  0.19721316768E+04  0.92492256757E+02 0.  0.
         13    1    3    3    0    0 -0.47861909526E+02 -0.31726954092E+03 -0.13741629067E+04  0.14111252312E+04  0.00000000000E+00 0.  1.
        -13    1    3    3    0    0  0.36997207989E+02 -0.11013912417E+03 -0.54884315789E+03  0.56100644563E+03  0.00000000000E+00 0. -1.
         22    1    1    2    0    0  0.10864701537E+02  0.42740866509E+03  0.14170814424E+04  0.14801743218E+04  0.00000000000E+00 0.  1.
<mgrwt>
<rscale>  0 0.34150340E+04</rscale>
<asrwt>0</asrwt>
<pdfrwt beam="1">  1        2 0.30447928E+00 0.34150340E+04</pdfrwt>
<pdfrwt beam="2">  1       -2 0.22664472E+00 0.34150340E+04</pdfrwt>
<totfact> 0.50960150E-01</totfact>
</mgrwt>
</event>
<event>
 6    1  0.1001928E-005  0.5019230E+04  0.7818608E-02  0.7825548E-01
          2   -1    0    0  501    0  0.00000000000E+00  0.00000000000E+00  0.20284507139E+04  0.20284507139E+04  0.00000000000E+00 0. -1.
         -2   -1    0    0    0  501 -0.00000000000E+00 -0.00000000000E+00 -0.31049153759E+04  0.31049153759E+04  0.00000000000E+00 0.  1.
         23    2    1    2    0    0  0.18957160459E+04 -0.13682280001E+04  0.39233872640E+03  0.23723571110E+04  0.91440684408E+02 0.  0.
         11    1    3    3    0    0  0.63992939626E+03 -0.43030732522E+03  0.94417190524E+02  0.77690966798E+03  0.00000000000E+00 0. -1.
        -11    1    3    3    0    0  0.12557866497E+04 -0.93792067490E+03  0.29792153587E+03  0.15954474430E+04  0.00000000000E+00 0.  1.
         22    1    1    2    0    0 -0.18957160459E+04  0.13682280001E+04 -0.14688033884E+04  0.27610089788E+04  0.00000000000E+00 0.  1.
<mgrwt>
<rscale>  0 0.50192301E+04</rscale>
<asrwt>0</asrwt>
<pdfrwt beam="1">  1        2 0.31206934E+00 0.50192301E+04</pdfrwt>
<pdfrwt beam="2">  1       -2 0.47767929E+00 0.50192301E+04</pdfrwt>
<totfact> 0.10755533E-02</totfact>
</mgrwt>
</event>
<event>
 6    1  0.1001928E-005  0.2869232E+04  0.7818608E-02  0.8282091E-01
          1   -1    0    0  501    0  0.00000000000E+00  0.00000000000E+00  0.15023846620E+04  0.15023846620E+04  0.00000000000E+00 0. -1.
         -1   -1    0    0    0  501 -0.00000000000E+00 -0.00000000000E+00 -0.13699038763E+04  0.13699038763E+04  0.00000000000E+00 0.  1.
         23    2    1    2    0    0  0.29064679576E+03  0.10356883033E+04  0.10146225628E+04  0.14811379583E+04  0.84763700928E+02 0.  0.
         11    1    3    3    0    0  0.21085035502E+03  0.86679968006E+03  0.84866674322E+03  0.12312736490E+04  0.00000000000E+00 0. -1.
        -11    1    3    3    0    0  0.79796440739E+02  0.16888862327E+03  0.16595581953E+03  0.24986430930E+03  0.00000000000E+00 0.  1.
         22    1    1    2    0    0 -0.29064679576E+03 -0.10356883033E+04 -0.88214177701E+03  0.13911505800E+04  0.00000000000E+00 0.  1.
<mgrwt>
<rscale>  0 0.28692317E+04</rscale>
<asrwt>0</asrwt>
<pdfrwt beam="1">  1        1 0.23113610E+00 0.28692317E+04</pdfrwt>
<pdfrwt beam="2">  1       -1 0.21075444E+00 0.28692317E+04</pdfrwt>
<totfact> 0.71259862E-01</totfact>
</mgrwt>
</event>
<event>
 6    1  0.1001928E-005  0.5599817E+04  0.7818608E-02  0.7742102E-01
          2   -1    0    0  501    0  0.00000000000E+00  0.00000000000E+00  0.34886295622E+04  0.34886295622E+04  0.00000000000E+00 0. -1.
         -2   -1    0    0    0  501 -0.00000000000E+00 -0.00000000000E+00 -0.22471536998E+04  0.22471536998E+04  0.00000000000E+00 0.  1.
         23    2    1    2    0    0  0.17063124141E+04 -0.10625961860E+04 -0.13743987411E+04  0.24367814962E+04  0.91211028992E+02 0.  0.
         13    1    3    3    0    0  0.29251091947E+03 -0.14548142186E+03 -0.23866590381E+03  0.40458484370E+03  0.00000000000E+00 0.  1.
        -13    1    3    3    0    0  0.14138014946E+04 -0.91711476417E+03 -0.11357328373E+04  0.20321966525E+04  0.00000000000E+00 0. -1.
         22    1    1    2    0    0 -0.17063124141E+04  0.10625961860E+04  0.26158746035E+04  0.32990017657E+04  0.00000000000E+00 0. -1.
<mgrwt>
<rscale>  0 0.55998167E+04</rscale>
<asrwt>0</asrwt>
<pdfrwt beam="1">  1        2 0.53671224E+00 0.55998167E+04</pdfrwt>
<pdfrwt beam="2">  1       -2 0.34571595E+00 0.55998167E+04</pdfrwt>
<totfact> 0.94993364E-03</totfact>
</mgrwt>
</event>
<event>
 6    1  0.1001928E-005  0.1738511E+04  0.7818608E-02  0.8739700E-01
         -3   -1    0    0    0  501 -0.00000000000E+00  0.00000000000E+00  0.35037953335E+03  0.35037953335E+03  0.00000000000E+00 0.  1.
          3   -1    0    0  501    0  0.00000000000E+00 -0.00000000000E+00 -0.21565324279E+04  0.21565324279E+04  0.00000000000E+00 0. -1.
         23    2    1    2    0    0 -0.18509038677E+03 -0.84612726052E+03 -0.95877845420E+03  0.12952052168E+04  0.90059076428E+02 0.  0.
         13    1    3    3    0    0 -0.12862676935E+03 -0.73467006216E+03 -0.82394780458E+03  0.11113842408E+04  0.00000000000E+00 0. -1.
        -13    1    3    3    0    0 -0.56463617424E+02 -0.11145719836E+03 -0.13483064962E+03  0.18382097604E+03  0.00000000000E+00 0.  1.
         22    1    1    2    0    0  0.18509038677E+03  0.84612726052E+03 -0.84737444033E+03  0.12117067444E+04  0.00000000000E+00 0.  1.
<mgrwt>
<rscale>  0 0.17385107E+04</rscale>
<asrwt>0</asrwt>
<pdfrwt beam="1">  1        3 0.33177422E+00 0.17385107E+04</pdfrwt>
<pdfrwt beam="2">  1       -3 0.53904543E-01 0.17385107E+04</pdfrwt>
<totfact> 0.21934230E-01</totfact>
</mgrwt>
</event>
<event>
 6    1  0.1001928E-005  0.1545101E+04  0.7818608E-02  0.8855003E-01
         -1   -1    0    0    0  501 -0.00000000000E+00  0.00000000000E+00  0.27003201540E+03  0.27003201540E+03  0.00000000000E+00 0.  1.
          1   -1    0    0  501    0  0.00000000000E+00 -0.00000000000E+00 -0.22102355670E+04  0.22102355670E+04  0.00000000000E+00 0. -1.
         23    2    1    2    0    0  0.73392050517E+02  0.26941509938E+03 -0.21251215491E+04  0.21453563185E+04  0.91876254534E+02 0.  0.
         11    1    3    3    0    0 -0.16501028959E+01  0.44889224611E+00 -0.20782859262E+03  0.20783562797E+03  0.00000000000E+00 0. -1.
        -11    1    3    3    0    0  0.75042153413E+02  0.26896620713E+03 -0.19172929565E+04  0.19375206906E+04  0.00000000000E+00 0.  1.
         22    1    1    2    0    0 -0.73392050517E+02 -0.26941509938E+03  0.18491799752E+03  0.33491126386E+03  0.00000000000E+00 0.  1.
<mgrwt>
<rscale>  0 0.15451011E+04</rscale>
<asrwt>0</asrwt>
<pdfrwt beam="1">  1        1 0.34003623E+00 0.15451011E+04</pdfrwt>
<pdfrwt beam="2">  1       -1 0.41543388E-01 0.15451011E+04</pdfrwt>
<totfact> 0.11751964E+01</totfact>
</mgrwt>
</event>
<event>
 6    1  0.1001928E-005  0.3089828E+04  0.7818608E-02  0.8218535E-01
         -1   -1    0    0    0  501 -0.00000000000E+00  0.00000000000E+00  0.10553969588E+04  0.10553969588E+04  0.00000000000E+00 0.  1.
          1   -1    0    0  501    0  0.00000000000E+00 -0.00000000000E+00 -0.22614801824E+04  0.22614801824E+04  0.00000000000E+00 0. -1.
         23    2    1    2    0    0  0.69792984145E+03 -0.11118891620E+02  0.87436396720E+03  0.11224546188E+04  0.90345618899E+02 0.  0.
         13    1    3    3    0    0  0.98148183899E+02  0.71771184149E+01  0.17650123314E+03  0.20208231573E+03  0.00000000000E+00 0. -1.
        -13    1    3    3    0    0  0.59978165755E+03 -0.18296010035E+02  0.69786273405E+03  0.92037230309E+03  0.00000000000E+00 0.  1.
         22    1    1    2    0    0 -0.69792984145E+03  0.11118891620E+02 -0.20804471908E+04  0.21944225225E+04  0.00000000000E+00 0. -1.
<mgrwt>
<rscale>  0 0.30898280E+04</rscale>
<asrwt>0</asrwt>
<pdfrwt beam="1">  1        1 0.34792003E+00 0.30898280E+04</pdfrwt>
<pdfrwt beam="2">  1       -1 0.16236876E+00 0.30898280E+04</pdfrwt>
<totfact> 0.46833999E-01</totfact>
</mgrwt>
</event>
<event>
 6    1  0.1001928E-005  0.1848459E+04  0.7818608E-02  0.8680946E-01
         -4   -1    0    0    0  501 -0.00000000000E+00  0.00000000000E+00  0.18885535184E+04  0.18885535184E+04  0.00000000000E+00 0.  1.
          4   -1    0    0  501    0  0.00000000000E+00 -0.00000000000E+00 -0.45230369658E+03  0.45230369658E+03  0.00000000000E+00 0. -1.
         23    2    1    2    0    0 -0.76387541675E+03  0.33900632151E+03  0.22350871437E+03  0.86804632013E+03  0.71535516659E+02 0.  0.
         13    1    3    3    0    0 -0.19309237155E+03  0.52415988263E+02  0.54685052704E+02  0.20741879078E+03  0.00000000000E+00 0.  1.
        -13    1    3    3    0    0 -0.57078304520E+03  0.28659033325E+03  0.16882366166E+03  0.66062752935E+03  0.00000000000E+00 0. -1.
         22    1    1    2    0    0  0.76387541675E+03 -0.33900632151E+03  0.12127411075E+04  0.14728108949E+04  0.00000000000E+00 0. -1.
<mgrwt>
<rscale>  0 0.18484585E+04</rscale>
<asrwt>0</asrwt>
<pdfrwt beam="1">  1        4 0.69585185E-01 0.18484585E+04</pdfrwt>
<pdfrwt beam="2">  1       -4 0.29054669E+00 0.18484585E+04</pdfrwt>
<totfact> 0.12657330E-01</totfact>
</mgrwt>
</event>
<event>
 6    1  0.1001928E-005  0.1421598E+04  0.7818608E-02  0.8938331E-01
          1   -1    0    0  501    0  0.00000000000E+00  0.00000000000E+00  0.18906422254E+03  0.18906422254E+03  0.00000000000E+00 0. -1.
         -1   -1    0    0    0  501 -0.00000000000E+00 -0.00000000000E+00 -0.26722960041E+04  0.26722960041E+04  0.00000000000E+00 0.  1.
         23    2    1    2    0    0  0.68026876564E+02 -0.31508263296E+03 -0.25151772784E+04  0.25374385752E+04  0.92590818871E+02 0.  0.
         11    1    3    3    0    0  0.31751697336E+02 -0.66859586779E+02 -0.34757946289E+03  0.35537284315E+03  0.00000000000E+00 0. -1.
        -11    1    3    3    0    0  0.36275179227E+02 -0.24822304618E+03 -0.21675978155E+04  0.21820657321E+04  0.00000000000E+00 0.  1.
         22    1    1    2    0    0 -0.68026876564E+02  0.31508263296E+03  0.31945496784E+02  0.32392165147E+03  0.00000000000E+00 0. -1.
<mgrwt>
<rscale>  0 0.14215985E+04</rscale>
<asrwt>0</asrwt>
<pdfrwt beam="1">  1        1 0.29086808E-01 0.14215985E+04</pdfrwt>
<pdfrwt beam="2">  1       -1 0.41112240E+00 0.14215985E+04</pdfrwt>
<totfact> 0.94373334E-01</totfact>
</mgrwt>
</event>
<event>
 6    1  0.1001928E-005  0.1442064E+04  0.7818608E-02  0.8923921E-01
          2   -1    0    0  501    0  0.00000000000E+00  0.00000000000E+00  0.58231205076E+03  0.58231205076E+03  0.00000000000E+00 0. -1.
         -2   -1    0    0    0  501 -0.00000000000E+00 -0.00000000000E+00 -0.89279791127E+03  0.89279791127E+03  0.00000000000E+00 0.  1.
         23    2    1    2    0    0 -0.60038568583E+03  0.23825106181E+03  0.16527027766E+03  0.67288153870E+03  0.90712514201E+02 0.  0.
         11    1    3    3    0    0 -0.38377621875E+03  0.12702212938E+03  0.64540559056E+02  0.40937060372E+03  0.00000000000E+00 0. -1.
        -11    1    3    3    0    0 -0.21660946708E+03  0.11122893243E+03  0.10072971861E+03  0.26351093497E+03  0.00000000000E+00 0.  1.
         22    1    1    2    0    0  0.60038568583E+03 -0.23825106181E+03 -0.47575613816E+03  0.80222842334E+03  0.00000000000E+00 0.  1.
<mgrwt>
<rscale>  0 0.14420638E+04</rscale>
<asrwt>0</asrwt>
<pdfrwt beam="1">  1        2 0.89586470E-01 0.14420638E+04</pdfrwt>
<pdfrwt beam="2">  1       -2 0.13735352E+00 0.14420638E+04</pdfrwt>
<totfact> 0.18819362E+01</totfact>
</mgrwt>
</event>
<event>
 6    1  0.1001928E-005  0.1479398E+04  0.7818608E-02  0.8898270E-01
         -2   -1    0    0    0  501 -0.00000000000E+00  0.00000000000E+00  0.82690066696E+03  0.82690066696E+03  0.00000000000E+00 0.  1.
          2   -1    0    0  501    0  0.00000000000E+00 -0.00000000000E+00 -0.66169283124E+03  0.66169283124E+03  0.00000000000E+00 0. -1.
         23    2    1    2    0    0  0.13188862548E+03  0.49542577526E+03  0.61598385367E+03  0.80592203500E+03  0.85046517814E+02 0.  0.
         13    1    3    3    0    0  0.13570090137E+02  0.20013072477E+03  0.21438448667E+03  0.29359353274E+03  0.00000000000E+00 0.  1.
        -13    1    3    3    0    0  0.11831853534E+03  0.29529505048E+03  0.40159936700E+03  0.51232850225E+03  0.00000000000E+00 0. -1.
         22    1    1    2    0    0 -0.13188862548E+03 -0.49542577526E+03 -0.45077601794E+03  0.68267146320E+03  0.00000000000E+00 0. -1.
<mgrwt>
<rscale>  0 0.14793975E+04</rscale>
<asrwt>0</asrwt>
<pdfrwt beam="1">  1        2 0.10179890E+00 0.14793975E+04</pdfrwt>
<pdfrwt beam="2">  1       -2 0.12721549E+00 0.14793975E+04</pdfrwt>
<totfact> 0.19516327E+01</totfact>
</mgrwt>
</event>
<event>
 6    1  0.1001928E-005  0.1574206E+04  0.7818608E-02  0.8836553E-01
          1   -1    0    0  501    0  0.00000000000E+00  0.00000000000E+00  0.71896169174E+03  0.71896169174E+03  0.00000000000E+00 0. -1.
         -1   -1    0    0    0  501 -0.00000000000E+00 -0.00000000000E+00 -0.86170254132E+03  0.86170254132E+03  0.00000000000E+00 0.  1.
         23    2    1    2    0    0  0.42558113980E+03 -0.52842246281E+03 -0.46695200327E+03  0.82869184132E+03  0.91303826579E+02 0.  0.
         11    1    3    3    0    0  0.14940915065E+03 -0.25118288466E+03 -0.17732066319E+03  0.34184580360E+03  0.00000000000E+00 0.  1.
        -11    1    3    3    0    0  0.27617198915E+03 -0.27723957815E+03 -0.28963134008E+03  0.48684603772E+03  0.00000000000E+00 0. -1.
         22    1    1    2    0    0 -0.42558113980E+03  0.52842246281E+03  0.32421115370E+03  0.75197239174E+03  0.00000000000E+00 0. -1.
<mgrwt>
<rscale>  0 0.15742060E+04</rscale>
<asrwt>0</asrwt>
<pdfrwt beam="1">  1        1 0.11060949E+00 0.15742060E+04</pdfrwt>
<pdfrwt beam="2">  1       -1 0.13256962E+00 0.15742060E+04</pdfrwt>
<totfact> 0.12137080E+01</totfact>
</mgrwt>
</event>
<event>
 6    1  0.1001928E-005  0.2035205E+04  0.7818608E-02  0.8590336E-01
          1   -1    0    0  501    0  0.00000000000E+00  0.00000000000E+00  0.14119933464E+04  0.14119933464E+04  0.00000000000E+00 0. -1.
         -1   -1    0    0    0  501 -0.00000000000E+00 -0.00000000000E+00 -0.73337068181E+03  0.73337068181E+03  0.00000000000E+00 0.  1.
         23    2    1    2    0    0  0.24446071239E+03 -0.97379128714E+03  0.50089044508E+03  0.11257468193E+04  0.91565017498E+02 0.  0.
         11    1    3    3    0    0  0.21740101608E+03 -0.69867481755E+03  0.36099529343E+03  0.81592113856E+03  0.00000000000E+00 0. -1.
        -11    1    3    3    0    0  0.27059696308E+02 -0.27511646959E+03  0.13989515164E+03  0.30982568076E+03  0.00000000000E+00 0.  1.
         22    1    1    2    0    0 -0.24446071239E+03  0.97379128714E+03  0.17773221951E+03  0.10196172089E+04  0.00000000000E+00 0.  1.
<mgrwt>
<rscale>  0 0.20352047E+04</rscale>
<asrwt>0</asrwt>
<pdfrwt beam="1">  1        1 0.21722975E+00 0.20352047E+04</pdfrwt>
<pdfrwt beam="2">  1       -1 0.11282626E+00 0.20352047E+04</pdfrwt>
<totfact> 0.50072579E+00</totfact>
</mgrwt>
</event>
<event>
 6    1  0.1001928E-005  0.3709154E+04  0.7818608E-02  0.8065936E-01
          1   -1    0    0  501    0  0.00000000000E+00  0.00000000000E+00  0.14960253441E+04  0.14960253441E+04  0.00000000000E+00 0. -1.
         -1   -1    0    0    0  501 -0.00000000000E+00 -0.00000000000E+00 -0.22990631111E+04  0.22990631111E+04  0.00000000000E+00 0.  1.
         23    2    1    2    0    0 -0.13909208638E+04 -0.54286685886E+03  0.72170158143E+03  0.16610323743E+04  0.93862132262E+02 0.  0.
         11    1    3    3    0    0 -0.45403745125E+03 -0.13846632066E+03  0.25663105769E+03  0.53961322155E+03  0.00000000000E+00 0. -1.
        -11    1    3    3    0    0 -0.93688341260E+03 -0.40440053820E+03  0.46507052374E+03  0.11214191527E+04  0.00000000000E+00 0.  1.
         22    1    1    2    0    0  0.13909208638E+04  0.54286685886E+03 -0.15247393484E+04  0.21340560809E+04  0.00000000000E+00 0.  1.
<mgrwt>
<rscale>  0 0.37091544E+04</rscale>
<asrwt>0</asrwt>
<pdfrwt beam="1">  1        1 0.23015775E+00 0.37091544E+04</pdfrwt>
<pdfrwt beam="2">  1       -1 0.35370202E+00 0.37091544E+04</pdfrwt>
<totfact> 0.77458793E-02</totfact>
</mgrwt>
</event>
<event>
 6    1  0.1001928E-005  0.9444899E+03  0.7818608E-02  0.9371614E-01
         -1   -1    0    0    0  501 -0.00000000000E+00  0.00000000000E+00  0.14688588411E+03  0.14688588411E+03  0.00000000000E+00 0.  1.
          1   -1    0    0  501    0  0.00000000000E+00 -0.00000000000E+00 -0.15182894003E+04  0.15182894003E+04  0.00000000000E+00 0. -1.
         23    2    1    2    0    0 -0.37344119832E+03  0.21716969776E+03 -0.37510726419E+03  0.57925299070E+03  0.90595592353E+02 0.  0.
         13    1    3    3    0    0 -0.23381848122E+03  0.16880298580E+03 -0.20439143100E+03  0.35347048992E+03  0.00000000000E+00 0. -1.
        -13    1    3    3    0    0 -0.13962271709E+03  0.48366711957E+02 -0.17071583319E+03  0.22578250078E+03  0.00000000000E+00 0.  1.
         22    1    1    2    0    0  0.37344119832E+03 -0.21716969776E+03 -0.99629625199E+03  0.10859222937E+04  0.00000000000E+00 0.  1.
<mgrwt>
<rscale>  0 0.94448987E+03</rscale>
<asrwt>0</asrwt>
<pdfrwt beam="1">  1        1 0.23358298E+00 0.94448987E+03</pdfrwt>
<pdfrwt beam="2">  1       -1 0.22597829E-01 0.94448987E+03</pdfrwt>
<totfact> 0.10641116E+02</totfact>
</mgrwt>
</event>
<event>
 6    1  0.1001928E-005  0.3565518E+04  0.7818608E-02  0.8098436E-01
          1   -1    0    0  501    0  0.00000000000E+00  0.00000000000E+00  0.17344932654E+04  0.17344932654E+04  0.00000000000E+00 0. -1.
         -1   -1    0    0    0  501 -0.00000000000E+00 -0.00000000000E+00 -0.18323680165E+04  0.18323680165E+04  0.00000000000E+00 0.  1.
         23    2    1    2    0    0  0.38132416428E+03  0.17089178496E+04 -0.37850772630E+03  0.17935696528E+04  0.88406252480E+02 0.  0.
         11    1    3    3    0    0  0.37489628409E+03  0.15888432357E+04 -0.34211565567E+03  0.16679368013E+04  0.00000000000E+00 0.  1.
        -11    1    3    3    0    0  0.64278801887E+01  0.12007461398E+03 -0.36392070633E+02  0.12563285148E+03  0.00000000000E+00 0. -1.
         22    1    1    2    0    0 -0.38132416428E+03 -0.17089178496E+04  0.28063297524E+03  0.17732916291E+04  0.00000000000E+00 0. -1.
<mgrwt>
<rscale>  0 0.35655182E+04</rscale>
<asrwt>0</asrwt>
<pdfrwt beam="1">  1        1 0.26684512E+00 0.35655182E+04</pdfrwt>
<pdfrwt beam="2">  1       -1 0.28190277E+00 0.35655182E+04</pdfrwt>
<totfact> 0.15846922E-01</totfact>
</mgrwt>
</event>
<event>
 6    1  0.1001928E-005  0.4080020E+04  0.7818608E-02  0.7988596E-01
         -1   -1    0    0    0  501 -0.00000000000E+00  0.00000000000E+00  0.21393511512E+04  0.21393511512E+04  0.00000000000E+00 0.  1.
          1   -1    0    0  501    0  0.00000000000E+00 -0.00000000000E+00 -0.19452820300E+04  0.19452820300E+04  0.00000000000E+00 0. -1.
         23    2    1    2    0    0 -0.48338276095E+03 -0.13598570722E+03 -0.18813819890E+04  0.19492998777E+04  0.89559022478E+02 0.  0.
         13    1    3    3    0    0 -0.28722190856E+03 -0.11909733363E+03 -0.10609888031E+04  0.11056119753E+04  0.00000000000E+00 0.  1.
        -13    1    3    3    0    0 -0.19616085239E+03 -0.16888373591E+02 -0.82039318589E+03  0.84368790238E+03  0.00000000000E+00 0. -1.
         22    1    1    2    0    0  0.48338276095E+03  0.13598570722E+03  0.20754511102E+04  0.21353333035E+04  0.00000000000E+00 0.  1.
<mgrwt>
<rscale>  0 0.40800203E+04</rscale>
<asrwt>0</asrwt>
<pdfrwt beam="1">  1        1 0.29927416E+00 0.40800203E+04</pdfrwt>
<pdfrwt beam="2">  1       -1 0.32913095E+00 0.40800203E+04</pdfrwt>
<totfact> 0.53826344E-02</totfact>
</mgrwt>
</event>
<event>
 6    1  0.1001928E-005  0.1792677E+04  0.7818608E-02  0.8710203E-01
          2   -1    0    0  501    0  0.00000000000E+00  0.00000000000E+00  0.27493650151E+04  0.27493650151E+04  0.00000000000E+00 0. -1.
         -2   -1    0    0    0  501 -0.00000000000E+00 -0.00000000000E+00 -0.29222122213E+03  0.29222122213E+03  0.00000000000E+00 0.  1.
         23    2    1    2    0    0 -0.33849872447E+03  0.78276264003E+03  0.77696226584E+03  0.11573599501E+04  0.92265672864E+02 0.  0.
         13    1    3    3    0    0 -0.88120479016E+02  0.12396591478E+03  0.15904434919E+03  0.22006333602E+03  0.00000000000E+00 0.  1.
        -13    1    3    3    0    0 -0.25037824545E+03  0.65879672525E+03  0.61791791664E+03  0.93729661405E+03  0.00000000000E+00 0. -1.
         22    1    1    2    0    0  0.33849872447E+03 -0.78276264003E+03  0.16801815271E+04  0.18842262871E+04  0.00000000000E+00 0. -1.
<mgrwt>
<rscale>  0 0.17926771E+04</rscale>
<asrwt>0</asrwt>
<pdfrwt beam="1">  1        2 0.42297922E+00 0.17926771E+04</pdfrwt>
<pdfrwt beam="2">  1       -2 0.44957113E-01 0.17926771E+04</pdfrwt>
<totfact> 0.11022058E+01</totfact>
</mgrwt>
</event>
<event>
 6    1  0.1001928E-005  0.3667913E+04  0.7818608E-02  0.8075110E-01
         -2   -1    0    0    0  501 -0.00000000000E+00  0.00000000000E+00  0.85122518252E+03  0.85122518252E+03  0.00000000000E+00 0.  1.
          2   -1    0    0  501    0  0.00000000000E+00 -0.00000000000E+00 -0.39512422474E+04  0.39512422474E+04  0.00000000000E+00 0. -1.
         23    2    1    2    0    0  0.91630006845E+03 -0.13930479288E+04 -0.55446987723E+03  0.17594428109E+04  0.89519901986E+02 0.  0.
         13    1    3    3    0    0  0.82279281870E+03 -0.12937603971E+04 -0.50224900118E+03  0.16133995310E+04  0.00000000000E+00 0. -1.
        -13    1    3    3    0    0  0.93507249750E+02 -0.99287531705E+02 -0.52220876047E+02  0.14604327990E+03  0.00000000000E+00 0.  1.
         22    1    1    2    0    0 -0.91630006845E+03  0.13930479288E+04 -0.25455471876E+04  0.30430246190E+04  0.00000000000E+00 0.  1.
<mgrwt>
<rscale>  0 0.36679133E+04</rscale>
<asrwt>0</asrwt>
<pdfrwt beam="1">  1        2 0.60788340E+00 0.36679133E+04</pdfrwt>
<pdfrwt beam="2">  1       -2 0.13095772E+00 0.36679133E+04</pdfrwt>
<totfact> 0.12899562E-01</totfact>
</mgrwt>
</event>
<event>
 6    1  0.1001928E-005  0.3130604E+04  0.7818608E-02  0.8207389E-01
          1   -1    0    0  501    0  0.00000000000E+00  0.00000000000E+00  0.11145917868E+04  0.11145917868E+04  0.00000000000E+00 0.  1.
         -1   -1    0    0    0  501 -0.00000000000E+00 -0.00000000000E+00 -0.21982674983E+04  0.21982674983E+04  0.00000000000E+00 0. -1.
         23    2    1    2    0    0 -0.19252206005E+03 -0.11909552676E+04 -0.15952924369E+04  0.20024429898E+04  0.96854403088E+02 0.  0.
         11    1    3    3    0    0 -0.35558290294E+02 -0.27354576501E+03 -0.30148772495E+03  0.40863984859E+03  0.00000000000E+00 0.  1.
        -11    1    3    3    0    0 -0.15696376975E+03 -0.91740950257E+03 -0.12938047119E+04  0.15938031412E+04  0.00000000000E+00 0. -1.
         22    1    1    2    0    0  0.19252206005E+03  0.11909552676E+04  0.51161672537E+03  0.13104162952E+04  0.00000000000E+00 0.  1.
<mgrwt>
<rscale>  0 0.31306043E+04</rscale>
<asrwt>0</asrwt>
<pdfrwt beam="1">  1        1 0.17147566E+00 0.31306043E+04</pdfrwt>
<pdfrwt beam="2">  1       -1 0.33819500E+00 0.31306043E+04</pdfrwt>
<totfact> 0.19342550E-01</totfact>
</mgrwt>
</event>
<event>
 6    1  0.1001928E-005  0.1980238E+04  0.7818608E-02  0.8615916E-01
          1   -1    0    0  501    0  0.00000000000E+00  0.00000000000E+00  0.11908968886E+04  0.11908968886E+04  0.00000000000E+00 0. -1.
         -1   -1    0    0    0  501 -0.00000000000E+00 -0.00000000000E+00 -0.82319098441E+03  0.82319098441E+03  0.00000000000E+00 0.  1.
         23    2    1    2    0    0 -0.16857838116E+03  0.36496193926E+03  0.11023044130E+04  0.11766806501E+04  0.88805663480E+02 0.  0.
         13    1    3    3    0    0 -0.10014730917E+03  0.13525521562E+03  0.53424760610E+03  0.56012852232E+03  0.00000000000E+00 0. -1.
        -13    1    3    3    0    0 -0.68431071989E+02  0.22970672364E+03  0.56805680687E+03  0.61655212782E+03  0.00000000000E+00 0.  1.
         22    1    1    2    0    0  0.16857838116E+03 -0.36496193926E+03 -0.73459850881E+03  0.83740722283E+03  0.00000000000E+00 0.  1.
<mgrwt>
<rscale>  0 0.19802379E+04</rscale>
<asrwt>0</asrwt>
<pdfrwt beam="1">  1        1 0.18321491E+00 0.19802379E+04</pdfrwt>
<pdfrwt beam="2">  1       -1 0.12664477E+00 0.19802379E+04</pdfrwt>
<totfact> 0.54620303E+00</totfact>
</mgrwt>
</event>
<event>
 6    1  0.1001928E-005  0.5643578E+04  0.7818608E-02  0.7736236E-01
          2   -1    0    0  501    0  0.00000000000E+00  0.00000000000E+00  0.32155106804E+04  0.32155106804E+04  0.00000000000E+00 0.  1.
         -2   -1    0    0    0  501 -0.00000000000E+00 -0.00000000000E+00 -0.24762763281E+04  0.24762763281E+04  0.00000000000E+00 0. -1.
         23    2    1    2    0    0  0.21843536613E+04 -0.90091921249E+03 -0.11847735012E+04  0.26446797631E+04  0.87100257618E+02 0.  0.
         11    1    3    3    0    0  0.11958055019E+04 -0.44673796373E+03 -0.64668584033E+03  0.14309885334E+04  0.00000000000E+00 0. -1.
        -11    1    3    3    0    0  0.98854815949E+03 -0.45418124875E+03 -0.53808766086E+03  0.12136912297E+04  0.00000000000E+00 0.  1.
         22    1    1    2    0    0 -0.21843536613E+04  0.90091921249E+03  0.19240078534E+04  0.30471072455E+04  0.00000000000E+00 0.  1.
<mgrwt>
<rscale>  0 0.56435779E+04</rscale>
<asrwt>0</asrwt>
<pdfrwt beam="1">  1        2 0.49469395E+00 0.56435779E+04</pdfrwt>
<pdfrwt beam="2">  1       -2 0.38096559E+00 0.56435779E+04</pdfrwt>
<totfact> 0.86474754E-03</totfact>
</mgrwt>
</event>
<event>
 6    1  0.1001928E-005  0.7634872E+03  0.7818608E-02  0.9614426E-01
         -2   -1    0    0    0  501 -0.00000000000E+00  0.00000000000E+00  0.12691885040E+03  0.12691885040E+03  0.00000000000E+00 0.  1.
          2   -1    0    0  501    0  0.00000000000E+00 -0.00000000000E+00 -0.11481995148E+04  0.11481995148E+04  0.00000000000E+00 0. -1.
         23    2    1    2    0    0 -0.12367372657E+03  0.30374336476E+03 -0.20898555018E+03  0.39911689553E+03  0.89800411086E+02 0.  0.
         13    1    3    3    0    0  0.72689479423E+01  0.62201301411E+02 -0.59254397137E+02  0.86214401821E+02  0.00000000000E+00 0.  1.
        -13    1    3    3    0    0 -0.13094267451E+03  0.24154206335E+03 -0.14973115305E+03  0.31290249371E+03  0.00000000000E+00 0. -1.
         22    1    1    2    0    0  0.12367372657E+03 -0.30374336476E+03 -0.81229511419E+03  0.87600146964E+03  0.00000000000E+00 0. -1.
<mgrwt>
<rscale>  0 0.76348716E+03</rscale>
<asrwt>0</asrwt>
<pdfrwt beam="1">  1        2 0.17664609E+00 0.76348716E+03</pdfrwt>
<pdfrwt beam="2">  1       -2 0.19525976E-01 0.76348716E+03</pdfrwt>
<totfact> 0.45607636E+02</totfact>
</mgrwt>
</event>
<event>
 6    1  0.1001928E-005  0.8373172E+03  0.7818608E-02  0.9507519E-01
         -1   -1    0    0    0  501 -0.00000000000E+00  0.00000000000E+00  0.16047473595E+03  0.16047473595E+03  0.00000000000E+00 0.  1.
          1   -1    0    0  501    0  0.00000000000E+00 -0.00000000000E+00 -0.10922280232E+04  0.10922280232E+04  0.00000000000E+00 0. -1.
         23    2    1    2    0    0  0.41347277478E+03 -0.10706379641E+02 -0.46306887530E+03  0.62761121382E+03  0.91589794106E+02 0.  0.
         13    1    3    3    0    0  0.15561984949E+03 -0.25301298429E+02 -0.23541210593E+03  0.28333117173E+03  0.00000000000E+00 0. -1.
        -13    1    3    3    0    0  0.25785292530E+03  0.14594918789E+02 -0.22765676937E+03  0.34428004209E+03  0.00000000000E+00 0.  1.
         22    1    1    2    0    0 -0.41347277478E+03  0.10706379641E+02 -0.46868441195E+03  0.62509154534E+03  0.00000000000E+00 0.  1.
<mgrwt>
<rscale>  0 0.83731715E+03</rscale>
<asrwt>0</asrwt>
<pdfrwt beam="1">  1        1 0.16803508E+00 0.83731715E+03</pdfrwt>
<pdfrwt beam="2">  1       -1 0.24688421E-01 0.83731715E+03</pdfrwt>
<totfact> 0.18555711E+02</totfact>
</mgrwt>
</event>
<event>
 6    1  0.1001928E-005  0.2066094E+04  0.7818608E-02  0.8576328E-01
         -2   -1    0    0    0  501 -0.00000000000E+00  0.00000000000E+00  0.40230048482E+03  0.40230048482E+03  0.00000000000E+00 0.  1.
          2   -1    0    0  501    0  0.00000000000E+00 -0.00000000000E+00 -0.26527077226E+04  0.26527077226E+04  0.00000000000E+00 0. -1.
         23    2    1    2    0    0  0.38807872627E+03 -0.44588630039E+03 -0.23764813942E+04  0.24505957791E+04  0.91302601245E+02 0.  0.
         13    1    3    3    0    0  0.30069922310E+02 -0.72673866299E+02 -0.39369483916E+03  0.40147393122E+03  0.00000000000E+00 0.  1.
        -13    1    3    3    0    0  0.35800880396E+03 -0.37321243409E+03 -0.19827865550E+04  0.20491218479E+04  0.00000000000E+00 0. -1.
         22    1    1    2    0    0 -0.38807872627E+03  0.44588630039E+03  0.12607415635E+03  0.60441242836E+03  0.00000000000E+00 0.  1.
<mgrwt>
<rscale>  0 0.20660935E+04</rscale>
<asrwt>0</asrwt>
<pdfrwt beam="1">  1        2 0.40810889E+00 0.20660935E+04</pdfrwt>
<pdfrwt beam="2">  1       -2 0.61892381E-01 0.20660935E+04</pdfrwt>
<totfact> 0.63523557E+00</totfact>
</mgrwt>
</event>
<event>
 6    1  0.1001928E-005  0.2240073E+04  0.7818608E-02  0.8501931E-01
          2   -1    0    0  501    0  0.00000000000E+00  0.00000000000E+00  0.17667974692E+04  0.17667974692E+04  0.00000000000E+00 0.  1.
         -2   -1    0    0    0  501 -0.00000000000E+00 -0.00000000000E+00 -0.71003168649E+03  0.71003168649E+03  0.00000000000E+00 0. -1.
         23    2    1    2    0    0 -0.29474891510E+03 -0.70952554935E+02  0.17193346831E+04  0.17481943118E+04  0.90334995160E+02 0.  0.
         13    1    3    3    0    0 -0.15288336768E+03 -0.82129438921E+02  0.99277155638E+03  0.10078263402E+04  0.00000000000E+00 0. -1.
        -13    1    3    3    0    0 -0.14186554742E+03  0.11176883986E+02  0.72656312672E+03  0.74036797161E+03  0.00000000000E+00 0.  1.
         22    1    1    2    0    0  0.29474891510E+03  0.70952554935E+02 -0.66256890037E+03  0.72863484390E+03  0.00000000000E+00 0. -1.
<mgrwt>
<rscale>  0 0.22400734E+04</rscale>
<asrwt>0</asrwt>
<pdfrwt beam="1">  1        2 0.27181499E+00 0.22400734E+04</pdfrwt>
<pdfrwt beam="2">  1       -2 0.10923564E+00 0.22400734E+04</pdfrwt>
<totfact> 0.54810920E+00</totfact>
</mgrwt>
</event>
<event>
 6    1  0.1001928E-005  0.3006034E+04  0.7818608E-02  0.8242010E-01
         -1   -1    0    0    0  501 -0.00000000000E+00  0.00000000000E+00  0.79608073089E+03  0.79608073089E+03  0.00000000000E+00 0.  1.
          1   -1    0    0  501    0  0.00000000000E+00 -0.00000000000E+00 -0.28377268114E+04  0.28377268114E+04  0.00000000000E+00 0. -1.
         23    2    1    2    0    0 -0.75166555598E+03 -0.12274214034E+04 -0.15394197665E+04  0.21094074373E+04  0.90675849109E+02 0.  0.
         11    1    3    3    0    0 -0.34690722360E+03 -0.56094848948E+03 -0.77163065701E+03  0.10150968922E+04  0.00000000000E+00 0. -1.
        -11    1    3    3    0    0 -0.40475833239E+03 -0.66647291393E+03 -0.76778910944E+03  0.10943105451E+04  0.00000000000E+00 0.  1.
         22    1    1    2    0    0  0.75166555598E+03  0.12274214034E+04 -0.50222631408E+03  0.15244001050E+04  0.00000000000E+00 0.  1.
<mgrwt>
<rscale>  0 0.30060337E+04</rscale>
<asrwt>0</asrwt>
<pdfrwt beam="1">  1        1 0.43657335E+00 0.30060337E+04</pdfrwt>
<pdfrwt beam="2">  1       -1 0.12247396E+00 0.30060337E+04</pdfrwt>
<totfact> 0.39195753E-01</totfact>
</mgrwt>
</event>
<event>
 6    1  0.1001928E-005  0.3332908E+04  0.7818608E-02  0.8154572E-01
         -2   -1    0    0    0  501 -0.00000000000E+00  0.00000000000E+00  0.72835832802E+03  0.72835832802E+03  0.00000000000E+00 0.  1.
          2   -1    0    0  501    0  0.00000000000E+00 -0.00000000000E+00 -0.38127776768E+04  0.38127776768E+04  0.00000000000E+00 0. -1.
         23    2    1    2    0    0  0.24571344903E+03  0.14505304189E+04 -0.48057076357E+03  0.15504101648E+04  0.91705099317E+02 0.  0.
         11    1    3    3    0    0  0.10821417149E+03  0.51499929853E+03 -0.13123570167E+03  0.54236278798E+03  0.00000000000E+00 0. -1.
        -11    1    3    3    0    0  0.13749927754E+03  0.93553112038E+03 -0.34933506190E+03  0.10080473769E+04  0.00000000000E+00 0.  1.
         22    1    1    2    0    0 -0.24571344903E+03 -0.14505304189E+04 -0.26038485852E+04  0.29907258399E+04  0.00000000000E+00 0.  1.
<mgrwt>
<rscale>  0 0.33329077E+04</rscale>
<asrwt>0</asrwt>
<pdfrwt beam="1">  1        2 0.58658118E+00 0.33329077E+04</pdfrwt>
<pdfrwt beam="2">  1       -2 0.11205513E+00 0.33329077E+04</pdfrwt>
<totfact> 0.25078723E-01</totfact>
</mgrwt>
</event>
<event>
 6    1  0.1001928E-005  0.1590552E+04  0.7818608E-02  0.8826373E-01
         -1   -1    0    0    0  501 -0.00000000000E+00  0.00000000000E+00  0.10654327282E+04  0.10654327282E+04  0.00000000000E+00 0.  1.
          1   -1    0    0  501    0  0.00000000000E+00 -0.00000000000E+00 -0.59362164495E+03  0.59362164495E+03  0.00000000000E+00 0. -1.
         23    2    1    2    0    0  0.39462043081E+03 -0.54729362195E+03 -0.19729381650E+03  0.70881389835E+03  0.90756263796E+02 0.  0.
         11    1    3    3    0    0  0.18903351973E+03 -0.20411168018E+03 -0.50889425986E+02  0.28281616511E+03  0.00000000000E+00 0. -1.
        -11    1    3    3    0    0  0.20558691108E+03 -0.34318194177E+03 -0.14640439052E+03  0.42599773324E+03  0.00000000000E+00 0.  1.
         22    1    1    2    0    0 -0.39462043081E+03  0.54729362195E+03  0.66910489971E+03  0.95024047476E+03  0.00000000000E+00 0.  1.
<mgrwt>
<rscale>  0 0.15905520E+04</rscale>
<asrwt>0</asrwt>
<pdfrwt beam="1">  1        1 0.91326407E-01 0.15905520E+04</pdfrwt>
<pdfrwt beam="2">  1       -1 0.16391273E+00 0.15905520E+04</pdfrwt>
<totfact> 0.91196360E+00</totfact>
</mgrwt>
</event>
<event>
 6    1  0.1001928E-005  0.2421058E+04  0.7818608E-02  0.8431662E-01
          1   -1    0    0  501    0  0.00000000000E+00  0.00000000000E+00  0.15879262651E+04  0.15879262651E+04  0.00000000000E+00 0. -1.
         -1   -1    0    0    0  501 -0.00000000000E+00 -0.00000000000E+00 -0.92282615338E+03  0.92282615338E+03  0.00000000000E+00 0.  1.
         23    2    1    2    0    0  0.42676282973E+02  0.33661932042E+03  0.15362366849E+04  0.15758659221E+04  0.90534083565E+02 0.  0.
         11    1    3    3    0    0  0.16813165519E+02  0.27943341588E+03  0.10963848829E+04  0.11315588928E+04  0.00000000000E+00 0.  1.
        -11    1    3    3    0    0  0.25863117454E+02  0.57185904537E+02  0.43985180205E+03  0.44430702931E+03  0.00000000000E+00 0. -1.
         22    1    1    2    0    0 -0.42676282973E+02 -0.33661932042E+03 -0.87113657319E+03  0.93488649641E+03  0.00000000000E+00 0.  1.
<mgrwt>
<rscale>  0 0.24210575E+04</rscale>
<asrwt>0</asrwt>
<pdfrwt beam="1">  1        1 0.24429635E+00 0.24210575E+04</pdfrwt>
<pdfrwt beam="2">  1       -1 0.14197325E+00 0.24210575E+04</pdfrwt>
<totfact> 0.20555855E+00</totfact>
</mgrwt>
</event>
<event>
 6    1  0.1001928E-005  0.2287390E+04  0.7818608E-02  0.8482910E-01
          2   -1    0    0  501    0  0.00000000000E+00  0.00000000000E+00  0.14549060116E+04  0.14549060116E+04  0.00000000000E+00 0. -1.
         -2   -1    0    0    0  501 -0.00000000000E+00 -0.00000000000E+00 -0.89905326817E+03  0.89905326817E+03  0.00000000000E+00 0.  1.
         23    2    1    2    0    0  0.26029496066E+03  0.83831985377E+03  0.10296414388E+04  0.13564577151E+04  0.96345195449E+02 0.  0.
         13    1    3    3    0    0  0.54829375717E+02  0.32396563534E+03  0.35889121003E+03  0.48658287471E+03  0.00000000000E+00 0. -1.
        -13    1    3    3    0    0  0.20546558494E+03  0.51435421843E+03  0.67075022876E+03  0.86987484042E+03  0.00000000000E+00 0.  1.
         22    1    1    2    0    0 -0.26029496066E+03 -0.83831985377E+03 -0.47378869531E+03  0.99750156470E+03  0.00000000000E+00 0.  1.
<mgrwt>
<rscale>  0 0.22873898E+04</rscale>
<asrwt>0</asrwt>
<pdfrwt beam="1">  1        2 0.22383170E+00 0.22873898E+04</pdfrwt>
<pdfrwt beam="2">  1       -2 0.13831589E+00 0.22873898E+04</pdfrwt>
<totfact> 0.45293405E+00</totfact>
</mgrwt>
</event>
<event>
 6    1  0.1001928E-005  0.2071500E+04  0.7818608E-02  0.8573903E-01
          1   -1    0    0  501    0  0.00000000000E+00  0.00000000000E+00  0.12843706174E+04  0.12843706174E+04  0.00000000000E+00 0. -1.
         -1   -1    0    0    0  501 -0.00000000000E+00 -0.00000000000E+00 -0.83525593357E+03  0.83525593357E+03  0.00000000000E+00 0.  1.
         23    2    1    2    0    0  0.80715930159E+03 -0.64582764828E+03  0.22198466242E+03  0.10612374278E+04  0.91368475930E+02 0.  0.
         13    1    3    3    0    0  0.44751483624E+03 -0.36040713393E+03  0.16968324081E+03  0.59912872828E+03  0.00000000000E+00 0. -1.
        -13    1    3    3    0    0  0.35964446535E+03 -0.28542051435E+03  0.52301421609E+02  0.46210869952E+03  0.00000000000E+00 0.  1.
         22    1    1    2    0    0 -0.80715930159E+03  0.64582764828E+03  0.22713002142E+03  0.10583891232E+04  0.00000000000E+00 0.  1.
<mgrwt>
<rscale>  0 0.20715001E+04</rscale>
<asrwt>0</asrwt>
<pdfrwt beam="1">  1        1 0.19759548E+00 0.20715001E+04</pdfrwt>
<pdfrwt beam="2">  1       -1 0.12850091E+00 0.20715001E+04</pdfrwt>
<totfact> 0.44691587E+00</totfact>
</mgrwt>
</event>
<event>
 6    1  0.1001928E-005  0.2898478E+04  0.7818608E-02  0.8273330E-01
          1   -1    0    0  501    0  0.00000000000E+00  0.00000000000E+00  0.23217856230E+04  0.23217856230E+04  0.00000000000E+00 0. -1.
         -1   -1    0    0    0  501 -0.00000000000E+00 -0.00000000000E+00 -0.90460285200E+03  0.90460285200E+03  0.00000000000E+00 0.  1.
         23    2    1    2    0    0  0.86649099521E+03  0.32529375187E+03 -0.53006598548E+03  0.10703735424E+04  0.90038334251E+02 0.  0.
         13    1    3    3    0    0  0.14510376173E+03  0.65251492996E+02 -0.13001744385E+03  0.20546871955E+03  0.00000000000E+00 0. -1.
        -13    1    3    3    0    0  0.72138723347E+03  0.26004225888E+03 -0.40004854162E+03  0.86490482290E+03  0.00000000000E+00 0.  1.
         22    1    1    2    0    0 -0.86649099521E+03 -0.32529375187E+03  0.19472487564E+04  0.21560149325E+04  0.00000000000E+00 0. -1.
<mgrwt>
<rscale>  0 0.28984781E+04</rscale>
<asrwt>0</asrwt>
<pdfrwt beam="1">  1        1 0.35719779E+00 0.28984781E+04</pdfrwt>
<pdfrwt beam="2">  1       -1 0.13916967E+00 0.28984781E+04</pdfrwt>
<totfact> 0.65702495E-01</totfact>
</mgrwt>
</event>
<event>
 6    1  0.1001928E-005  0.2752923E+04  0.7818608E-02  0.8318035E-01
         -2   -1    0    0    0  501 -0.00000000000E+00  0.00000000000E+00  0.21650653290E+04  0.21650653290E+04  0.00000000000E+00 0.  1.
          2   -1    0    0  501    0  0.00000000000E+00 -0.00000000000E+00 -0.87509882426E+03  0.87509882426E+03  0.00000000000E+00 0. -1.
         23    2    1    2    0    0 -0.21033001206E+03 -0.11333018886E+04 -0.18213523258E+03  0.11704862640E+04  0.90845839374E+02 0.  0.
         13    1    3    3    0    0 -0.15462103087E+03 -0.59377781608E+03 -0.84365747773E+02  0.61935235323E+03  0.00000000000E+00 0. -1.
        -13    1    3    3    0    0 -0.55708981194E+02 -0.53952407251E+03 -0.97769484804E+02  0.55113391074E+03  0.00000000000E+00 0.  1.
         22    1    1    2    0    0  0.21033001206E+03  0.11333018886E+04  0.14721017373E+04  0.18696778893E+04  0.00000000000E+00 0.  1.
<mgrwt>
<rscale>  0 0.27529229E+04</rscale>
<asrwt>0</asrwt>
<pdfrwt beam="1">  1        2 0.13463059E+00 0.27529229E+04</pdfrwt>
<pdfrwt beam="2">  1       -2 0.33308697E+00 0.27529229E+04</pdfrwt>
<totfact> 0.52900103E-01</totfact>
</mgrwt>
</event>
<event>
 6    1  0.1001928E-005  0.3087954E+04  0.7818608E-02  0.8219052E-01
          2   -1    0    0  501    0  0.00000000000E+00  0.00000000000E+00  0.42247632968E+04  0.42247632968E+04  0.00000000000E+00 0. -1.
         -2   -1    0    0    0  501 -0.00000000000E+00 -0.00000000000E+00 -0.56426002935E+03  0.56426002935E+03  0.00000000000E+00 0.  1.
         23    2    1    2    0    0 -0.39478607689E+03  0.14810082382E+04  0.21010154722E+04  0.26024178218E+04  0.95242093842E+02 0.  0.
         11    1    3    3    0    0 -0.20348124077E+03  0.92908670103E+03  0.12713769297E+04  0.15877676186E+04  0.00000000000E+00 0.  1.
        -11    1    3    3    0    0 -0.19130483611E+03  0.55192153721E+03  0.82963854249E+03  0.10146502031E+04  0.00000000000E+00 0. -1.
         22    1    1    2    0    0  0.39478607689E+03 -0.14810082382E+04  0.15594877953E+04  0.21866055044E+04  0.00000000000E+00 0.  1.
<mgrwt>
<rscale>  0 0.30879541E+04</rscale>
<asrwt>0</asrwt>
<pdfrwt beam="1">  1        2 0.64996356E+00 0.30879541E+04</pdfrwt>
<pdfrwt beam="2">  1       -2 0.86809238E-01 0.30879541E+04</pdfrwt>
<totfact> 0.21564057E-01</totfact>
</mgrwt>
</event>
<event>
 6    1  0.1001928E-005  0.3407688E+04  0.7818608E-02  0.8136022E-01
         -2   -1    0    0    0  501 -0.00000000000E+00  0.00000000000E+00  0.95597796135E+03  0.95597796135E+03  0.00000000000E+00 0. -1.
          2   -1    0    0  501    0  0.00000000000E+00 -0.00000000000E+00 -0.30367684017E+04  0.30367684017E+04  0.00000000000E+00 0.  1.
         23    2    1    2    0    0 -0.11958064514E+04 -0.43772356109E+03  0.28311211737E+03  0.13076783402E+04  0.91187637331E+02 0.  0.
         11    1    3    3    0    0 -0.95637734802E+03 -0.35746525775E+03  0.18994644990E+03  0.10385175473E+04  0.00000000000E+00 0. -1.
        -11    1    3    3    0    0 -0.23942910337E+03 -0.80258303338E+02  0.93165667476E+02  0.26916079282E+03  0.00000000000E+00 0.  1.
         22    1    1    2    0    0  0.11958064514E+04  0.43772356109E+03 -0.23639025577E+04  0.26850680229E+04  0.00000000000E+00 0.  1.
<mgrwt>
<rscale>  0 0.34076876E+04</rscale>
<asrwt>0</asrwt>
<pdfrwt beam="1">  1        2 0.46719514E+00 0.34076876E+04</pdfrwt>
<pdfrwt beam="2">  1       -2 0.14707353E+00 0.34076876E+04</pdfrwt>
<totfact> 0.43107052E-01</totfact>
</mgrwt>
</event>
<event>
 6    1  0.1001928E-005  0.9521864E+03  0.7818608E-02  0.9362599E-01
          3   -1    0    0  501    0  0.00000000000E+00  0.00000000000E+00  0.56520430640E+03  0.56520430640E+03  0.00000000000E+00 0. -1.
         -3   -1    0    0    0  501 -0.00000000000E+00 -0.00000000000E+00 -0.40103149885E+03  0.40103149885E+03  0.00000000000E+00 0.  1.
         23    2    1    2    0    0  0.24179838721E+03 -0.37249582805E+03 -0.74406388150E+02  0.46211316680E+03  0.10388775849E+03 0.  0.
         13    1    3    3    0    0  0.79003661099E+02 -0.21280647830E+03 -0.52744394229E+02  0.23304537497E+03  0.00000000000E+00 0.  1.
        -13    1    3    3    0    0  0.16279472611E+03 -0.15968934975E+03 -0.21661993921E+02  0.22906779183E+03  0.00000000000E+00 0. -1.
         22    1    1    2    0    0 -0.24179838721E+03  0.37249582805E+03  0.23857919570E+03  0.50412263845E+03  0.00000000000E+00 0. -1.
<mgrwt>
<rscale>  0 0.95218639E+03</rscale>
<asrwt>0</asrwt>
<pdfrwt beam="1">  1        3 0.86954509E-01 0.95218639E+03</pdfrwt>
<pdfrwt beam="2">  1       -3 0.61697154E-01 0.95218639E+03</pdfrwt>
<totfact> 0.80982562E+00</totfact>
</mgrwt>
</event>
<event>
 6    1  0.1145552E-005  0.3327503E+04  0.7818608E-02  0.8155932E-01
          2   -1    0    0  501    0  0.00000000000E+00  0.00000000000E+00  0.23665927527E+04  0.23665927527E+04  0.00000000000E+00 0. -1.
         -2   -1    0    0    0  501 -0.00000000000E+00 -0.00000000000E+00 -0.11696433625E+04  0.11696433625E+04  0.00000000000E+00 0.  1.
         23    2    1    2    0    0  0.68349625950E+03 -0.13187170704E+04  0.13927893465E+04  0.20380588437E+04  0.87406166561E+02 0.  0.
         13    1    3    3    0    0  0.20228654457E+03 -0.47255879793E+03  0.50493428924E+03  0.72054861049E+03  0.00000000000E+00 0. -1.
        -13    1    3    3    0    0  0.48120971493E+03 -0.84615827244E+03  0.88785505728E+03  0.13175102332E+04  0.00000000000E+00 0.  1.
         22    1    1    2    0    0 -0.68349625950E+03  0.13187170704E+04 -0.19583995631E+03  0.14981772715E+04  0.00000000000E+00 0.  1.
<mgrwt>
<rscale>  0 0.33275033E+04</rscale>
<asrwt>0</asrwt>
<pdfrwt beam="1">  1        2 0.36409119E+00 0.33275033E+04</pdfrwt>
<pdfrwt beam="2">  1       -2 0.17994513E+00 0.33275033E+04</pdfrwt>
<totfact> 0.62827837E-01</totfact>
</mgrwt>
</event>
<event>
 6    1  0.1001928E-005  0.2781334E+04  0.7818608E-02  0.8309087E-01
          2   -1    0    0  501    0  0.00000000000E+00  0.00000000000E+00  0.22268000635E+04  0.22268000635E+04  0.00000000000E+00 0. -1.
         -2   -1    0    0    0  501 -0.00000000000E+00 -0.00000000000E+00 -0.86849039318E+03  0.86849039318E+03  0.00000000000E+00 0.  1.
         23    2    1    2    0    0 -0.97413353562E+03  0.98995742699E+03  0.71481547535E+03  0.15645923704E+04  0.89645240293E+02 0.  0.
         11    1    3    3    0    0 -0.20242072771E+03  0.25729923904E+03  0.18129348131E+03  0.37422503362E+03  0.00000000000E+00 0. -1.
        -11    1    3    3    0    0 -0.77171280791E+03  0.73265818794E+03  0.53352199404E+03  0.11903673367E+04  0.00000000000E+00 0.  1.
         22    1    1    2    0    0  0.97413353562E+03 -0.98995742699E+03  0.64349419494E+03  0.15306980863E+04  0.00000000000E+00 0.  1.
<mgrwt>
<rscale>  0 0.27813338E+04</rscale>
<asrwt>0</asrwt>
<pdfrwt beam="1">  1        2 0.34258462E+00 0.27813338E+04</pdfrwt>
<pdfrwt beam="2">  1       -2 0.13361391E+00 0.27813338E+04</pdfrwt>
<totfact> 0.17603911E+00</totfact>
</mgrwt>
</event>
<event>
 6    1  0.1001928E-005  0.1525532E+04  0.7818608E-02  0.8867650E-01
          2   -1    0    0  501    0  0.00000000000E+00  0.00000000000E+00  0.90877071074E+03  0.90877071074E+03  0.00000000000E+00 0.  1.
         -2   -1    0    0    0  501 -0.00000000000E+00 -0.00000000000E+00 -0.64021849850E+03  0.64021849850E+03  0.00000000000E+00 0. -1.
         23    2    1    2    0    0 -0.48422305702E+03  0.27351528544E+03 -0.39145337369E+03  0.68591913458E+03  0.89256568947E+02 0.  0.
         13    1    3    3    0    0 -0.43752483582E+03  0.27139585376E+03 -0.34337851838E+03  0.61886387702E+03  0.00000000000E+00 0. -1.
        -13    1    3    3    0    0 -0.46698221196E+02  0.21194316755E+01 -0.48074855308E+02  0.67055257560E+02  0.00000000000E+00 0.  1.
         22    1    1    2    0    0  0.48422305702E+03 -0.27351528544E+03  0.66000558592E+03  0.86307007465E+03  0.00000000000E+00 0.  1.
<mgrwt>
<rscale>  0 0.15255318E+04</rscale>
<asrwt>0</asrwt>
<pdfrwt beam="1">  1        2 0.13981088E+00 0.15255318E+04</pdfrwt>
<pdfrwt beam="2">  1       -2 0.98495154E-01 0.15255318E+04</pdfrwt>
<totfact> 0.23885856E+01</totfact>
</mgrwt>
</event>
<event>
 6    1  0.1001928E-005  0.3840668E+03  0.7818608E-02  0.1049441E+00
          2   -1    0    0  501    0  0.00000000000E+00  0.00000000000E+00  0.36166510517E+03  0.36166510517E+03  0.00000000000E+00 0. -1.
         -2   -1    0    0    0  501 -0.00000000000E+00 -0.00000000000E+00 -0.10196401718E+03  0.10196401718E+03  0.00000000000E+00 0.  1.
         23    2    1    2    0    0  0.28277832460E+02  0.15729993019E+03  0.25099279371E+03  0.30357057607E+03  0.60123275989E+02 0.  0.
         13    1    3    3    0    0  0.40364847273E+02  0.13028605413E+03  0.22958381549E+03  0.26704401347E+03  0.00000000000E+00 0. -1.
        -13    1    3    3    0    0 -0.12087014814E+02  0.27013876065E+02  0.21408978223E+02  0.36526562605E+02  0.00000000000E+00 0.  1.
         22    1    1    2    0    0 -0.28277832460E+02 -0.15729993019E+03  0.87082942811E+01  0.16005854628E+03  0.00000000000E+00 0.  1.
<mgrwt>
<rscale>  0 0.38406680E+03</rscale>
<asrwt>0</asrwt>
<pdfrwt beam="1">  1        2 0.55640785E-01 0.38406680E+03</pdfrwt>
<pdfrwt beam="2">  1       -2 0.15686772E-01 0.38406680E+03</pdfrwt>
<totfact> 0.28481290E+03</totfact>
</mgrwt>
</event>
<event>
 6    1  0.1001928E-005  0.1114600E+04  0.7818608E-02  0.9191077E-01
          2   -1    0    0  501    0  0.00000000000E+00  0.00000000000E+00  0.14515834460E+04  0.14515834460E+04  0.00000000000E+00 0. -1.
         -2   -1    0    0    0  501 -0.00000000000E+00 -0.00000000000E+00 -0.21396177027E+03  0.21396177027E+03  0.00000000000E+00 0.  1.
         23    2    1    2    0    0  0.41423566178E+02 -0.11235766378E+02  0.14472306701E+04  0.14515870784E+04  0.10385701427E+03 0.  0.
         13    1    3    3    0    0  0.42979876161E+02 -0.45770274930E+02  0.53014360584E+03  0.53384869639E+03  0.00000000000E+00 0.  1.
        -13    1    3    3    0    0 -0.15563099830E+01  0.34534508552E+02  0.91708706423E+03  0.91773838198E+03  0.00000000000E+00 0. -1.
         22    1    1    2    0    0 -0.41423566178E+02  0.11235766378E+02 -0.20960899432E+03  0.21395813792E+03  0.00000000000E+00 0.  1.
<mgrwt>
<rscale>  0 0.11146001E+04</rscale>
<asrwt>0</asrwt>
<pdfrwt beam="1">  1        2 0.22332052E+00 0.11146001E+04</pdfrwt>
<pdfrwt beam="2">  1       -2 0.32917196E-01 0.11146001E+04</pdfrwt>
<totfact> 0.11541406E+02</totfact>
</mgrwt>
</event>
<event>
 6    1  0.1001928E-005  0.1156450E+04  0.7818608E-02  0.9151854E-01
          2   -1    0    0  501    0  0.00000000000E+00  0.00000000000E+00  0.22127437886E+04  0.22127437886E+04  0.00000000000E+00 0. -1.
         -2   -1    0    0    0  501 -0.00000000000E+00 -0.00000000000E+00 -0.15109925301E+03  0.15109925301E+03  0.00000000000E+00 0.  1.
         23    2    1    2    0    0  0.50233264616E+03  0.16258474591E+03  0.57455502635E+03  0.78580403845E+03  0.92750318241E+02 0.  0.
         11    1    3    3    0    0  0.13994504211E+03  0.38366573574E+01  0.16442293818E+03  0.21594961762E+03  0.00000000000E+00 0.  1.
        -11    1    3    3    0    0  0.36238760404E+03  0.15874808855E+03  0.41013208818E+03  0.56985442082E+03  0.00000000000E+00 0. -1.
         22    1    1    2    0    0 -0.50233264616E+03 -0.16258474591E+03  0.14870895092E+04  0.15780390032E+04  0.00000000000E+00 0. -1.
<mgrwt>
<rscale>  0 0.11564496E+04</rscale>
<asrwt>0</asrwt>
<pdfrwt beam="1">  1        2 0.34042210E+00 0.11564496E+04</pdfrwt>
<pdfrwt beam="2">  1       -2 0.23246040E-01 0.11564496E+04</pdfrwt>
<totfact> 0.82523980E+01</totfact>
</mgrwt>
</event>
<event>
 6    1  0.1001928E-005  0.3145611E+04  0.7818608E-02  0.8203331E-01
         -1   -1    0    0    0  501 -0.00000000000E+00  0.00000000000E+00  0.70859454799E+03  0.70859454799E+03  0.00000000000E+00 0.  1.
          1   -1    0    0  501    0  0.00000000000E+00 -0.00000000000E+00 -0.34910193855E+04  0.34910193855E+04  0.00000000000E+00 0. -1.
         23    2    1    2    0    0  0.97538372009E+03 -0.12221403008E+04 -0.16045074561E+04  0.22419393758E+04  0.82750661522E+02 0.  0.
         13    1    3    3    0    0  0.14999872261E+03 -0.23436248906E+03 -0.30359571174E+03  0.41182004474E+03  0.00000000000E+00 0. -1.
        -13    1    3    3    0    0  0.82538499748E+03 -0.98777781174E+03 -0.13009117443E+04  0.18301193311E+04  0.00000000000E+00 0.  1.
         22    1    1    2    0    0 -0.97538372009E+03  0.12221403008E+04 -0.11779173814E+04  0.19576745577E+04  0.00000000000E+00 0.  1.
<mgrwt>
<rscale>  0 0.31456111E+04</rscale>
<asrwt>0</asrwt>
<pdfrwt beam="1">  1        1 0.53707991E+00 0.31456111E+04</pdfrwt>
<pdfrwt beam="2">  1       -1 0.10901454E+00 0.31456111E+04</pdfrwt>
<totfact> 0.16624716E-01</totfact>
</mgrwt>
</event>
<event>
 6    1  0.1001928E-005  0.2998003E+04  0.7818608E-02  0.8244301E-01
          2   -1    0    0  501    0  0.00000000000E+00  0.00000000000E+00  0.31339780457E+04  0.31339780457E+04  0.00000000000E+00 0. -1.
         -2   -1    0    0    0  501 -0.00000000000E+00 -0.00000000000E+00 -0.71698200951E+03  0.71698200951E+03  0.00000000000E+00 0.  1.
         23    2    1    2    0    0 -0.14881275095E+04 -0.10591710518E+03  0.10416599062E+04  0.18218490706E+04  0.91305849704E+02 0.  0.
         11    1    3    3    0    0 -0.13021934164E+04 -0.63747281994E+02  0.89697269880E+03  0.15825079564E+04  0.00000000000E+00 0. -1.
        -11    1    3    3    0    0 -0.18593409308E+03 -0.42169823190E+02  0.14468720741E+03  0.23934111420E+03  0.00000000000E+00 0.  1.
         22    1    1    2    0    0  0.14881275095E+04  0.10591710518E+03  0.13753361300E+04  0.20291109846E+04  0.00000000000E+00 0.  1.
<mgrwt>
<rscale>  0 0.29980033E+04</rscale>
<asrwt>0</asrwt>
<pdfrwt beam="1">  1        2 0.48215046E+00 0.29980033E+04</pdfrwt>
<pdfrwt beam="2">  1       -2 0.11030493E+00 0.29980033E+04</pdfrwt>
<totfact> 0.79909952E-01</totfact>
</mgrwt>
</event>
<event>
 6    1  0.1001928E-005  0.5418151E+04  0.7818608E-02  0.7767053E-01
          1   -1    0    0  501    0  0.00000000000E+00  0.00000000000E+00  0.40192831589E+04  0.40192831589E+04  0.00000000000E+00 0. -1.
         -1   -1    0    0    0  501 -0.00000000000E+00 -0.00000000000E+00 -0.18259701133E+04  0.18259701133E+04  0.00000000000E+00 0.  1.
         23    2    1    2    0    0 -0.79481312579E+03 -0.22201089733E+04  0.25341148733E+04  0.34626585430E+04  0.87488492050E+02 0.  0.
         13    1    3    3    0    0 -0.44258776968E+03 -0.12270926298E+04  0.13379865678E+04  0.18686487931E+04  0.00000000000E+00 0. -1.
        -13    1    3    3    0    0 -0.35222535611E+03 -0.99301634347E+03  0.11961283054E+04  0.15940097500E+04  0.00000000000E+00 0.  1.
         22    1    1    2    0    0  0.79481312579E+03  0.22201089733E+04 -0.34080182768E+03  0.23825947293E+04  0.00000000000E+00 0.  1.
<mgrwt>
<rscale>  0 0.54181513E+04</rscale>
<asrwt>0</asrwt>
<pdfrwt beam="1">  1        1 0.61835126E+00 0.54181513E+04</pdfrwt>
<pdfrwt beam="2">  1       -1 0.28091848E+00 0.54181513E+04</pdfrwt>
<totfact> 0.28193322E-03</totfact>
</mgrwt>
</event>
<event>
 6    1  0.1001928E-005  0.2364217E+04  0.7818608E-02  0.8453023E-01
         -1   -1    0    0    0  501 -0.00000000000E+00  0.00000000000E+00  0.48228939181E+03  0.48228939181E+03  0.00000000000E+00 0.  1.
          1   -1    0    0  501    0  0.00000000000E+00 -0.00000000000E+00 -0.28973898254E+04  0.28973898254E+04  0.00000000000E+00 0. -1.
         23    2    1    2    0    0  0.83522158392E+03 -0.21866032455E+03 -0.23599424171E+04  0.25145492625E+04  0.90677173590E+02 0.  0.
         11    1    3    3    0    0  0.48288114596E+03 -0.15446355082E+03 -0.12788171460E+04  0.13756476593E+04  0.00000000000E+00 0. -1.
        -11    1    3    3    0    0  0.35234043796E+03 -0.64196773730E+02 -0.10811252711E+04  0.11389016032E+04  0.00000000000E+00 0.  1.
         22    1    1    2    0    0 -0.83522158392E+03  0.21866032455E+03 -0.55158016508E+02  0.86512995472E+03  0.00000000000E+00 0.  1.
<mgrwt>
<rscale>  0 0.23642169E+04</rscale>
<asrwt>0</asrwt>
<pdfrwt beam="1">  1        1 0.44575226E+00 0.23642169E+04</pdfrwt>
<pdfrwt beam="2">  1       -1 0.74198372E-01 0.23642169E+04</pdfrwt>
<totfact> 0.11664996E+00</totfact>
</mgrwt>
</event>
<event>
 6    1  0.1001928E-005  0.5455948E+03  0.7818608E-02  0.1002519E+00
         -2   -1    0    0    0  501 -0.00000000000E+00  0.00000000000E+00  0.62016829407E+02  0.62016829407E+02  0.00000000000E+00 0.  1.
          2   -1    0    0  501    0  0.00000000000E+00 -0.00000000000E+00 -0.11999712820E+04  0.11999712820E+04  0.00000000000E+00 0. -1.
         23    2    1    2    0    0 -0.54817395552E+02 -0.26746489604E+02 -0.11818170785E+04  0.11868598777E+04  0.90688702120E+02 0.  0.
         11    1    3    3    0    0 -0.22849139547E+02 -0.34302113912E+02 -0.18645816385E+03  0.19095906646E+03  0.00000000000E+00 0. -1.
        -11    1    3    3    0    0 -0.31968256005E+02  0.75556243076E+01 -0.99535891465E+03  0.99590081123E+03  0.00000000000E+00 0.  1.
         22    1    1    2    0    0  0.54817395552E+02  0.26746489604E+02  0.43862625855E+02  0.75128233762E+02  0.00000000000E+00 0.  1.
<mgrwt>
<rscale>  0 0.54559477E+03</rscale>
<asrwt>0</asrwt>
<pdfrwt beam="1">  1        2 0.18461095E+00 0.54559477E+03</pdfrwt>
<pdfrwt beam="2">  1       -2 0.95410513E-02 0.54559477E+03</pdfrwt>
<totfact> 0.14199444E+03</totfact>
</mgrwt>
</event>
<event>
 6    1  0.1001928E-005  0.8072767E+03  0.7818608E-02  0.9549544E-01
          2   -1    0    0  501    0  0.00000000000E+00  0.00000000000E+00  0.72940170313E+03  0.72940170313E+03  0.00000000000E+00 0. -1.
         -2   -1    0    0    0  501 -0.00000000000E+00 -0.00000000000E+00 -0.22336650918E+03  0.22336650918E+03  0.00000000000E+00 0.  1.
         23    2    1    2    0    0 -0.25978087823E+03 -0.54625553984E+02  0.60674105751E+03  0.66884616879E+03  0.93543737313E+02 0.  0.
         11    1    3    3    0    0 -0.19242018040E+03 -0.33009595868E+02  0.33204707543E+03  0.38518881026E+03  0.00000000000E+00 0. -1.
        -11    1    3    3    0    0 -0.67360697827E+02 -0.21615958116E+02  0.27469398208E+03  0.28365735853E+03  0.00000000000E+00 0.  1.
         22    1    1    2    0    0  0.25978087823E+03  0.54625553984E+02 -0.10070586356E+03  0.28392204352E+03  0.00000000000E+00 0.  1.
<mgrwt>
<rscale>  0 0.80727669E+03</rscale>
<asrwt>0</asrwt>
<pdfrwt beam="1">  1        2 0.11221565E+00 0.80727669E+03</pdfrwt>
<pdfrwt beam="2">  1       -2 0.34364079E-01 0.80727669E+03</pdfrwt>
<totfact> 0.30992890E+02</totfact>
</mgrwt>
</event>
<event>
 6    1  0.1001928E-005  0.1865027E+04  0.7818608E-02  0.8672463E-01
          2   -1    0    0  501    0  0.00000000000E+00  0.00000000000E+00  0.21408630527E+04  0.21408630527E+04  0.00000000000E+00 0. -1.
         -2   -1    0    0    0  501 -0.00000000000E+00 -0.00000000000E+00 -0.40618278740E+03  0.40618278740E+03  0.00000000000E+00 0.  1.
         23    2    1    2    0    0 -0.87623036955E+03 -0.24945730479E+03  0.11265014949E+04  0.14516509231E+04  0.90973496572E+02 0.  0.
         11    1    3    3    0    0 -0.63905668511E+03 -0.21620353905E+03  0.79463784266E+03  0.10423947036E+04  0.00000000000E+00 0. -1.
        -11    1    3    3    0    0 -0.23717368444E+03 -0.33253765739E+02  0.33186365227E+03  0.40925621953E+03  0.00000000000E+00 0.  1.
         22    1    1    2    0    0  0.87623036955E+03  0.24945730479E+03  0.60817877035E+03  0.10953949170E+04  0.00000000000E+00 0.  1.
<mgrwt>
<rscale>  0 0.18650273E+04</rscale>
<asrwt>0</asrwt>
<pdfrwt beam="1">  1        2 0.32936354E+00 0.18650273E+04</pdfrwt>
<pdfrwt beam="2">  1       -2 0.62489661E-01 0.18650273E+04</pdfrwt>
<totfact> 0.12437500E+01</totfact>
</mgrwt>
</event>
<event>
 6    1  0.1001928E-005  0.8745501E+03  0.7818608E-02  0.9457966E-01
         -2   -1    0    0    0  501 -0.00000000000E+00  0.00000000000E+00  0.58833630801E+03  0.58833630801E+03  0.00000000000E+00 0.  1.
          2   -1    0    0  501    0  0.00000000000E+00 -0.00000000000E+00 -0.32500028182E+03  0.32500028182E+03  0.00000000000E+00 0. -1.
         23    2    1    2    0    0  0.58806796808E+02 -0.45329136098E+01  0.58053722002E+03  0.59069842715E+03  0.91773533004E+02 0.  0.
         11    1    3    3    0    0  0.76813870202E+02 -0.25462969904E+02  0.45742876425E+03  0.46453181576E+03  0.00000000000E+00 0. -1.
        -11    1    3    3    0    0 -0.18007073394E+02  0.20930056294E+02  0.12310845576E+03  0.12616661139E+03  0.00000000000E+00 0.  1.
         22    1    1    2    0    0 -0.58806796808E+02  0.45329136098E+01 -0.31720119382E+03  0.32263816268E+03  0.00000000000E+00 0. -1.
<mgrwt>
<rscale>  0 0.87455009E+03</rscale>
<asrwt>0</asrwt>
<pdfrwt beam="1">  1        2 0.50000043E-01 0.87455009E+03</pdfrwt>
<pdfrwt beam="2">  1       -2 0.90513278E-01 0.87455009E+03</pdfrwt>
<totfact> 0.10521633E+02</totfact>
</mgrwt>
</event>
<event>
 6    1  0.1001928E-005  0.4710555E+04  0.7818608E-02  0.7874777E-01
         -2   -1    0    0    0  501 -0.00000000000E+00  0.00000000000E+00  0.14659446365E+04  0.14659446365E+04  0.00000000000E+00 0.  1.
          2   -1    0    0  501    0  0.00000000000E+00 -0.00000000000E+00 -0.37841353855E+04  0.37841353855E+04  0.00000000000E+00 0. -1.
         23    2    1    2    0    0  0.49237659156E+03  0.14021009618E+04 -0.31948461120E+04  0.35247260176E+04  0.91268857948E+02 0.  0.
         13    1    3    3    0    0  0.28550216328E+03  0.88858713308E+03 -0.19183016028E+04  0.21333025143E+04  0.00000000000E+00 0. -1.
        -13    1    3    3    0    0  0.20687442828E+03  0.51351382876E+03 -0.12765445092E+04  0.13914235033E+04  0.00000000000E+00 0.  1.
         22    1    1    2    0    0 -0.49237659156E+03 -0.14021009618E+04  0.87665536305E+03  0.17253540045E+04  0.00000000000E+00 0.  1.
<mgrwt>
<rscale>  0 0.47105554E+04</rscale>
<asrwt>0</asrwt>
<pdfrwt beam="1">  1        2 0.58217466E+00 0.47105554E+04</pdfrwt>
<pdfrwt beam="2">  1       -2 0.22552995E+00 0.47105554E+04</pdfrwt>
<totfact> 0.34195197E-02</totfact>
</mgrwt>
</event>
<event>
 6    1  0.1001928E-005  0.3243537E+04  0.7818608E-02  0.8177413E-01
          2   -1    0    0  501    0  0.00000000000E+00  0.00000000000E+00  0.26380645459E+04  0.26380645459E+04  0.00000000000E+00 0. -1.
         -2   -1    0    0    0  501 -0.00000000000E+00 -0.00000000000E+00 -0.99699371660E+03  0.99699371660E+03  0.00000000000E+00 0.  1.
         23    2    1    2    0    0 -0.12903014773E+04 -0.97440926931E+03  0.94215643880E+03  0.18735723410E+04  0.90902338618E+02 0.  0.
         11    1    3    3    0    0 -0.11979016498E+04 -0.88038614879E+03  0.88296060474E+03  0.17290655173E+04  0.00000000000E+00 0. -1.
        -11    1    3    3    0    0 -0.92399827562E+02 -0.94023120517E+02  0.59195834060E+02  0.14450682370E+03  0.00000000000E+00 0.  1.
         22    1    1    2    0    0  0.12903014773E+04  0.97440926931E+03  0.69891439048E+03  0.17614859215E+04  0.00000000000E+00 0.  1.
<mgrwt>
<rscale>  0 0.32435374E+04</rscale>
<asrwt>0</asrwt>
<pdfrwt beam="1">  1        2 0.40585608E+00 0.32435374E+04</pdfrwt>
<pdfrwt beam="2">  1       -2 0.15338365E+00 0.32435374E+04</pdfrwt>
<totfact> 0.68442910E-01</totfact>
</mgrwt>
</event>
<event>
 6    1  0.1001928E-005  0.1818272E+04  0.7818608E-02  0.8696643E-01
          2   -1    0    0  501    0  0.00000000000E+00  0.00000000000E+00  0.19629955419E+04  0.19629955419E+04  0.00000000000E+00 0. -1.
         -2   -1    0    0    0  501 -0.00000000000E+00 -0.00000000000E+00 -0.42105435266E+03  0.42105435266E+03  0.00000000000E+00 0.  1.
         23    2    1    2    0    0 -0.53210116426E+03 -0.31718559737E+03  0.16412668326E+04  0.17566712724E+04  0.91644918407E+02 0.  0.
         13    1    3    3    0    0 -0.17510083140E+03 -0.84362628859E+02  0.62873468333E+03  0.65809167775E+03  0.00000000000E+00 0.  1.
        -13    1    3    3    0    0 -0.35700033286E+03 -0.23282296851E+03  0.10125321493E+04  0.10985795946E+04  0.00000000000E+00 0. -1.
         22    1    1    2    0    0  0.53210116426E+03  0.31718559737E+03 -0.99325643366E+02  0.62737862222E+03  0.00000000000E+00 0.  1.
<mgrwt>
<rscale>  0 0.18182715E+04</rscale>
<asrwt>0</asrwt>
<pdfrwt beam="1">  1        2 0.30199931E+00 0.18182715E+04</pdfrwt>
<pdfrwt beam="2">  1       -2 0.64777594E-01 0.18182715E+04</pdfrwt>
<totfact> 0.14523644E+01</totfact>
</mgrwt>
</event>
<event>
 6    1  0.1001928E-005  0.3262875E+04  0.7818608E-02  0.8172407E-01
          2   -1    0    0  501    0  0.00000000000E+00  0.00000000000E+00  0.23941833429E+04  0.23941833429E+04  0.00000000000E+00 0. -1.
         -2   -1    0    0    0  501 -0.00000000000E+00 -0.00000000000E+00 -0.11116893966E+04  0.11116893966E+04  0.00000000000E+00 0.  1.
         23    2    1    2    0    0 -0.79992587082E+03 -0.14174513420E+04  0.54236012695E+03  0.17178996479E+04  0.89302784228E+02 0.  0.
         11    1    3    3    0    0 -0.23808599282E+03 -0.42227821793E+03  0.20492173137E+03  0.52630480646E+03  0.00000000000E+00 0.  1.
        -11    1    3    3    0    0 -0.56183987800E+03 -0.99517312404E+03  0.33743839558E+03  0.11915948414E+04  0.00000000000E+00 0. -1.
         22    1    1    2    0    0  0.79992587082E+03  0.14174513420E+04  0.74013381932E+03  0.17879730916E+04  0.00000000000E+00 0. -1.
<mgrwt>
<rscale>  0 0.32628750E+04</rscale>
<asrwt>0</asrwt>
<pdfrwt beam="1">  1        2 0.36833590E+00 0.32628750E+04</pdfrwt>
<pdfrwt beam="2">  1       -2 0.17102914E+00 0.32628750E+04</pdfrwt>
<totfact> 0.70327528E-01</totfact>
</mgrwt>
</event>
<event>
 6    1  0.1001928E-005  0.8917171E+03  0.7818608E-02  0.9435995E-01
         -1   -1    0    0    0  501 -0.00000000000E+00  0.00000000000E+00  0.45463362165E+03  0.45463362165E+03  0.00000000000E+00 0.  1.
          1   -1    0    0  501    0  0.00000000000E+00 -0.00000000000E+00 -0.43725286963E+03  0.43725286963E+03  0.00000000000E+00 0. -1.
         23    2    1    2    0    0  0.32652320772E+02  0.18470448208E+03 -0.39079354231E+03  0.44267810500E+03  0.89790824576E+02 0.  0.
         13    1    3    3    0    0 -0.31300593696E+02  0.54799172210E+02 -0.12312495967E+03  0.13835617852E+03  0.00000000000E+00 0.  1.
        -13    1    3    3    0    0  0.63952914468E+02  0.12990530987E+03 -0.26766858264E+03  0.30432192648E+03  0.00000000000E+00 0. -1.
         22    1    1    2    0    0 -0.32652320772E+02 -0.18470448208E+03  0.40817429434E+03  0.44920838628E+03  0.00000000000E+00 0.  1.
<mgrwt>
<rscale>  0 0.89171712E+03</rscale>
<asrwt>0</asrwt>
<pdfrwt beam="1">  1        1 0.67269672E-01 0.89171712E+03</pdfrwt>
<pdfrwt beam="2">  1       -1 0.69943634E-01 0.89171712E+03</pdfrwt>
<totfact> 0.11098473E+02</totfact>
</mgrwt>
</event>
<event>
 6    1  0.1001928E-005  0.1474285E+04  0.7818608E-02  0.8901735E-01
         -2   -1    0    0    0  501 -0.00000000000E+00  0.00000000000E+00  0.62588852584E+03  0.62588852584E+03  0.00000000000E+00 0.  1.
          2   -1    0    0  501    0  0.00000000000E+00 -0.00000000000E+00 -0.86817233520E+03  0.86817233520E+03  0.00000000000E+00 0. -1.
         23    2    1    2    0    0 -0.12388275728E+03 -0.69637887072E+03  0.78862483083E+02  0.71725624579E+03  0.89144611477E+02 0.  0.
         11    1    3    3    0    0 -0.72808840201E+02 -0.22787982963E+03 -0.11855242367E+01  0.23923158118E+03  0.00000000000E+00 0.  1.
        -11    1    3    3    0    0 -0.51073917075E+02 -0.46849904108E+03  0.80048007320E+02  0.47802466461E+03  0.00000000000E+00 0. -1.
         22    1    1    2    0    0  0.12388275728E+03  0.69637887072E+03 -0.32114629244E+03  0.77680461525E+03  0.00000000000E+00 0. -1.
<mgrwt>
<rscale>  0 0.14742851E+04</rscale>
<asrwt>0</asrwt>
<pdfrwt beam="1">  1        2 0.13356497E+00 0.14742851E+04</pdfrwt>
<pdfrwt beam="2">  1       -2 0.96290543E-01 0.14742851E+04</pdfrwt>
<totfact> 0.26955944E+01</totfact>
</mgrwt>
</event>
<event>
 6    1  0.1001928E-005  0.1994986E+04  0.7818608E-02  0.8608969E-01
          2   -1    0    0  501    0  0.00000000000E+00  0.00000000000E+00  0.94086937054E+03  0.94086937054E+03  0.00000000000E+00 0. -1.
         -2   -1    0    0    0  501 -0.00000000000E+00 -0.00000000000E+00 -0.10575242532E+04  0.10575242532E+04  0.00000000000E+00 0.  1.
         23    2    1    2    0    0  0.65350461630E+03  0.42833403639E+03  0.55946359123E+03  0.96511025457E+03  0.88881737763E+02 0.  0.
         13    1    3    3    0    0  0.38789929496E+03  0.22923799874E+03  0.36913222582E+03  0.58247276608E+03  0.00000000000E+00 0. -1.
        -13    1    3    3    0    0  0.26560532134E+03  0.19909603765E+03  0.19033136542E+03  0.38263748849E+03  0.00000000000E+00 0.  1.
         22    1    1    2    0    0 -0.65350461630E+03 -0.42833403639E+03 -0.67611847387E+03  0.10332833692E+04  0.00000000000E+00 0.  1.
<mgrwt>
<rscale>  0 0.19949859E+04</rscale>
<asrwt>0</asrwt>
<pdfrwt beam="1">  1        2 0.14474913E+00 0.19949859E+04</pdfrwt>
<pdfrwt beam="2">  1       -2 0.16269604E+00 0.19949859E+04</pdfrwt>
<totfact> 0.61559202E+00</totfact>
</mgrwt>
</event>
<event>
 6    1  0.1001928E-005  0.8976660E+03  0.7818608E-02  0.9428504E-01
          2   -1    0    0  501    0  0.00000000000E+00  0.00000000000E+00  0.12568358910E+04  0.12568358910E+04  0.00000000000E+00 0. -1.
         -2   -1    0    0    0  501 -0.00000000000E+00 -0.00000000000E+00 -0.16028430849E+03  0.16028430849E+03  0.00000000000E+00 0.  1.
         23    2    1    2    0    0  0.30920271308E+03  0.17033575189E+03  0.97952061897E+03  0.10452104893E+04  0.91562752788E+02 0.  0.
         11    1    3    3    0    0  0.22172045015E+03  0.12713940041E+03  0.57767769325E+03  0.63169288616E+03  0.00000000000E+00 0.  1.
        -11    1    3    3    0    0  0.87482262927E+02  0.43196351481E+02  0.40184292573E+03  0.41351760309E+03  0.00000000000E+00 0. -1.
         22    1    1    2    0    0 -0.30920271308E+03 -0.17033575189E+03  0.11703096354E+03  0.37190971025E+03  0.00000000000E+00 0.  1.
<mgrwt>
<rscale>  0 0.89766602E+03</rscale>
<asrwt>0</asrwt>
<pdfrwt beam="1">  1        2 0.19335936E+00 0.89766602E+03</pdfrwt>
<pdfrwt beam="2">  1       -2 0.24659125E-01 0.89766602E+03</pdfrwt>
<totfact> 0.25807848E+02</totfact>
</mgrwt>
</event>
<event>
 6    1  0.1001928E-005  0.1192114E+04  0.7818608E-02  0.9119787E-01
          2   -1    0    0  501    0  0.00000000000E+00  0.00000000000E+00  0.30387127633E+03  0.30387127633E+03  0.00000000000E+00 0. -1.
         -2   -1    0    0    0  501 -0.00000000000E+00 -0.00000000000E+00 -0.11691926109E+04  0.11691926109E+04  0.00000000000E+00 0.  1.
         23    2    1    2    0    0  0.26841484142E+03  0.50191867287E+03 -0.23217390630E+03  0.62168585886E+03  0.92842356044E+02 0.  0.
         11    1    3    3    0    0  0.20668863383E+03  0.29139943580E+03 -0.14833928741E+03  0.38683118634E+03  0.00000000000E+00 0. -1.
        -11    1    3    3    0    0  0.61726207585E+02  0.21051923707E+03 -0.83834618890E+02  0.23485467252E+03  0.00000000000E+00 0.  1.
         22    1    1    2    0    0 -0.26841484142E+03 -0.50191867287E+03 -0.63314742830E+03  0.85137802839E+03  0.00000000000E+00 0. -1.
<mgrwt>
<rscale>  0 0.11921142E+04</rscale>
<asrwt>0</asrwt>
<pdfrwt beam="1">  1        2 0.46749427E-01 0.11921142E+04</pdfrwt>
<pdfrwt beam="2">  1       -2 0.17987579E+00 0.11921142E+04</pdfrwt>
<totfact> 0.19392198E+01</totfact>
</mgrwt>
</event>
<event>
 6    1  0.1001928E-005  0.2657883E+04  0.7818608E-02  0.8348801E-01
          2   -1    0    0  501    0  0.00000000000E+00  0.00000000000E+00  0.98161574794E+03  0.98161574794E+03  0.00000000000E+00 0. -1.
         -2   -1    0    0    0  501 -0.00000000000E+00 -0.00000000000E+00 -0.17991611842E+04  0.17991611842E+04  0.00000000000E+00 0.  1.
         23    2    1    2    0    0  0.41111268006E+03  0.11599933913E+04 -0.92861117524E+03  0.15450852627E+04  0.10184032015E+03 0.  0.
         13    1    3    3    0    0  0.23942554227E+03  0.68453757783E+03 -0.60921018812E+03  0.94712899811E+03  0.00000000000E+00 0. -1.
        -13    1    3    3    0    0  0.17168713779E+03  0.47545581343E+03 -0.31940098711E+03  0.59795626460E+03  0.00000000000E+00 0.  1.
         22    1    1    2    0    0 -0.41111268006E+03 -0.11599933913E+04  0.11106573898E+03  0.12356916694E+04  0.00000000000E+00 0. -1.
<mgrwt>
<rscale>  0 0.26578826E+04</rscale>
<asrwt>0</asrwt>
<pdfrwt beam="1">  1        2 0.15101781E+00 0.26578826E+04</pdfrwt>
<pdfrwt beam="2">  1       -2 0.27679403E+00 0.26578826E+04</pdfrwt>
<totfact> 0.10039089E+00</totfact>
</mgrwt>
</event>
<event>
 6    1  0.1001928E-005  0.1136617E+04  0.7818608E-02  0.9170220E-01
          2   -1    0    0  501    0  0.00000000000E+00  0.00000000000E+00  0.84740352967E+03  0.84740352967E+03  0.00000000000E+00 0. -1.
         -2   -1    0    0    0  501 -0.00000000000E+00 -0.00000000000E+00 -0.38113421477E+03  0.38113421477E+03  0.00000000000E+00 0.  1.
         23    2    1    2    0    0  0.43855473723E+03 -0.35353677221E+03  0.19407494929E+03  0.60291143464E+03  0.92296290421E+02 0.  0.
         13    1    3    3    0    0  0.39765927320E+03 -0.31727744664E+03  0.14381262300E+03  0.52865862922E+03  0.00000000000E+00 0.  1.
        -13    1    3    3    0    0  0.40895464026E+02 -0.36259325567E+02  0.50262326295E+02  0.74252805422E+02  0.00000000000E+00 0. -1.
         22    1    1    2    0    0 -0.43855473723E+03  0.35353677221E+03  0.27219436561E+03  0.62562630980E+03  0.00000000000E+00 0.  1.
<mgrwt>
<rscale>  0 0.11366169E+04</rscale>
<asrwt>0</asrwt>
<pdfrwt beam="1">  1        2 0.13036977E+00 0.11366169E+04</pdfrwt>
<pdfrwt beam="2">  1       -2 0.58636033E-01 0.11366169E+04</pdfrwt>
<totfact> 0.85868409E+01</totfact>
</mgrwt>
</event>
<event>
 6    1  0.1001928E-005  0.2114974E+04  0.7818608E-02  0.8554676E-01
          2   -1    0    0  501    0  0.00000000000E+00  0.00000000000E+00  0.14273833439E+04  0.14273833439E+04  0.00000000000E+00 0. -1.
         -2   -1    0    0    0  501 -0.00000000000E+00 -0.00000000000E+00 -0.78344698745E+03  0.78344698745E+03  0.00000000000E+00 0.  1.
         23    2    1    2    0    0  0.76156007976E+03 -0.28987842756E+03 -0.37844348843E+03  0.90344216978E+03  0.94789357805E+02 0.  0.
         11    1    3    3    0    0  0.38540724777E+03 -0.12670443709E+03 -0.14026591174E+03  0.42926365675E+03  0.00000000000E+00 0. -1.
        -11    1    3    3    0    0  0.37615283199E+03 -0.16317399047E+03 -0.23817757668E+03  0.47417851302E+03  0.00000000000E+00 0.  1.
         22    1    1    2    0    0 -0.76156007976E+03  0.28987842756E+03  0.10223798449E+04  0.13073881616E+04  0.00000000000E+00 0. -1.
<mgrwt>
<rscale>  0 0.21149744E+04</rscale>
<asrwt>0</asrwt>
<pdfrwt beam="1">  1        2 0.21959744E+00 0.21149744E+04</pdfrwt>
<pdfrwt beam="2">  1       -2 0.12053031E+00 0.21149744E+04</pdfrwt>
<totfact> 0.67487373E+00</totfact>
</mgrwt>
</event>
<event>
 6    1  0.1001928E-005  0.3958102E+04  0.7818608E-02  0.8013052E-01
          2   -1    0    0  501    0  0.00000000000E+00  0.00000000000E+00  0.25303601549E+04  0.25303601549E+04  0.00000000000E+00 0. -1.
         -2   -1    0    0    0  501 -0.00000000000E+00 -0.00000000000E+00 -0.15478600818E+04  0.15478600818E+04  0.00000000000E+00 0.  1.
         23    2    1    2    0    0  0.16070669627E+04  0.95957191083E+03 -0.16843675992E+03  0.18809268861E+04  0.77926466842E+02 0.  0.
         13    1    3    3    0    0  0.13640877674E+04  0.78841914541E+03 -0.12400641779E+03  0.15804169633E+04  0.00000000000E+00 0. -1.
        -13    1    3    3    0    0  0.24297919526E+03  0.17115276542E+03 -0.44430342128E+02  0.30050992286E+03  0.00000000000E+00 0.  1.
         22    1    1    2    0    0 -0.16070669627E+04 -0.95957191083E+03  0.11509368331E+04  0.21972933505E+04  0.00000000000E+00 0. -1.
<mgrwt>
<rscale>  0 0.39581023E+04</rscale>
<asrwt>0</asrwt>
<pdfrwt beam="1">  1        2 0.38928618E+00 0.39581023E+04</pdfrwt>
<pdfrwt beam="2">  1       -2 0.23813232E+00 0.39581023E+04</pdfrwt>
<totfact> 0.20127932E-01</totfact>
</mgrwt>
</event>
<event>
 6    1  0.1001928E-005  0.1287821E+04  0.7818608E-02  0.9039279E-01
          1   -1    0    0  501    0  0.00000000000E+00  0.00000000000E+00  0.78623768346E+03  0.78623768346E+03  0.00000000000E+00 0. -1.
         -1   -1    0    0    0  501 -0.00000000000E+00 -0.00000000000E+00 -0.52734797350E+03  0.52734797350E+03  0.00000000000E+00 0.  1.
         23    2    1    2    0    0 -0.37025065124E+03 -0.12300693092E+03  0.64867195757E+03  0.76209091505E+03  0.88266666761E+02 0.  0.
         13    1    3    3    0    0 -0.24205324787E+03 -0.42742072594E+02  0.44538445403E+03  0.50870813977E+03  0.00000000000E+00 0. -1.
        -13    1    3    3    0    0 -0.12819740337E+03 -0.80264858322E+02  0.20328750354E+03  0.25338277528E+03  0.00000000000E+00 0.  1.
         22    1    1    2    0    0  0.37025065124E+03  0.12300693092E+03 -0.38978224762E+03  0.55149474191E+03  0.00000000000E+00 0.  1.
<mgrwt>
<rscale>  0 0.12878212E+04</rscale>
<asrwt>0</asrwt>
<pdfrwt beam="1">  1        1 0.12095964E+00 0.12878212E+04</pdfrwt>
<pdfrwt beam="2">  1       -1 0.81130457E-01 0.12878212E+04</pdfrwt>
<totfact> 0.33857092E+01</totfact>
</mgrwt>
</event>
<event>
 6    1  0.1001928E-005  0.2497574E+04  0.7818608E-02  0.8403850E-01
         -1   -1    0    0    0  501 -0.00000000000E+00  0.00000000000E+00  0.83261387028E+03  0.83261387028E+03  0.00000000000E+00 0.  1.
          1   -1    0    0  501    0  0.00000000000E+00 -0.00000000000E+00 -0.18729801556E+04  0.18729801556E+04  0.00000000000E+00 0. -1.
         23    2    1    2    0    0 -0.95805982453E+03  0.42527654747E+03 -0.12528594359E+04  0.16360651070E+04  0.91178391008E+02 0.  0.
         13    1    3    3    0    0 -0.66290489311E+03  0.33941452771E+03 -0.88116124420E+03  0.11537288491E+04  0.00000000000E+00 0. -1.
        -13    1    3    3    0    0 -0.29515493142E+03  0.85862019756E+02 -0.37169819168E+03  0.48233625790E+03  0.00000000000E+00 0.  1.
         22    1    1    2    0    0  0.95805982453E+03 -0.42527654747E+03  0.21249315060E+03  0.10695289189E+04  0.00000000000E+00 0. -1.
<mgrwt>
<rscale>  0 0.24975742E+04</rscale>
<asrwt>0</asrwt>
<pdfrwt beam="1">  1        1 0.28815079E+00 0.24975742E+04</pdfrwt>
<pdfrwt beam="2">  1       -1 0.12809444E+00 0.24975742E+04</pdfrwt>
<totfact> 0.16997946E+00</totfact>
</mgrwt>
</event>
<event>
 6    1  0.1001928E-005  0.7720919E+03  0.7818608E-02  0.9601315E-01
         -3   -1    0    0    0  501 -0.00000000000E+00  0.00000000000E+00  0.29750070974E+03  0.29750070974E+03  0.00000000000E+00 0.  1.
          3   -1    0    0  501    0  0.00000000000E+00 -0.00000000000E+00 -0.50094500098E+03  0.50094500098E+03  0.00000000000E+00 0. -1.
         23    2    1    2    0    0  0.15838586910E+03  0.66699484602E+02 -0.45442691842E+03  0.49426289740E+03  0.90868491679E+02 0.  0.
         11    1    3    3    0    0  0.20921612480E+02  0.35519840972E+02 -0.19200637375E+03  0.19638182332E+03  0.00000000000E+00 0.  1.
        -11    1    3    3    0    0  0.13746425662E+03  0.31179643631E+02 -0.26242054468E+03  0.29788107408E+03  0.00000000000E+00 0. -1.
         22    1    1    2    0    0 -0.15838586910E+03 -0.66699484602E+02  0.25098262718E+03  0.30418281333E+03  0.00000000000E+00 0.  1.
<mgrwt>
<rscale>  0 0.77209195E+03</rscale>
<asrwt>0</asrwt>
<pdfrwt beam="1">  1        3 0.77068460E-01 0.77209195E+03</pdfrwt>
<pdfrwt beam="2">  1       -3 0.45769341E-01 0.77209195E+03</pdfrwt>
<totfact> 0.19785233E+01</totfact>
</mgrwt>
</event>
<event>
 6    1  0.1001928E-005  0.1891926E+04  0.7818608E-02  0.8658886E-01
         -1   -1    0    0    0  501 -0.00000000000E+00  0.00000000000E+00  0.15619105157E+04  0.15619105157E+04  0.00000000000E+00 0.  1.
          1   -1    0    0  501    0  0.00000000000E+00 -0.00000000000E+00 -0.57291731548E+03  0.57291731548E+03  0.00000000000E+00 0. -1.
         23    2    1    2    0    0  0.64169741268E+03 -0.66951719662E+03  0.29741069023E+03  0.97797208644E+03  0.89148399799E+02 0.  0.
         13    1    3    3    0    0  0.59708887330E+03 -0.64902755326E+03  0.28979441617E+03  0.92829558394E+03  0.00000000000E+00 0.  1.
        -13    1    3    3    0    0  0.44608539381E+02 -0.20489643354E+02  0.76162740598E+01  0.49676502504E+02  0.00000000000E+00 0. -1.
         22    1    1    2    0    0 -0.64169741268E+03  0.66951719662E+03  0.69158250997E+03  0.11568557447E+04  0.00000000000E+00 0. -1.
<mgrwt>
<rscale>  0 0.18919256E+04</rscale>
<asrwt>0</asrwt>
<pdfrwt beam="1">  1        1 0.88141126E-01 0.18919256E+04</pdfrwt>
<pdfrwt beam="2">  1       -1 0.24029392E+00 0.18919256E+04</pdfrwt>
<totfact> 0.27658808E+00</totfact>
</mgrwt>
</event>
<event>
 6    1  0.1001928E-005  0.9885079E+03  0.7818608E-02  0.9321240E-01
         -2   -1    0    0    0  501 -0.00000000000E+00  0.00000000000E+00  0.14281529274E+03  0.14281529274E+03  0.00000000000E+00 0.  1.
          2   -1    0    0  501    0  0.00000000000E+00 -0.00000000000E+00 -0.17105098282E+04  0.17105098282E+04  0.00000000000E+00 0. -1.
         23    2    1    2    0    0  0.46342668354E+03 -0.11252155422E+03 -0.57904260136E+03  0.75566486476E+03  0.91179287445E+02 0.  0.
         13    1    3    3    0    0  0.27890216428E+03 -0.22012747669E+02 -0.34535360687E+03  0.44445482569E+03  0.00000000000E+00 0.  1.
        -13    1    3    3    0    0  0.18452451926E+03 -0.90508806552E+02 -0.23368899449E+03  0.31121003907E+03  0.00000000000E+00 0. -1.
         22    1    1    2    0    0 -0.46342668354E+03  0.11252155422E+03 -0.98865193406E+03  0.10976602561E+04  0.00000000000E+00 0.  1.
<mgrwt>
<rscale>  0 0.98850789E+03</rscale>
<asrwt>0</asrwt>
<pdfrwt beam="1">  1        2 0.26315535E+00 0.98850789E+03</pdfrwt>
<pdfrwt beam="2">  1       -2 0.21971584E-01 0.98850789E+03</pdfrwt>
<totfact> 0.17503316E+02</totfact>
</mgrwt>
</event>
<event>
 6    1  0.1001928E-005  0.3016038E+04  0.7818608E-02  0.8239166E-01
          1   -1    0    0  501    0  0.00000000000E+00  0.00000000000E+00  0.22634810375E+04  0.22634810375E+04  0.00000000000E+00 0. -1.
         -1   -1    0    0    0  501 -0.00000000000E+00 -0.00000000000E+00 -0.10047010781E+04  0.10047010781E+04  0.00000000000E+00 0.  1.
         23    2    1    2    0    0  0.75071963697E+03  0.12964497639E+04  0.80286527750E+03  0.17022254876E+04  0.92827760425E+02 0.  0.
         11    1    3    3    0    0  0.56372487346E+03  0.89286119884E+03  0.55040366739E+03  0.11907691004E+04  0.00000000000E+00 0. -1.
        -11    1    3    3    0    0  0.18699476352E+03  0.40358856502E+03  0.25246161011E+03  0.51145638718E+03  0.00000000000E+00 0.  1.
         22    1    1    2    0    0 -0.75071963697E+03 -0.12964497639E+04  0.45591468188E+03  0.15659566280E+04  0.00000000000E+00 0.  1.
<mgrwt>
<rscale>  0 0.30160384E+04</rscale>
<asrwt>0</asrwt>
<pdfrwt beam="1">  1        1 0.34822785E+00 0.30160384E+04</pdfrwt>
<pdfrwt beam="2">  1       -1 0.15456940E+00 0.30160384E+04</pdfrwt>
<totfact> 0.53869973E-01</totfact>
</mgrwt>
</event>
<event>
 6    1  0.1001928E-005  0.1837593E+04  0.7818608E-02  0.8686559E-01
          2   -1    0    0  501    0  0.00000000000E+00  0.00000000000E+00  0.15412857572E+04  0.15412857572E+04  0.00000000000E+00 0. -1.
         -2   -1    0    0    0  501 -0.00000000000E+00 -0.00000000000E+00 -0.54771635171E+03  0.54771635171E+03  0.00000000000E+00 0.  1.
         23    2    1    2    0    0 -0.67144715411E+02  0.56051357358E+03  0.13188226401E+04  0.14374857656E+04  0.91587614353E+02 0.  0.
         11    1    3    3    0    0 -0.28029736452E+02  0.30261228543E+03  0.82136458423E+03  0.87578515725E+03  0.00000000000E+00 0. -1.
        -11    1    3    3    0    0 -0.39114978959E+02  0.25790128815E+03  0.49745805589E+03  0.56170060831E+03  0.00000000000E+00 0.  1.
         22    1    1    2    0    0  0.67144715411E+02 -0.56051357358E+03 -0.32525323466E+03  0.65151634333E+03  0.00000000000E+00 0.  1.
<mgrwt>
<rscale>  0 0.18375934E+04</rscale>
<asrwt>0</asrwt>
<pdfrwt beam="1">  1        2 0.23712088E+00 0.18375934E+04</pdfrwt>
<pdfrwt beam="2">  1       -2 0.84264055E-01 0.18375934E+04</pdfrwt>
<totfact> 0.13917474E+01</totfact>
</mgrwt>
</event>
<event>
 6    1  0.1001928E-005  0.5281001E+04  0.7818608E-02  0.7786564E-01
          2   -1    0    0  501    0  0.00000000000E+00  0.00000000000E+00  0.34857111608E+04  0.34857111608E+04  0.00000000000E+00 0. -1.
         -2   -1    0    0    0  501 -0.00000000000E+00 -0.00000000000E+00 -0.20002354376E+04  0.20002354376E+04  0.00000000000E+00 0.  1.
         23    2    1    2    0    0  0.52133871357E+03  0.66592969849E+03 -0.18546451026E+04  0.20404185476E+04  0.91339889380E+02 0.  0.
         11    1    3    3    0    0  0.21417903106E+03  0.33931749981E+03 -0.92619830439E+03  0.10093821487E+04  0.00000000000E+00 0. -1.
        -11    1    3    3    0    0  0.30715968251E+03  0.32661219868E+03 -0.92844679818E+03  0.10310363989E+04  0.00000000000E+00 0.  1.
         22    1    1    2    0    0 -0.52133871357E+03 -0.66592969849E+03  0.33401208258E+04  0.34455280507E+04  0.00000000000E+00 0. -1.
<mgrwt>
<rscale>  0 0.52810010E+04</rscale>
<asrwt>0</asrwt>
<pdfrwt beam="1">  1        2 0.53626326E+00 0.52810010E+04</pdfrwt>
<pdfrwt beam="2">  1       -2 0.30772853E+00 0.52810010E+04</pdfrwt>
<totfact> 0.16846059E-02</totfact>
</mgrwt>
</event>
<event>
 6    1  0.1001928E-005  0.3656094E+04  0.7818608E-02  0.8077762E-01
         -2   -1    0    0    0  501 -0.00000000000E+00  0.00000000000E+00  0.13089639145E+04  0.13089639145E+04  0.00000000000E+00 0.  1.
          2   -1    0    0  501    0  0.00000000000E+00 -0.00000000000E+00 -0.25529773294E+04  0.25529773294E+04  0.00000000000E+00 0. -1.
         23    2    1    2    0    0  0.15267276128E+04 -0.85408726928E+02  0.43353077086E+03  0.15920631967E+04  0.92327887056E+02 0.  0.
         11    1    3    3    0    0  0.39750408845E+03  0.13105837633E+01  0.78615533739E+02  0.40520565163E+03  0.00000000000E+00 0. -1.
        -11    1    3    3    0    0  0.11292235243E+04 -0.86719310691E+02  0.35491523713E+03  0.11868575451E+04  0.00000000000E+00 0.  1.
         22    1    1    2    0    0 -0.15267276128E+04  0.85408726928E+02 -0.16775441857E+04  0.22698780472E+04  0.00000000000E+00 0. -1.
<mgrwt>
<rscale>  0 0.36560937E+04</rscale>
<asrwt>0</asrwt>
<pdfrwt beam="1">  1        2 0.39276574E+00 0.36560937E+04</pdfrwt>
<pdfrwt beam="2">  1       -2 0.20137906E+00 0.36560937E+04</pdfrwt>
<totfact> 0.34262551E-01</totfact>
</mgrwt>
</event>
<event>
 6    1  0.1001928E-005  0.2828066E+04  0.7818608E-02  0.8294608E-01
          2   -1    0    0  501    0  0.00000000000E+00  0.00000000000E+00  0.14958302594E+04  0.14958302594E+04  0.00000000000E+00 0.  1.
         -2   -1    0    0    0  501 -0.00000000000E+00 -0.00000000000E+00 -0.13367085853E+04  0.13367085853E+04  0.00000000000E+00 0. -1.
         23    2    1    2    0    0 -0.70503965727E+03 -0.10981090465E+04  0.62125828486E+03  0.14481636632E+04  0.91059007235E+02 0.  0.
         11    1    3    3    0    0 -0.37808657751E+03 -0.65948046980E+03  0.38745463232E+03  0.85322039488E+03  0.00000000000E+00 0.  1.
        -11    1    3    3    0    0 -0.32695307976E+03 -0.43862857666E+03  0.23380365254E+03  0.59494326836E+03  0.00000000000E+00 0. -1.
         22    1    1    2    0    0  0.70503965727E+03  0.10981090465E+04 -0.46213661074E+03  0.13843751815E+04  0.00000000000E+00 0. -1.
<mgrwt>
<rscale>  0 0.28280659E+04</rscale>
<asrwt>0</asrwt>
<pdfrwt beam="1">  1        2 0.23012773E+00 0.28280659E+04</pdfrwt>
<pdfrwt beam="2">  1       -2 0.20564747E+00 0.28280659E+04</pdfrwt>
<totfact> 0.13538163E+00</totfact>
</mgrwt>
</event>
<event>
 6    1  0.1001928E-005  0.1053162E+04  0.7818608E-02  0.9252085E-01
          2   -1    0    0  501    0  0.00000000000E+00  0.00000000000E+00  0.41567650730E+03  0.41567650730E+03  0.00000000000E+00 0. -1.
         -2   -1    0    0    0  501 -0.00000000000E+00 -0.00000000000E+00 -0.66707551049E+03  0.66707551049E+03  0.00000000000E+00 0.  1.
         23    2    1    2    0    0 -0.48097874163E+03  0.15811530538E+03  0.48635943978E+01  0.51529143006E+03  0.95711042461E+02 0.  0.
         11    1    3    3    0    0 -0.18729382374E+03  0.14606150643E+02 -0.95088606051E+01  0.18810298902E+03  0.00000000000E+00 0. -1.
        -11    1    3    3    0    0 -0.29368491789E+03  0.14350915473E+03  0.14372455003E+02  0.32718844104E+03  0.00000000000E+00 0.  1.
         22    1    1    2    0    0  0.48097874163E+03 -0.15811530538E+03 -0.25626259760E+03  0.56746058773E+03  0.00000000000E+00 0.  1.
<mgrwt>
<rscale>  0 0.10531621E+04</rscale>
<asrwt>0</asrwt>
<pdfrwt beam="1">  1        2 0.63950233E-01 0.10531621E+04</pdfrwt>
<pdfrwt beam="2">  1       -2 0.10262700E+00 0.10531621E+04</pdfrwt>
<totfact> 0.58861920E+01</totfact>
</mgrwt>
</event>
<event>
 6    1  0.1001928E-005  0.1410601E+04  0.7818608E-02  0.8946180E-01
         -1   -1    0    0    0  501 -0.00000000000E+00  0.00000000000E+00  0.42243268377E+03  0.42243268377E+03  0.00000000000E+00 0.  1.
          1   -1    0    0  501    0  0.00000000000E+00 -0.00000000000E+00 -0.11775814091E+04  0.11775814091E+04  0.00000000000E+00 0. -1.
         23    2    1    2    0    0  0.33162298468E+03 -0.17939227805E+03 -0.10512193653E+04  0.11206257145E+04  0.92652277711E+02 0.  0.
         11    1    3    3    0    0  0.14882076599E+03 -0.10832719019E+03 -0.62308195740E+03  0.64970264441E+03  0.00000000000E+00 0.  1.
        -11    1    3    3    0    0  0.18280221868E+03 -0.71065087866E+02 -0.42813740794E+03  0.47092307010E+03  0.00000000000E+00 0. -1.
         22    1    1    2    0    0 -0.33162298468E+03  0.17939227805E+03  0.29607064003E+03  0.47938837833E+03  0.00000000000E+00 0.  1.
<mgrwt>
<rscale>  0 0.14106011E+04</rscale>
<asrwt>0</asrwt>
<pdfrwt beam="1">  1        1 0.18116637E+00 0.14106011E+04</pdfrwt>
<pdfrwt beam="2">  1       -1 0.64989644E-01 0.14106011E+04</pdfrwt>
<totfact> 0.25956366E+01</totfact>
</mgrwt>
</event>
<event>
 6    1  0.1001928E-005  0.2238239E+04  0.7818608E-02  0.8502678E-01
          2   -1    0    0  501    0  0.00000000000E+00  0.00000000000E+00  0.22768896522E+04  0.22768896522E+04  0.00000000000E+00 0. -1.
         -2   -1    0    0    0  501 -0.00000000000E+00 -0.00000000000E+00 -0.55006133625E+03  0.55006133625E+03  0.00000000000E+00 0.  1.
         23    2    1    2    0    0  0.15373431051E+03  0.10501162308E+04  0.42391648147E+03  0.11464874855E+04  0.91378524773E+02 0.  0.
         11    1    3    3    0    0  0.76391452321E+02  0.77945531698E+03  0.32800777633E+03  0.84910267134E+03  0.00000000000E+00 0.  1.
        -11    1    3    3    0    0  0.77342858192E+02  0.27066091379E+03  0.95908705145E+02  0.29738481415E+03  0.00000000000E+00 0. -1.
         22    1    1    2    0    0 -0.15373431051E+03 -0.10501162308E+04  0.13029118345E+04  0.16804635030E+04  0.00000000000E+00 0. -1.
<mgrwt>
<rscale>  0 0.22382395E+04</rscale>
<asrwt>0</asrwt>
<pdfrwt beam="1">  1        2 0.35029071E+00 0.22382395E+04</pdfrwt>
<pdfrwt beam="2">  1       -2 0.84624822E-01 0.22382395E+04</pdfrwt>
<totfact> 0.51813124E+00</totfact>
</mgrwt>
</event>
<event>
 6    1  0.1001928E-005  0.2255596E+04  0.7818608E-02  0.8495638E-01
         -2   -1    0    0    0  501 -0.00000000000E+00  0.00000000000E+00  0.69554002357E+03  0.69554002357E+03  0.00000000000E+00 0.  1.
          2   -1    0    0  501    0  0.00000000000E+00 -0.00000000000E+00 -0.18286916353E+04  0.18286916353E+04  0.00000000000E+00 0. -1.
         23    2    1    2    0    0  0.10719155126E+04 -0.28863716338E+03 -0.35677136980E+03  0.11695802062E+04  0.91201809672E+02 0.  0.
         13    1    3    3    0    0  0.71225751888E+03 -0.23570799344E+03 -0.24595393994E+03  0.78953300877E+03  0.00000000000E+00 0. -1.
        -13    1    3    3    0    0  0.35965799372E+03 -0.52929169940E+02 -0.11081742987E+03  0.38004719738E+03  0.00000000000E+00 0.  1.
         22    1    1    2    0    0 -0.10719155126E+04  0.28863716338E+03 -0.77638024189E+03  0.13546514527E+04  0.00000000000E+00 0. -1.
<mgrwt>
<rscale>  0 0.22555959E+04</rscale>
<asrwt>0</asrwt>
<pdfrwt beam="1">  1        2 0.28133717E+00 0.22555959E+04</pdfrwt>
<pdfrwt beam="2">  1       -2 0.10700616E+00 0.22555959E+04</pdfrwt>
<totfact> 0.53158849E+00</totfact>
</mgrwt>
</event>
<event>
 6    1  0.1001928E-005  0.8335489E+03  0.7818608E-02  0.9512687E-01
          2   -1    0    0  501    0  0.00000000000E+00  0.00000000000E+00  0.39635271483E+03  0.39635271483E+03  0.00000000000E+00 0. -1.
         -2   -1    0    0    0  501 -0.00000000000E+00 -0.00000000000E+00 -0.43824836487E+03  0.43824836487E+03  0.00000000000E+00 0.  1.
         23    2    1    2    0    0  0.25987660926E+03  0.15902339369E+03  0.25608338607E+03  0.40843702942E+03  0.91748649033E+02 0.  0.
         11    1    3    3    0    0  0.50938046291E+02  0.59213438333E+02  0.10907743088E+03  0.13415961302E+03  0.00000000000E+00 0.  1.
        -11    1    3    3    0    0  0.20893856297E+03  0.99809955360E+02  0.14700595519E+03  0.27427741640E+03  0.00000000000E+00 0. -1.
         22    1    1    2    0    0 -0.25987660926E+03 -0.15902339369E+03 -0.29797903611E+03  0.42616405027E+03  0.00000000000E+00 0.  1.
<mgrwt>
<rscale>  0 0.83354887E+03</rscale>
<asrwt>0</asrwt>
<pdfrwt beam="1">  1        2 0.60977341E-01 0.83354887E+03</pdfrwt>
<pdfrwt beam="2">  1       -2 0.67422825E-01 0.83354887E+03</pdfrwt>
<totfact> 0.16315055E+02</totfact>
</mgrwt>
</event>
<event>
 6    1  0.1001928E-005  0.2600298E+04  0.7818608E-02  0.8368100E-01
         -1   -1    0    0    0  501 -0.00000000000E+00  0.00000000000E+00  0.45563908649E+03  0.45563908649E+03  0.00000000000E+00 0.  1.
          1   -1    0    0  501    0  0.00000000000E+00 -0.00000000000E+00 -0.37099258711E+04  0.37099258711E+04  0.00000000000E+00 0. -1.
         23    2    1    2    0    0 -0.13803045387E+03  0.10920748334E+04 -0.27325989535E+04  0.29474360477E+04  0.92748945165E+02 0.  0.
         13    1    3    3    0    0 -0.93545521527E+02  0.58915397798E+03 -0.13668343715E+04  0.14913381151E+04  0.00000000000E+00 0.  1.
        -13    1    3    3    0    0 -0.44484932342E+02  0.50292085539E+03 -0.13657645820E+04  0.14560979326E+04  0.00000000000E+00 0. -1.
         22    1    1    2    0    0  0.13803045387E+03 -0.10920748334E+04 -0.52168783107E+03  0.12181289098E+04  0.00000000000E+00 0.  1.
<mgrwt>
<rscale>  0 0.26002979E+04</rscale>
<asrwt>0</asrwt>
<pdfrwt beam="1">  1        1 0.57075781E+00 0.26002979E+04</pdfrwt>
<pdfrwt beam="2">  1       -1 0.70098323E-01 0.26002979E+04</pdfrwt>
<totfact> 0.30706642E-01</totfact>
</mgrwt>
</event>
<event>
 6    1  0.1001928E-005  0.2980592E+04  0.7818608E-02  0.8249295E-01
          2   -1    0    0  501    0  0.00000000000E+00  0.00000000000E+00  0.16507949314E+04  0.16507949314E+04  0.00000000000E+00 0. -1.
         -2   -1    0    0    0  501 -0.00000000000E+00 -0.00000000000E+00 -0.13454018651E+04  0.13454018651E+04  0.00000000000E+00 0.  1.
         23    2    1    2    0    0  0.87219751932E+03  0.66345790369E+03  0.11661242919E+04  0.16027251802E+04  0.89315376043E+02 0.  0.
         11    1    3    3    0    0  0.55815204246E+03  0.47391377261E+03  0.79888073281E+03  0.10836689493E+04  0.00000000000E+00 0. -1.
        -11    1    3    3    0    0  0.31404547687E+03  0.18954413109E+03  0.36724355911E+03  0.51905623094E+03  0.00000000000E+00 0.  1.
         22    1    1    2    0    0 -0.87219751932E+03 -0.66345790369E+03 -0.86073122558E+03  0.13934716163E+04  0.00000000000E+00 0.  1.
<mgrwt>
<rscale>  0 0.29805923E+04</rscale>
<asrwt>0</asrwt>
<pdfrwt beam="1">  1        2 0.25396845E+00 0.29805923E+04</pdfrwt>
<pdfrwt beam="2">  1       -2 0.20698490E+00 0.29805923E+04</pdfrwt>
<totfact> 0.10726940E+00</totfact>
</mgrwt>
</event>
<event>
 6    1  0.1001928E-005  0.1453560E+04  0.7818608E-02  0.8915936E-01
         -2   -1    0    0    0  501 -0.00000000000E+00  0.00000000000E+00  0.22432196000E+03  0.22432196000E+03  0.00000000000E+00 0.  1.
          2   -1    0    0  501    0  0.00000000000E+00 -0.00000000000E+00 -0.23546927985E+04  0.23546927985E+04  0.00000000000E+00 0. -1.
         23    2    1    2    0    0  0.10183737374E+03  0.53854751565E+03 -0.19095120329E+04  0.19880977683E+04  0.76761026512E+02 0.  0.
         11    1    3    3    0    0 -0.20244881695E+01  0.11485335924E+03 -0.47688928639E+03  0.49052908594E+03  0.00000000000E+00 0. -1.
        -11    1    3    3    0    0  0.10386186191E+03  0.42369415642E+03 -0.14326227465E+04  0.14975686823E+04  0.00000000000E+00 0.  1.
         22    1    1    2    0    0 -0.10183737374E+03 -0.53854751565E+03 -0.22085880559E+03  0.59091699021E+03  0.00000000000E+00 0.  1.
<mgrwt>
<rscale>  0 0.14535602E+04</rscale>
<asrwt>0</asrwt>
<pdfrwt beam="1">  1        2 0.36226043E+00 0.14535602E+04</pdfrwt>
<pdfrwt beam="2">  1       -2 0.34511071E-01 0.14535602E+04</pdfrwt>
<totfact> 0.32268179E+01</totfact>
</mgrwt>
</event>
<event>
 6    1  0.1001928E-005  0.9336751E+03  0.7818608E-02  0.9384438E-01
          2   -1    0    0  501    0  0.00000000000E+00  0.00000000000E+00  0.16636737382E+04  0.16636737382E+04  0.00000000000E+00 0. -1.
         -2   -1    0    0    0  501 -0.00000000000E+00 -0.00000000000E+00 -0.13099760473E+03  0.13099760473E+03  0.00000000000E+00 0.  1.
         23    2    1    2    0    0  0.30442743886E+03 -0.11408135458E+03  0.14058638084E+04  0.14457129116E+04  0.89118764101E+02 0.  0.
         11    1    3    3    0    0  0.17347044582E+03 -0.22761696698E+02  0.82212011829E+03  0.84053053443E+03  0.00000000000E+00 0.  1.
        -11    1    3    3    0    0  0.13095699304E+03 -0.91319657880E+02  0.58374369008E+03  0.60518237718E+03  0.00000000000E+00 0. -1.
         22    1    1    2    0    0 -0.30442743886E+03  0.11408135458E+03  0.12681232509E+03  0.34895843132E+03  0.00000000000E+00 0.  1.
<mgrwt>
<rscale>  0 0.93367505E+03</rscale>
<asrwt>0</asrwt>
<pdfrwt beam="1">  1        2 0.25594979E+00 0.93367505E+03</pdfrwt>
<pdfrwt beam="2">  1       -2 0.20153479E-01 0.93367505E+03</pdfrwt>
<totfact> 0.21720171E+02</totfact>
</mgrwt>
</event>
<event>
 6    1  0.1001928E-005  0.3230352E+04  0.7818608E-02  0.8180847E-01
         -1   -1    0    0    0  501 -0.00000000000E+00  0.00000000000E+00  0.74275544229E+03  0.74275544229E+03  0.00000000000E+00 0.  1.
          1   -1    0    0  501    0  0.00000000000E+00 -0.00000000000E+00 -0.35123189704E+04  0.35123189704E+04  0.00000000000E+00 0. -1.
         23    2    1    2    0    0 -0.23561241463E+03  0.42351105555E+03 -0.34136685671E+04  0.34490060996E+04  0.87379431700E+02 0.  0.
         11    1    3    3    0    0 -0.16284604717E+03  0.35942202725E+03 -0.26537283044E+04  0.26829045720E+04  0.00000000000E+00 0. -1.
        -11    1    3    3    0    0 -0.72766367462E+02  0.64089028304E+02 -0.75994026274E+03  0.76610152768E+03  0.00000000000E+00 0.  1.
         22    1    1    2    0    0  0.23561241463E+03 -0.42351105555E+03  0.64410503898E+03  0.80606831308E+03  0.00000000000E+00 0.  1.
<mgrwt>
<rscale>  0 0.32303523E+04</rscale>
<asrwt>0</asrwt>
<pdfrwt beam="1">  1        1 0.54035675E+00 0.32303523E+04</pdfrwt>
<pdfrwt beam="2">  1       -1 0.11427007E+00 0.32303523E+04</pdfrwt>
<totfact> 0.14193345E-01</totfact>
</mgrwt>
</event>
<event>
 6    1  0.1001928E-005  0.3069152E+04  0.7818608E-02  0.8224255E-01
         -1   -1    0    0    0  501 -0.00000000000E+00  0.00000000000E+00  0.16904330111E+04  0.16904330111E+04  0.00000000000E+00 0.  1.
          1   -1    0    0  501    0  0.00000000000E+00 -0.00000000000E+00 -0.13930892069E+04  0.13930892069E+04  0.00000000000E+00 0. -1.
         23    2    1    2    0    0 -0.10469022992E+04  0.31872296936E+03  0.12275714810E+04  0.16472380240E+04  0.94194539418E+02 0.  0.
         11    1    3    3    0    0 -0.51793115666E+03  0.17423491913E+03  0.54621086574E+03  0.77262979488E+03  0.00000000000E+00 0.  1.
        -11    1    3    3    0    0 -0.52897114258E+03  0.14448805023E+03  0.68136061530E+03  0.87460822911E+03  0.00000000000E+00 0. -1.
         22    1    1    2    0    0  0.10469022992E+04 -0.31872296936E+03 -0.93022767679E+03  0.14362841940E+04  0.00000000000E+00 0. -1.
<mgrwt>
<rscale>  0 0.30691523E+04</rscale>
<asrwt>0</asrwt>
<pdfrwt beam="1">  1        1 0.21432142E+00 0.30691523E+04</pdfrwt>
<pdfrwt beam="2">  1       -1 0.26006662E+00 0.30691523E+04</pdfrwt>
<totfact> 0.39399909E-01</totfact>
</mgrwt>
</event>
<event>
 6    1  0.1001928E-005  0.2255512E+04  0.7818608E-02  0.8495672E-01
          2   -1    0    0  501    0  0.00000000000E+00  0.00000000000E+00  0.15414944798E+04  0.15414944798E+04  0.00000000000E+00 0. -1.
         -2   -1    0    0    0  501 -0.00000000000E+00 -0.00000000000E+00 -0.82506506743E+03  0.82506506743E+03  0.00000000000E+00 0.  1.
         23    2    1    2    0    0 -0.76075493309E+03 -0.62582578700E+03 -0.21326260155E+03  0.10120363010E+04  0.91271865301E+02 0.  0.
         13    1    3    3    0    0 -0.56192509060E+03 -0.45836382015E+03 -0.11547460652E+03  0.73429665927E+03  0.00000000000E+00 0. -1.
        -13    1    3    3    0    0 -0.19882984249E+03 -0.16746196686E+03 -0.97787995032E+02  0.27773964172E+03  0.00000000000E+00 0.  1.
         22    1    1    2    0    0  0.76075493309E+03  0.62582578700E+03  0.92969201395E+03  0.13545232463E+04  0.00000000000E+00 0. -1.
<mgrwt>
<rscale>  0 0.22555117E+04</rscale>
<asrwt>0</asrwt>
<pdfrwt beam="1">  1        2 0.23715300E+00 0.22555117E+04</pdfrwt>
<pdfrwt beam="2">  1       -2 0.12693309E+00 0.22555117E+04</pdfrwt>
<totfact> 0.50496243E+00</totfact>
</mgrwt>
</event>
<event>
 6    1  0.1001928E-005  0.1932963E+04  0.7818608E-02  0.8638620E-01
          1   -1    0    0  501    0  0.00000000000E+00  0.00000000000E+00  0.32665812953E+04  0.32665812953E+04  0.00000000000E+00 0. -1.
         -1   -1    0    0    0  501 -0.00000000000E+00 -0.00000000000E+00 -0.28595224374E+03  0.28595224374E+03  0.00000000000E+00 0.  1.
         23    2    1    2    0    0 -0.45215985709E+03  0.82385419001E+03  0.10951416057E+04  0.14458187574E+04  0.88726996310E+02 0.  0.
         13    1    3    3    0    0 -0.33722487170E+03  0.52888146743E+03  0.73948502697E+03  0.96967743389E+03  0.00000000000E+00 0. -1.
        -13    1    3    3    0    0 -0.11493498538E+03  0.29497272258E+03  0.35565657875E+03  0.47614132350E+03  0.00000000000E+00 0.  1.
         22    1    1    2    0    0  0.45215985709E+03 -0.82385419001E+03  0.18854874458E+04  0.21067147816E+04  0.00000000000E+00 0. -1.
<mgrwt>
<rscale>  0 0.19329628E+04</rscale>
<asrwt>0</asrwt>
<pdfrwt beam="1">  1        1 0.50255094E+00 0.19329628E+04</pdfrwt>
<pdfrwt beam="2">  1       -1 0.43992655E-01 0.19329628E+04</pdfrwt>
<totfact> 0.18113225E+00</totfact>
</mgrwt>
</event>
<event>
 6    1  0.1001928E-005  0.2486124E+04  0.7818608E-02  0.8407946E-01
          1   -1    0    0  501    0  0.00000000000E+00  0.00000000000E+00  0.25058785009E+04  0.25058785009E+04  0.00000000000E+00 0. -1.
         -1   -1    0    0    0  501 -0.00000000000E+00 -0.00000000000E+00 -0.61663126065E+03  0.61663126065E+03  0.00000000000E+00 0.  1.
         23    2    1    2    0    0  0.35465758133E+03  0.94639176081E+02  0.24353603700E+04  0.24644990290E+04  0.89647968333E+02 0.  0.
         11    1    3    3    0    0  0.27676832591E+03  0.76449846017E+02  0.16223182020E+04  0.16475319826E+04  0.00000000000E+00 0.  1.
        -11    1    3    3    0    0  0.77889255416E+02  0.18189330064E+02  0.81304216807E+03  0.81696704640E+03  0.00000000000E+00 0. -1.
         22    1    1    2    0    0 -0.35465758133E+03 -0.94639176081E+02 -0.54611312979E+03  0.65801073257E+03  0.00000000000E+00 0.  1.
<mgrwt>
<rscale>  0 0.24861239E+04</rscale>
<asrwt>0</asrwt>
<pdfrwt beam="1">  1        1 0.38551976E+00 0.24861239E+04</pdfrwt>
<pdfrwt beam="2">  1       -1 0.94866349E-01 0.24861239E+04</pdfrwt>
<totfact> 0.12818597E+00</totfact>
</mgrwt>
</event>
<event>
 6    1  0.1001928E-005  0.2109910E+04  0.7818608E-02  0.8556890E-01
         -2   -1    0    0    0  501 -0.00000000000E+00  0.00000000000E+00  0.49326172793E+03  0.49326172793E+03  0.00000000000E+00 0.  1.
          2   -1    0    0  501    0  0.00000000000E+00 -0.00000000000E+00 -0.22562674871E+04  0.22562674871E+04  0.00000000000E+00 0. -1.
         23    2    1    2    0    0 -0.16110155022E+03 -0.52285314644E+03  0.28975671939E+03  0.62510860799E+03  0.86444740336E+02 0.  0.
         11    1    3    3    0    0 -0.11295604176E+03 -0.45143219756E+03  0.26488174071E+03  0.53545535101E+03  0.00000000000E+00 0. -1.
        -11    1    3    3    0    0 -0.48145508460E+02 -0.71420948876E+02  0.24874978686E+02  0.89653256984E+02  0.00000000000E+00 0.  1.
         22    1    1    2    0    0  0.16110155022E+03  0.52285314644E+03 -0.20527624786E+04  0.21244206071E+04  0.00000000000E+00 0. -1.
<mgrwt>
<rscale>  0 0.21099103E+04</rscale>
<asrwt>0</asrwt>
<pdfrwt beam="1">  1        2 0.34711807E+00 0.21099103E+04</pdfrwt>
<pdfrwt beam="2">  1       -2 0.75886420E-01 0.21099103E+04</pdfrwt>
<totfact> 0.68753028E+00</totfact>
</mgrwt>
</event>
<event>
 6    1  0.1001928E-005  0.1544201E+04  0.7818608E-02  0.8855581E-01
          1   -1    0    0  501    0  0.00000000000E+00  0.00000000000E+00  0.26325975450E+04  0.26325975450E+04  0.00000000000E+00 0. -1.
         -1   -1    0    0    0  501 -0.00000000000E+00 -0.00000000000E+00 -0.22644513050E+03  0.22644513050E+03  0.00000000000E+00 0.  1.
         23    2    1    2    0    0 -0.21511559667E+03 -0.38328632235E+03  0.23764363796E+04  0.24185132581E+04  0.92592594384E+02 0.  0.
         13    1    3    3    0    0 -0.20022726699E+03 -0.31116005187E+03  0.18206970335E+04  0.18579152898E+04  0.00000000000E+00 0.  1.
        -13    1    3    3    0    0 -0.14888329682E+02 -0.72126270482E+02  0.55573934617E+03  0.56059796836E+03  0.00000000000E+00 0. -1.
         22    1    1    2    0    0  0.21511559667E+03  0.38328632235E+03  0.29716034862E+02  0.44052941736E+03  0.00000000000E+00 0.  1.
<mgrwt>
<rscale>  0 0.15442006E+04</rscale>
<asrwt>0</asrwt>
<pdfrwt beam="1">  1        1 0.40501499E+00 0.15442006E+04</pdfrwt>
<pdfrwt beam="2">  1       -1 0.34837714E-01 0.15442006E+04</pdfrwt>
<totfact> 0.82818889E+00</totfact>
</mgrwt>
</event>
<event>
 6    1  0.1001928E-005  0.1965676E+04  0.7818608E-02  0.8622839E-01
         -2   -1    0    0    0  501 -0.00000000000E+00  0.00000000000E+00  0.84281087152E+03  0.84281087152E+03  0.00000000000E+00 0.  1.
          2   -1    0    0  501    0  0.00000000000E+00 -0.00000000000E+00 -0.11461293885E+04  0.11461293885E+04  0.00000000000E+00 0. -1.
         23    2    1    2    0    0 -0.48565973315E+03  0.26478633873E+02 -0.10135939684E+04  0.11280931706E+04  0.93032114545E+02 0.  0.
         13    1    3    3    0    0 -0.36514771311E+03  0.58639739891E+02 -0.73235040355E+03  0.82043195029E+03  0.00000000000E+00 0.  1.
        -13    1    3    3    0    0 -0.12051202004E+03 -0.32161106018E+02 -0.28124356483E+03  0.30766122029E+03  0.00000000000E+00 0. -1.
         22    1    1    2    0    0  0.48565973315E+03 -0.26478633873E+02  0.71027545142E+03  0.86084708941E+03  0.00000000000E+00 0.  1.
<mgrwt>
<rscale>  0 0.19656758E+04</rscale>
<asrwt>0</asrwt>
<pdfrwt beam="1">  1        2 0.17632760E+00 0.19656758E+04</pdfrwt>
<pdfrwt beam="2">  1       -2 0.12966321E+00 0.19656758E+04</pdfrwt>
<totfact> 0.83146216E+00</totfact>
</mgrwt>
</event>
<event>
 6    1  0.1001928E-005  0.6723674E+03  0.7818608E-02  0.9765690E-01
          1   -1    0    0  501    0  0.00000000000E+00  0.00000000000E+00  0.34229352436E+03  0.34229352436E+03  0.00000000000E+00 0. -1.
         -1   -1    0    0    0  501 -0.00000000000E+00 -0.00000000000E+00 -0.33018294522E+03  0.33018294522E+03  0.00000000000E+00 0.  1.
         23    2    1    2    0    0  0.29500044308E+03  0.36758478030E+02 -0.13735833802E+03  0.33973422050E+03  0.90418916322E+02 0.  0.
         11    1    3    3    0    0  0.13313737976E+03  0.43321879797E+02 -0.10382388448E+03  0.17430360337E+03  0.00000000000E+00 0.  1.
        -11    1    3    3    0    0  0.16186306332E+03 -0.65634017673E+01 -0.33534453545E+02  0.16543061713E+03  0.00000000000E+00 0. -1.
         22    1    1    2    0    0 -0.29500044308E+03 -0.36758478030E+02  0.14946891716E+03  0.33274224908E+03  0.00000000000E+00 0. -1.
<mgrwt>
<rscale>  0 0.67236741E+03</rscale>
<asrwt>0</asrwt>
<pdfrwt beam="1">  1        1 0.52660542E-01 0.67236741E+03</pdfrwt>
<pdfrwt beam="2">  1       -1 0.50797376E-01 0.67236741E+03</pdfrwt>
<totfact> 0.29119569E+02</totfact>
</mgrwt>
</event>
<event>
 6    1  0.1001928E-005  0.2341787E+04  0.7818608E-02  0.8461625E-01
         -2   -1    0    0    0  501 -0.00000000000E+00  0.00000000000E+00  0.71537849161E+03  0.71537849161E+03  0.00000000000E+00 0.  1.
          2   -1    0    0  501    0  0.00000000000E+00 -0.00000000000E+00 -0.19164563374E+04  0.19164563374E+04  0.00000000000E+00 0. -1.
         23    2    1    2    0    0  0.61327653964E+03  0.97166554684E+03 -0.35755409986E+03  0.12064316022E+04  0.85966432804E+02 0.  0.
         11    1    3    3    0    0  0.16195884292E+03  0.21634943339E+03 -0.53518166803E+02  0.27550306406E+03  0.00000000000E+00 0.  1.
        -11    1    3    3    0    0  0.45131769672E+03  0.75531611345E+03 -0.30403593306E+03  0.93092853818E+03  0.00000000000E+00 0. -1.
         22    1    1    2    0    0 -0.61327653964E+03 -0.97166554684E+03 -0.84352374598E+03  0.14254032268E+04  0.00000000000E+00 0.  1.
<mgrwt>
<rscale>  0 0.23417870E+04</rscale>
<asrwt>0</asrwt>
<pdfrwt beam="1">  1        2 0.29483944E+00 0.23417870E+04</pdfrwt>
<pdfrwt beam="2">  1       -2 0.11005823E+00 0.23417870E+04</pdfrwt>
<totfact> 0.44081928E+00</totfact>
</mgrwt>
</event>
<event>
 6    1  0.1001928E-005  0.2214219E+04  0.7818608E-02  0.8512533E-01
          2   -1    0    0  501    0  0.00000000000E+00  0.00000000000E+00  0.12645027395E+04  0.12645027395E+04  0.00000000000E+00 0. -1.
         -2   -1    0    0    0  501 -0.00000000000E+00 -0.00000000000E+00 -0.96930678344E+03  0.96930678344E+03  0.00000000000E+00 0.  1.
         23    2    1    2    0    0  0.19146544961E+03 -0.77873034669E+03 -0.61928368651E+03  0.10175229663E+04  0.93598778148E+02 0.  0.
         11    1    3    3    0    0  0.84422333914E+02 -0.49090125267E+03 -0.41891959811E+03  0.65084929132E+03  0.00000000000E+00 0. -1.
        -11    1    3    3    0    0  0.10704311569E+03 -0.28782909403E+03 -0.20036408840E+03  0.36667367496E+03  0.00000000000E+00 0.  1.
         22    1    1    2    0    0 -0.19146544961E+03  0.77873034669E+03  0.91447964258E+03  0.12162865567E+04  0.00000000000E+00 0. -1.
<mgrwt>
<rscale>  0 0.22142187E+04</rscale>
<asrwt>0</asrwt>
<pdfrwt beam="1">  1        2 0.19453888E+00 0.22142187E+04</pdfrwt>
<pdfrwt beam="2">  1       -2 0.14912412E+00 0.22142187E+04</pdfrwt>
<totfact> 0.48188505E+00</totfact>
</mgrwt>
</event>
<event>
 6    1  0.1001928E-005  0.3593989E+04  0.7818608E-02  0.8091870E-01
          2   -1    0    0  501    0  0.00000000000E+00  0.00000000000E+00  0.35771845034E+04  0.35771845034E+04  0.00000000000E+00 0. -1.
         -2   -1    0    0    0  501 -0.00000000000E+00 -0.00000000000E+00 -0.90271829470E+03  0.90271829470E+03  0.00000000000E+00 0.  1.
         23    2    1    2    0    0  0.94198874959E+03  0.78863287128E+03 -0.29469816213E+03  0.12666145024E+04  0.90447117326E+02 0.  0.
         11    1    3    3    0    0  0.55801404307E+03  0.43650811666E+03 -0.13064414190E+03  0.72040745414E+03  0.00000000000E+00 0. -1.
        -11    1    3    3    0    0  0.38397470652E+03  0.35212475461E+03 -0.16405402024E+03  0.54620704830E+03  0.00000000000E+00 0.  1.
         22    1    1    2    0    0 -0.94198874959E+03 -0.78863287128E+03  0.29691643708E+04  0.32132882956E+04  0.00000000000E+00 0. -1.
<mgrwt>
<rscale>  0 0.35939894E+04</rscale>
<asrwt>0</asrwt>
<pdfrwt beam="1">  1        2 0.55033607E+00 0.35939894E+04</pdfrwt>
<pdfrwt beam="2">  1       -2 0.13887974E+00 0.35939894E+04</pdfrwt>
<totfact> 0.21399248E-01</totfact>
</mgrwt>
</event>
<event>
 6    1  0.1001928E-005  0.4499622E+04  0.7818608E-02  0.7910703E-01
          2   -1    0    0  501    0  0.00000000000E+00  0.00000000000E+00  0.19685260821E+04  0.19685260821E+04  0.00000000000E+00 0. -1.
         -2   -1    0    0    0  501 -0.00000000000E+00 -0.00000000000E+00 -0.25712884777E+04  0.25712884777E+04  0.00000000000E+00 0.  1.
         23    2    1    2    0    0  0.13273684858E+03 -0.61233981277E+03  0.18776709201E+04  0.19814696748E+04  0.89414042434E+02 0.  0.
         13    1    3    3    0    0  0.85107600253E+00 -0.14424521210E+03  0.50494207350E+03  0.52514179336E+03  0.00000000000E+00 0. -1.
        -13    1    3    3    0    0  0.13188577258E+03 -0.46809460067E+03  0.13727288466E+04  0.14563278815E+04  0.00000000000E+00 0.  1.
         22    1    1    2    0    0 -0.13273684858E+03  0.61233981277E+03 -0.24804333157E+04  0.25583448850E+04  0.00000000000E+00 0.  1.
<mgrwt>
<rscale>  0 0.44996215E+04</rscale>
<asrwt>0</asrwt>
<pdfrwt beam="1">  1        2 0.30285017E+00 0.44996215E+04</pdfrwt>
<pdfrwt beam="2">  1       -2 0.39558284E+00 0.44996215E+04</pdfrwt>
<totfact> 0.41814129E-02</totfact>
</mgrwt>
</event>
<event>
 6    1  0.1001928E-005  0.2532880E+04  0.7818608E-02  0.8391365E-01
          1   -1    0    0  501    0  0.00000000000E+00  0.00000000000E+00  0.15628070427E+04  0.15628070427E+04  0.00000000000E+00 0.  1.
         -1   -1    0    0    0  501 -0.00000000000E+00 -0.00000000000E+00 -0.10262751703E+04  0.10262751703E+04  0.00000000000E+00 0. -1.
         23    2    1    2    0    0  0.14271951059E+02  0.45713143200E+03 -0.93667725587E+03  0.10465135856E+04  0.93024558293E+02 0.  0.
         13    1    3    3    0    0  0.53658993795E+02  0.29504154514E+03 -0.59610782737E+03  0.66728805086E+03  0.00000000000E+00 0. -1.
        -13    1    3    3    0    0 -0.39387042735E+02  0.16208988686E+03 -0.34056942850E+03  0.37922553473E+03  0.00000000000E+00 0.  1.
         22    1    1    2    0    0 -0.14271951059E+02 -0.45713143200E+03  0.14732091282E+04  0.15425686274E+04  0.00000000000E+00 0.  1.
<mgrwt>
<rscale>  0 0.25328798E+04</rscale>
<asrwt>0</asrwt>
<pdfrwt beam="1">  1        1 0.24043185E+00 0.25328798E+04</pdfrwt>
<pdfrwt beam="2">  1       -1 0.15788849E+00 0.25328798E+04</pdfrwt>
<totfact> 0.15901749E+00</totfact>
</mgrwt>
</event>
<event>
 6    1  0.1001928E-005  0.3700360E+03  0.7818608E-02  0.1054679E+00
          1   -1    0    0  501    0  0.00000000000E+00  0.00000000000E+00  0.19758229998E+03  0.19758229998E+03  0.00000000000E+00 0.  1.
         -1   -1    0    0    0  501 -0.00000000000E+00 -0.00000000000E+00 -0.17325269749E+03  0.17325269749E+03  0.00000000000E+00 0. -1.
         23    2    1    2    0    0 -0.73140406503E+02 -0.61408531391E+02  0.15890554237E+03  0.20581617920E+03  0.89380095300E+02 0.  0.
         13    1    3    3    0    0 -0.12101585023E+02 -0.58366319176E+02  0.11822052827E+03  0.13239776765E+03  0.00000000000E+00 0.  1.
        -13    1    3    3    0    0 -0.61038821480E+02 -0.30422122159E+01  0.40685014094E+02  0.73418411551E+02  0.00000000000E+00 0. -1.
         22    1    1    2    0    0  0.73140406503E+02  0.61408531391E+02 -0.13457593987E+03  0.16501881827E+03  0.00000000000E+00 0. -1.
<mgrwt>
<rscale>  0 0.37003603E+03</rscale>
<asrwt>0</asrwt>
<pdfrwt beam="1">  1        1 0.30397277E-01 0.37003603E+03</pdfrwt>
<pdfrwt beam="2">  1       -1 0.26654261E-01 0.37003603E+03</pdfrwt>
<totfact> 0.18698787E+03</totfact>
</mgrwt>
</event>
<event>
 6    1  0.1001928E-005  0.1447388E+04  0.7818608E-02  0.8920213E-01
          2   -1    0    0  501    0  0.00000000000E+00  0.00000000000E+00  0.64507644792E+03  0.64507644792E+03  0.00000000000E+00 0. -1.
         -2   -1    0    0    0  501 -0.00000000000E+00 -0.00000000000E+00 -0.81189333806E+03  0.81189333806E+03  0.00000000000E+00 0.  1.
         23    2    1    2    0    0 -0.27696204489E+02 -0.20929946214E+03 -0.77768442886E+03  0.81064750224E+03  0.88221071141E+02 0.  0.
         13    1    3    3    0    0  0.99245082259E+01 -0.82573492601E+02 -0.17666842610E+03  0.19526548677E+03  0.00000000000E+00 0. -1.
        -13    1    3    3    0    0 -0.37620712715E+02 -0.12672596954E+03 -0.60101600276E+03  0.61538201547E+03  0.00000000000E+00 0.  1.
         22    1    1    2    0    0  0.27696204489E+02  0.20929946214E+03  0.61086753872E+03  0.64632228374E+03  0.00000000000E+00 0. -1.
<mgrwt>
<rscale>  0 0.14473884E+04</rscale>
<asrwt>0</asrwt>
<pdfrwt beam="1">  1        2 0.99242530E-01 0.14473884E+04</pdfrwt>
<pdfrwt beam="2">  1       -2 0.12490667E+00 0.14473884E+04</pdfrwt>
<totfact> 0.21142951E+01</totfact>
</mgrwt>
</event>
<event>
 6    1  0.1001928E-005  0.2051110E+04  0.7818608E-02  0.8583091E-01
         -2   -1    0    0    0  501 -0.00000000000E+00  0.00000000000E+00  0.58661312932E+03  0.58661312932E+03  0.00000000000E+00 0. -1.
          2   -1    0    0  501    0  0.00000000000E+00 -0.00000000000E+00 -0.17929409403E+04  0.17929409403E+04  0.00000000000E+00 0.  1.
         23    2    1    2    0    0  0.97698046976E+02  0.62469295871E+03 -0.15381346561E+04  0.16654938596E+04  0.90693853802E+02 0.  0.
         13    1    3    3    0    0  0.12153608763E+02  0.14051685693E+02 -0.22155821360E+02  0.28914364888E+02  0.00000000000E+00 0. -1.
        -13    1    3    3    0    0  0.85544438213E+02  0.61064127301E+03 -0.15159788347E+04  0.16365794947E+04  0.00000000000E+00 0.  1.
         22    1    1    2    0    0 -0.97698046976E+02 -0.62469295871E+03  0.33180684511E+03  0.71406021000E+03  0.00000000000E+00 0. -1.
<mgrwt>
<rscale>  0 0.20511096E+04</rscale>
<asrwt>0</asrwt>
<pdfrwt beam="1">  1        2 0.27583707E+00 0.20511096E+04</pdfrwt>
<pdfrwt beam="2">  1       -2 0.90248174E-01 0.20511096E+04</pdfrwt>
<totfact> 0.84593217E+00</totfact>
</mgrwt>
</event>
<event>
 6    1  0.1001928E-005  0.1336996E+04  0.7818608E-02  0.9000730E-01
          1   -1    0    0  501    0  0.00000000000E+00  0.00000000000E+00  0.51373730838E+03  0.51373730838E+03  0.00000000000E+00 0. -1.
         -1   -1    0    0    0  501 -0.00000000000E+00 -0.00000000000E+00 -0.86988016998E+03  0.86988016998E+03  0.00000000000E+00 0.  1.
         23    2    1    2    0    0 -0.97198252110E+02  0.53883286427E+03  0.21256296177E+03  0.59417801306E+03  0.89867361470E+02 0.  0.
         13    1    3    3    0    0 -0.22460849797E+02  0.34962061965E+03  0.15220063096E+03  0.38197395137E+03  0.00000000000E+00 0. -1.
        -13    1    3    3    0    0 -0.74737402313E+02  0.18921224462E+03  0.60362330812E+02  0.21220406169E+03  0.00000000000E+00 0.  1.
         22    1    1    2    0    0  0.97198252110E+02 -0.53883286427E+03 -0.56870582338E+03  0.78943946530E+03  0.00000000000E+00 0.  1.
<mgrwt>
<rscale>  0 0.13369965E+04</rscale>
<asrwt>0</asrwt>
<pdfrwt beam="1">  1        1 0.79036509E-01 0.13369965E+04</pdfrwt>
<pdfrwt beam="2">  1       -1 0.13382772E+00 0.13369965E+04</pdfrwt>
<totfact> 0.19706012E+01</totfact>
</mgrwt>
</event>
<event>
 6    1  0.1001928E-005  0.1454688E+04  0.7818608E-02  0.8915157E-01
         -2   -1    0    0    0  501 -0.00000000000E+00  0.00000000000E+00  0.55710239735E+03  0.55710239735E+03  0.00000000000E+00 0.  1.
          2   -1    0    0  501    0  0.00000000000E+00 -0.00000000000E+00 -0.94960861198E+03  0.94960861198E+03  0.00000000000E+00 0. -1.
         23    2    1    2    0    0  0.15510023729E+03  0.32842457201E+03  0.45261277713E+03  0.58684966470E+03  0.87266372843E+02 0.  0.
         13    1    3    3    0    0  0.32962801329E+02  0.15209360852E+03  0.15185339171E+03  0.21743611613E+03  0.00000000000E+00 0.  1.
        -13    1    3    3    0    0  0.12213743596E+03  0.17633096349E+03  0.30075938542E+03  0.36941354857E+03  0.00000000000E+00 0. -1.
         22    1    1    2    0    0 -0.15510023729E+03 -0.32842457201E+03 -0.84511899176E+03  0.91986134463E+03  0.00000000000E+00 0. -1.
<mgrwt>
<rscale>  0 0.14546879E+04</rscale>
<asrwt>0</asrwt>
<pdfrwt beam="1">  1        2 0.14609363E+00 0.14546879E+04</pdfrwt>
<pdfrwt beam="2">  1       -2 0.85708062E-01 0.14546879E+04</pdfrwt>
<totfact> 0.31146089E+01</totfact>
</mgrwt>
</event>
<event>
 6    1  0.1001928E-005  0.1978706E+04  0.7818608E-02  0.8616641E-01
         -2   -1    0    0    0  501 -0.00000000000E+00  0.00000000000E+00  0.49157291318E+03  0.49157291318E+03  0.00000000000E+00 0.  1.
          2   -1    0    0  501    0  0.00000000000E+00 -0.00000000000E+00 -0.19911990652E+04  0.19911990652E+04  0.00000000000E+00 0. -1.
         23    2    1    2    0    0  0.76054142767E+03  0.56250784680E+03 -0.39762874299E+03  0.10304508602E+04  0.94244453654E+02 0.  0.
         11    1    3    3    0    0  0.12303685921E+03  0.11745876616E+03 -0.10395524978E+03  0.19935226216E+03  0.00000000000E+00 0. -1.
        -11    1    3    3    0    0  0.63750456846E+03  0.44504908063E+03 -0.29367349321E+03  0.83109859800E+03  0.00000000000E+00 0.  1.
         22    1    1    2    0    0 -0.76054142767E+03 -0.56250784680E+03 -0.11019974090E+04  0.14523211182E+04  0.00000000000E+00 0.  1.
<mgrwt>
<rscale>  0 0.19787062E+04</rscale>
<asrwt>0</asrwt>
<pdfrwt beam="1">  1        2 0.30633832E+00 0.19787062E+04</pdfrwt>
<pdfrwt beam="2">  1       -2 0.75626602E-01 0.19787062E+04</pdfrwt>
<totfact> 0.98567729E+00</totfact>
</mgrwt>
</event>
<event>
 6    1  0.1001928E-005  0.1569222E+04  0.7818608E-02  0.8839682E-01
         -1   -1    0    0    0  501 -0.00000000000E+00  0.00000000000E+00  0.10367264519E+04  0.10367264519E+04  0.00000000000E+00 0.  1.
          1   -1    0    0  501    0  0.00000000000E+00 -0.00000000000E+00 -0.59380614184E+03  0.59380614184E+03  0.00000000000E+00 0. -1.
         23    2    1    2    0    0  0.47333172828E+03 -0.61663571178E+03  0.13401870294E+03  0.79405023951E+03  0.90951877893E+02 0.  0.
         13    1    3    3    0    0  0.32186931286E+03 -0.42760877862E+03  0.49451971681E+02  0.53748918093E+03  0.00000000000E+00 0.  1.
        -13    1    3    3    0    0  0.15146241542E+03 -0.18902693316E+03  0.84566731260E+02  0.25656105858E+03  0.00000000000E+00 0. -1.
         22    1    1    2    0    0 -0.47333172828E+03  0.61663571178E+03  0.30890160710E+03  0.83648235421E+03  0.00000000000E+00 0.  1.
<mgrwt>
<rscale>  0 0.15692221E+04</rscale>
<asrwt>0</asrwt>
<pdfrwt beam="1">  1        1 0.91354791E-01 0.15692221E+04</pdfrwt>
<pdfrwt beam="2">  1       -1 0.15949638E+00 0.15692221E+04</pdfrwt>
<totfact> 0.98598115E+00</totfact>
</mgrwt>
</event>
<event>
 6    1  0.1001928E-005  0.2884046E+04  0.7818608E-02  0.8277640E-01
          2   -1    0    0  501    0  0.00000000000E+00  0.00000000000E+00  0.17277674517E+04  0.17277674517E+04  0.00000000000E+00 0. -1.
         -2   -1    0    0    0  501 -0.00000000000E+00 -0.00000000000E+00 -0.12035357528E+04  0.12035357528E+04  0.00000000000E+00 0.  1.
         23    2    1    2    0    0  0.81466854491E+03 -0.90372191709E+03  0.10463074764E+04  0.16073087714E+04  0.91016536281E+02 0.  0.
         11    1    3    3    0    0  0.54031941613E+03 -0.55358348606E+03  0.62267382369E+03  0.99303697726E+03  0.00000000000E+00 0. -1.
        -11    1    3    3    0    0  0.27434912878E+03 -0.35013843102E+03  0.42363365269E+03  0.61427179410E+03  0.00000000000E+00 0.  1.
         22    1    1    2    0    0 -0.81466854491E+03  0.90372191709E+03 -0.52207577746E+03  0.13239944331E+04  0.00000000000E+00 0.  1.
<mgrwt>
<rscale>  0 0.28840457E+04</rscale>
<asrwt>0</asrwt>
<pdfrwt beam="1">  1        2 0.26581038E+00 0.28840457E+04</pdfrwt>
<pdfrwt beam="2">  1       -2 0.18515935E+00 0.28840457E+04</pdfrwt>
<totfact> 0.13671491E+00</totfact>
</mgrwt>
</event>
<event>
 6    1  0.1001928E-005  0.1400459E+04  0.7818608E-02  0.8953486E-01
          1   -1    0    0  501    0  0.00000000000E+00  0.00000000000E+00  0.18953514058E+04  0.18953514058E+04  0.00000000000E+00 0. -1.
         -1   -1    0    0    0  501 -0.00000000000E+00 -0.00000000000E+00 -0.25869679047E+03  0.25869679047E+03  0.00000000000E+00 0.  1.
         23    2    1    2    0    0 -0.21546376396E+03 -0.58957730270E+03  0.35606280993E+03  0.72788502135E+03  0.94920230994E+02 0.  0.
         11    1    3    3    0    0 -0.30241665331E+02 -0.55677289080E+02  0.72188168819E+01  0.63770135317E+02  0.00000000000E+00 0.  1.
        -11    1    3    3    0    0 -0.18522209863E+03 -0.53390001362E+03  0.34884399305E+03  0.66411488603E+03  0.00000000000E+00 0. -1.
         22    1    1    2    0    0  0.21546376396E+03  0.58957730270E+03  0.12805918054E+04  0.14261631749E+04  0.00000000000E+00 0. -1.
<mgrwt>
<rscale>  0 0.14004590E+04</rscale>
<asrwt>0</asrwt>
<pdfrwt beam="1">  1        1 0.29159252E+00 0.14004590E+04</pdfrwt>
<pdfrwt beam="2">  1       -1 0.39799507E-01 0.14004590E+04</pdfrwt>
<totfact> 0.21047390E+01</totfact>
</mgrwt>
</event>
<event>
 6    1  0.1001928E-005  0.1113643E+04  0.7818608E-02  0.9191996E-01
         -1   -1    0    0    0  501 -0.00000000000E+00  0.00000000000E+00  0.60576842889E+03  0.60576842889E+03  0.00000000000E+00 0.  1.
          1   -1    0    0  501    0  0.00000000000E+00 -0.00000000000E+00 -0.51182948300E+03  0.51182948300E+03  0.00000000000E+00 0. -1.
         23    2    1    2    0    0 -0.20524856508E+03 -0.27556209353E+03 -0.38766000304E+03  0.52599078847E+03  0.91239195198E+02 0.  0.
         13    1    3    3    0    0 -0.79014641419E+01 -0.69657330853E+02 -0.69633962853E+02  0.98810250783E+02  0.00000000000E+00 0. -1.
        -13    1    3    3    0    0 -0.19734710094E+03 -0.20590476268E+03 -0.31802604019E+03  0.42718053769E+03  0.00000000000E+00 0.  1.
         22    1    1    2    0    0  0.20524856508E+03  0.27556209353E+03  0.48159894893E+03  0.59160712341E+03  0.00000000000E+00 0.  1.
<mgrwt>
<rscale>  0 0.11136429E+04</rscale>
<asrwt>0</asrwt>
<pdfrwt beam="1">  1        1 0.78742997E-01 0.11136429E+04</pdfrwt>
<pdfrwt beam="2">  1       -1 0.93195143E-01 0.11136429E+04</pdfrwt>
<totfact> 0.47780078E+01</totfact>
</mgrwt>
</event>
<event>
 6    1  0.1001928E-005  0.1527035E+04  0.7818608E-02  0.8866671E-01
         -2   -1    0    0    0  501 -0.00000000000E+00  0.00000000000E+00  0.84132775083E+03  0.84132775083E+03  0.00000000000E+00 0.  1.
          2   -1    0    0  501    0  0.00000000000E+00 -0.00000000000E+00 -0.69290342007E+03  0.69290342007E+03  0.00000000000E+00 0. -1.
         23    2    1    2    0    0 -0.41215383280E+03  0.37991508033E+03 -0.44235242566E+03  0.71984586524E+03  0.91083209515E+02 0.  0.
         11    1    3    3    0    0 -0.12360367710E+03  0.12042279413E+03 -0.19138228443E+03  0.25769496916E+03  0.00000000000E+00 0.  1.
        -11    1    3    3    0    0 -0.28855015569E+03  0.25949228621E+03 -0.25097014123E+03  0.46215089607E+03  0.00000000000E+00 0. -1.
         22    1    1    2    0    0  0.41215383280E+03 -0.37991508033E+03  0.59077675642E+03  0.81438530567E+03  0.00000000000E+00 0.  1.
<mgrwt>
<rscale>  0 0.15270349E+04</rscale>
<asrwt>0</asrwt>
<pdfrwt beam="1">  1        2 0.10660053E+00 0.15270349E+04</pdfrwt>
<pdfrwt beam="2">  1       -2 0.12943504E+00 0.15270349E+04</pdfrwt>
<totfact> 0.17568841E+01</totfact>
</mgrwt>
</event>
<event>
 6    1  0.1001928E-005  0.2273772E+04  0.7818608E-02  0.8488335E-01
          2   -1    0    0  501    0  0.00000000000E+00  0.00000000000E+00  0.22135370056E+04  0.22135370056E+04  0.00000000000E+00 0.  1.
         -2   -1    0    0    0  501 -0.00000000000E+00 -0.00000000000E+00 -0.58391133919E+03  0.58391133919E+03  0.00000000000E+00 0. -1.
         23    2    1    2    0    0  0.69043104504E+03  0.59168849404E+03 -0.19136084976E+02  0.91457670425E+03  0.96405685857E+02 0.  0.
         13    1    3    3    0    0  0.33979818518E+03  0.25370277536E+03 -0.47672225451E+02  0.42673240556E+03  0.00000000000E+00 0. -1.
        -13    1    3    3    0    0  0.35063285986E+03  0.33798571868E+03  0.28536140474E+02  0.48784429869E+03  0.00000000000E+00 0.  1.
         22    1    1    2    0    0 -0.69043104504E+03 -0.59168849404E+03  0.16487617514E+04  0.18828716406E+04  0.00000000000E+00 0.  1.
<mgrwt>
<rscale>  0 0.22737716E+04</rscale>
<asrwt>0</asrwt>
<pdfrwt beam="1">  1        2 0.34054415E+00 0.22737716E+04</pdfrwt>
<pdfrwt beam="2">  1       -2 0.89832515E-01 0.22737716E+04</pdfrwt>
<totfact> 0.48922082E+00</totfact>
</mgrwt>
</event>
<event>
 6    1  0.1001928E-005  0.1503469E+04  0.7818608E-02  0.8882149E-01
          1   -1    0    0  501    0  0.00000000000E+00  0.00000000000E+00  0.97584393678E+03  0.97584393678E+03  0.00000000000E+00 0. -1.
         -1   -1    0    0    0  501 -0.00000000000E+00 -0.00000000000E+00 -0.57909356888E+03  0.57909356888E+03  0.00000000000E+00 0.  1.
         23    2    1    2    0    0 -0.63245489554E+03 -0.39809486661E+03  0.14711561675E+03  0.76703127602E+03  0.90638049379E+02 0.  0.
         11    1    3    3    0    0 -0.29814745734E+03 -0.17923413679E+03  0.23051979105E+02  0.34863759959E+03  0.00000000000E+00 0.  1.
        -11    1    3    3    0    0 -0.33430743820E+03 -0.21886072982E+03  0.12406363764E+03  0.41839367643E+03  0.00000000000E+00 0. -1.
         22    1    1    2    0    0  0.63245489554E+03  0.39809486661E+03  0.24963475116E+03  0.78790622963E+03  0.00000000000E+00 0.  1.
<mgrwt>
<rscale>  0 0.15034693E+04</rscale>
<asrwt>0</asrwt>
<pdfrwt beam="1">  1        1 0.15012984E+00 0.15034693E+04</pdfrwt>
<pdfrwt beam="2">  1       -1 0.89091319E-01 0.15034693E+04</pdfrwt>
<totfact> 0.18889837E+01</totfact>
</mgrwt>
</event>
<event>
 6    1  0.1001928E-005  0.9620674E+03  0.7818608E-02  0.9351156E-01
         -1   -1    0    0    0  501 -0.00000000000E+00  0.00000000000E+00  0.13274946265E+03  0.13274946265E+03  0.00000000000E+00 0.  1.
          1   -1    0    0  501    0  0.00000000000E+00 -0.00000000000E+00 -0.17430836274E+04  0.17430836274E+04  0.00000000000E+00 0. -1.
         23    2    1    2    0    0 -0.63428687878E+02  0.32897579051E+03 -0.15171465853E+03  0.37923055995E+03  0.92467349910E+02 0.  0.
         13    1    3    3    0    0  0.15030801488E+02  0.12317778708E+03 -0.30310520227E+02  0.12773965656E+03  0.00000000000E+00 0.  1.
        -13    1    3    3    0    0 -0.78459489366E+02  0.20579800343E+03 -0.12140413831E+03  0.25149090338E+03  0.00000000000E+00 0. -1.
         22    1    1    2    0    0  0.63428687878E+02 -0.32897579051E+03 -0.14586195062E+04  0.14966025301E+04  0.00000000000E+00 0. -1.
<mgrwt>
<rscale>  0 0.96206739E+03</rscale>
<asrwt>0</asrwt>
<pdfrwt beam="1">  1        1 0.26816669E+00 0.96206739E+03</pdfrwt>
<pdfrwt beam="2">  1       -1 0.20422996E-01 0.96206739E+03</pdfrwt>
<totfact> 0.88600135E+01</totfact>
</mgrwt>
</event>
<event>
 6    1  0.1001928E-005  0.1599991E+04  0.7818608E-02  0.8820554E-01
          1   -1    0    0  501    0  0.00000000000E+00  0.00000000000E+00  0.14557952187E+04  0.14557952187E+04  0.00000000000E+00 0. -1.
         -1   -1    0    0    0  501 -0.00000000000E+00 -0.00000000000E+00 -0.43961733523E+03  0.43961733523E+03  0.00000000000E+00 0.  1.
         23    2    1    2    0    0 -0.50231439688E+03 -0.52330404240E+03  0.11731353024E+03  0.74036969775E+03  0.90652914324E+02 0.  0.
         13    1    3    3    0    0 -0.12935391349E+03 -0.19497014569E+03  0.30683052341E+02  0.23598144491E+03  0.00000000000E+00 0. -1.
        -13    1    3    3    0    0 -0.37296048339E+03 -0.32833389671E+03  0.86630477895E+02  0.50438825284E+03  0.00000000000E+00 0.  1.
         22    1    1    2    0    0  0.50231439688E+03  0.52330404240E+03  0.89886435327E+03  0.11550428562E+04  0.00000000000E+00 0. -1.
<mgrwt>
<rscale>  0 0.15999910E+04</rscale>
<asrwt>0</asrwt>
<pdfrwt beam="1">  1        1 0.22396849E+00 0.15999910E+04</pdfrwt>
<pdfrwt beam="2">  1       -1 0.67633437E-01 0.15999910E+04</pdfrwt>
<totfact> 0.14915319E+01</totfact>
</mgrwt>
</event>
<event>
 6    1  0.1001928E-005  0.1830760E+04  0.7818608E-02  0.8690111E-01
          1   -1    0    0  501    0  0.00000000000E+00  0.00000000000E+00  0.18169101086E+04  0.18169101086E+04  0.00000000000E+00 0. -1.
         -1   -1    0    0    0  501 -0.00000000000E+00 -0.00000000000E+00 -0.46117871243E+03  0.46117871243E+03  0.00000000000E+00 0.  1.
         23    2    1    2    0    0  0.61735363421E+03 -0.62619818656E+03  0.37340641054E+03  0.95967611785E+03  0.91083616645E+02 0.  0.
         11    1    3    3    0    0  0.30976526142E+03 -0.34731039621E+03  0.23968083012E+03  0.52347485978E+03  0.00000000000E+00 0. -1.
        -11    1    3    3    0    0  0.30758837279E+03 -0.27888779035E+03  0.13372558042E+03  0.43620125807E+03  0.00000000000E+00 0.  1.
         22    1    1    2    0    0 -0.61735363421E+03  0.62619818656E+03  0.98232498567E+03  0.13184127032E+04  0.00000000000E+00 0.  1.
<mgrwt>
<rscale>  0 0.18307597E+04</rscale>
<asrwt>0</asrwt>
<pdfrwt beam="1">  1        1 0.27952463E+00 0.18307597E+04</pdfrwt>
<pdfrwt beam="2">  1       -1 0.70950572E-01 0.18307597E+04</pdfrwt>
<totfact> 0.74925614E+00</totfact>
</mgrwt>
</event>
<event>
 6    1  0.1001928E-005  0.1392599E+04  0.7818608E-02  0.8959193E-01
         -2   -1    0    0    0  501 -0.00000000000E+00  0.00000000000E+00  0.44759666345E+03  0.44759666345E+03  0.00000000000E+00 0.  1.
          2   -1    0    0  501    0  0.00000000000E+00 -0.00000000000E+00 -0.10831919549E+04  0.10831919549E+04  0.00000000000E+00 0. -1.
         23    2    1    2    0    0  0.12295667164E+03 -0.14518724697E+03  0.41316662744E+03  0.46490905560E+03  0.96104568880E+02 0.  0.
         13    1    3    3    0    0 -0.57559660359E+01 -0.56575199320E+02  0.11298810719E+03  0.12649188389E+03  0.00000000000E+00 0. -1.
        -13    1    3    3    0    0  0.12871263768E+03 -0.88612047653E+02  0.30017852025E+03  0.33841717171E+03  0.00000000000E+00 0.  1.
         22    1    1    2    0    0 -0.12295667164E+03  0.14518724697E+03 -0.10487619189E+04  0.10658795628E+04  0.00000000000E+00 0. -1.
<mgrwt>
<rscale>  0 0.13925992E+04</rscale>
<asrwt>0</asrwt>
<pdfrwt beam="1">  1        2 0.16664492E+00 0.13925992E+04</pdfrwt>
<pdfrwt beam="2">  1       -2 0.68861025E-01 0.13925992E+04</pdfrwt>
<totfact> 0.41875818E+01</totfact>
</mgrwt>
</event>
<event>
 6    1  0.1001928E-005  0.8922965E+03  0.7818608E-02  0.9435263E-01
         -2   -1    0    0    0  501 -0.00000000000E+00  0.00000000000E+00  0.38606033306E+03  0.38606033306E+03  0.00000000000E+00 0.  1.
          2   -1    0    0  501    0  0.00000000000E+00 -0.00000000000E+00 -0.51558845694E+03  0.51558845694E+03  0.00000000000E+00 0. -1.
         23    2    1    2    0    0 -0.24508206223E+03 -0.20830052944E+03 -0.37101302177E+03  0.49944326580E+03  0.91315856482E+02 0.  0.
         11    1    3    3    0    0 -0.23353792276E+03 -0.15656112924E+03 -0.31804377932E+03  0.42450346773E+03  0.00000000000E+00 0. -1.
        -11    1    3    3    0    0 -0.11544139471E+02 -0.51739400201E+02 -0.52969242451E+02  0.74939798073E+02  0.00000000000E+00 0.  1.
         22    1    1    2    0    0  0.24508206223E+03  0.20830052944E+03  0.24148489788E+03  0.40220552420E+03  0.00000000000E+00 0. -1.
<mgrwt>
<rscale>  0 0.89229648E+03</rscale>
<asrwt>0</asrwt>
<pdfrwt beam="1">  1        2 0.79321302E-01 0.89229648E+03</pdfrwt>
<pdfrwt beam="2">  1       -2 0.59393897E-01 0.89229648E+03</pdfrwt>
<totfact> 0.15786795E+02</totfact>
</mgrwt>
</event>
<event>
 6    1  0.1001928E-005  0.2143108E+04  0.7818608E-02  0.8542488E-01
          2   -1    0    0  501    0  0.00000000000E+00  0.00000000000E+00  0.12871476793E+04  0.12871476793E+04  0.00000000000E+00 0. -1.
         -2   -1    0    0    0  501 -0.00000000000E+00 -0.00000000000E+00 -0.89207177352E+03  0.89207177352E+03  0.00000000000E+00 0.  1.
         23    2    1    2    0    0 -0.86054499604E+03  0.11998365693E+02  0.84387915744E+03  0.12085979974E+04  0.88856266153E+02 0.  0.
         13    1    3    3    0    0 -0.42807004594E+03  0.45289035030E+01  0.48181110243E+03  0.64452029729E+03  0.00000000000E+00 0.  1.
        -13    1    3    3    0    0 -0.43247495010E+03  0.74694621904E+01  0.36206805501E+03  0.56407770014E+03  0.00000000000E+00 0. -1.
         22    1    1    2    0    0  0.86054499604E+03 -0.11998365693E+02 -0.44880325166E+03  0.97062145540E+03  0.00000000000E+00 0.  1.
<mgrwt>
<rscale>  0 0.21431081E+04</rscale>
<asrwt>0</asrwt>
<pdfrwt beam="1">  1        2 0.19802272E+00 0.21431081E+04</pdfrwt>
<pdfrwt beam="2">  1       -2 0.13724181E+00 0.21431081E+04</pdfrwt>
<totfact> 0.58422985E+00</totfact>
</mgrwt>
</event>
<event>
 6    1  0.1001928E-005  0.2700497E+04  0.7818608E-02  0.8334844E-01
          2   -1    0    0  501    0  0.00000000000E+00  0.00000000000E+00  0.20309781792E+04  0.20309781792E+04  0.00000000000E+00 0. -1.
         -2   -1    0    0    0  501 -0.00000000000E+00 -0.00000000000E+00 -0.89768103196E+03  0.89768103196E+03  0.00000000000E+00 0.  1.
         23    2    1    2    0    0  0.26059527794E+03  0.68907681390E+03  0.17924579514E+04  0.19401099104E+04  0.91565291743E+02 0.  0.
         11    1    3    3    0    0  0.72575835615E+02  0.10569679855E+03  0.26975062533E+03  0.29867116534E+03  0.00000000000E+00 0.  1.
        -11    1    3    3    0    0  0.18801944233E+03  0.58338001535E+03  0.15227073261E+04  0.16414387451E+04  0.00000000000E+00 0. -1.
         22    1    1    2    0    0 -0.26059527794E+03 -0.68907681390E+03 -0.65916080413E+03  0.98854930076E+03  0.00000000000E+00 0.  1.
<mgrwt>
<rscale>  0 0.27004967E+04</rscale>
<asrwt>0</asrwt>
<pdfrwt beam="1">  1        2 0.31245818E+00 0.27004967E+04</pdfrwt>
<pdfrwt beam="2">  1       -2 0.13810477E+00 0.27004967E+04</pdfrwt>
<totfact> 0.20960565E+00</totfact>
</mgrwt>
</event>
<event>
 6    1  0.1001928E-005  0.3541310E+04  0.7818608E-02  0.8104069E-01
          2   -1    0    0  501    0  0.00000000000E+00  0.00000000000E+00  0.17484549952E+04  0.17484549952E+04  0.00000000000E+00 0. -1.
         -2   -1    0    0    0  501 -0.00000000000E+00 -0.00000000000E+00 -0.17931367545E+04  0.17931367545E+04  0.00000000000E+00 0.  1.
         23    2    1    2    0    0  0.17306572303E+04  0.34917603608E+03 -0.14288899658E+03  0.17733318666E+04  0.84795582850E+02 0.  0.
         11    1    3    3    0    0  0.14065895695E+04  0.28490362255E+03 -0.82861901719E+02  0.14375431770E+04  0.00000000000E+00 0. -1.
        -11    1    3    3    0    0  0.32406766080E+03  0.64272413527E+02 -0.60027094860E+02  0.33578868956E+03  0.00000000000E+00 0.  1.
         22    1    1    2    0    0 -0.17306572303E+04 -0.34917603608E+03  0.98207237321E+02  0.17682598831E+04  0.00000000000E+00 0. -1.
<mgrwt>
<rscale>  0 0.35413099E+04</rscale>
<asrwt>0</asrwt>
<pdfrwt beam="1">  1        2 0.26899308E+00 0.35413099E+04</pdfrwt>
<pdfrwt beam="2">  1       -2 0.27586719E+00 0.35413099E+04</pdfrwt>
<totfact> 0.33687215E-01</totfact>
</mgrwt>
</event>
<event>
 6    1  0.1001928E-005  0.1972891E+04  0.7818608E-02  0.8619401E-01
          2   -1    0    0  501    0  0.00000000000E+00  0.00000000000E+00  0.67581582994E+03  0.67581582994E+03  0.00000000000E+00 0. -1.
         -2   -1    0    0    0  501 -0.00000000000E+00 -0.00000000000E+00 -0.14398524281E+04  0.14398524281E+04  0.00000000000E+00 0.  1.
         23    2    1    2    0    0  0.29073983078E+03  0.87040782190E+03 -0.67852894665E+00  0.92199536839E+03  0.89081834868E+02 0.  0.
         11    1    3    3    0    0  0.60880210761E+02  0.26860330603E+03  0.30075566693E+02  0.27705356122E+03  0.00000000000E+00 0.  1.
        -11    1    3    3    0    0  0.22985962002E+03  0.60180451586E+03 -0.30754095640E+02  0.64494180717E+03  0.00000000000E+00 0. -1.
         22    1    1    2    0    0 -0.29073983078E+03 -0.87040782190E+03 -0.76335806917E+03  0.11936728896E+04  0.00000000000E+00 0.  1.
<mgrwt>
<rscale>  0 0.19728913E+04</rscale>
<asrwt>0</asrwt>
<pdfrwt beam="1">  1        2 0.10397167E+00 0.19728913E+04</pdfrwt>
<pdfrwt beam="2">  1       -2 0.22151576E+00 0.19728913E+04</pdfrwt>
<totfact> 0.38532654E+00</totfact>
</mgrwt>
</event>
<event>
 6    1  0.1001928E-005  0.2936413E+04  0.7818608E-02  0.8262125E-01
          1   -1    0    0  501    0  0.00000000000E+00  0.00000000000E+00  0.25305743969E+04  0.25305743969E+04  0.00000000000E+00 0. -1.
         -1   -1    0    0    0  501 -0.00000000000E+00 -0.00000000000E+00 -0.85183451490E+03  0.85183451490E+03  0.00000000000E+00 0.  1.
         23    2    1    2    0    0  0.11794320575E+04 -0.68431281849E+03  0.14633589088E+04  0.20019260341E+04  0.83333896366E+02 0.  0.
         11    1    3    3    0    0  0.42403038112E+03 -0.20086494110E+03  0.49341907647E+03  0.68088976619E+03  0.00000000000E+00 0. -1.
        -11    1    3    3    0    0  0.75540167642E+03 -0.48344787739E+03  0.96993983234E+03  0.13210362680E+04  0.00000000000E+00 0.  1.
         22    1    1    2    0    0 -0.11794320575E+04  0.68431281849E+03  0.21538097319E+03  0.13804828777E+04  0.00000000000E+00 0.  1.
<mgrwt>
<rscale>  0 0.29364132E+04</rscale>
<asrwt>0</asrwt>
<pdfrwt beam="1">  1        1 0.38931913E+00 0.29364132E+04</pdfrwt>
<pdfrwt beam="2">  1       -1 0.13105147E+00 0.29364132E+04</pdfrwt>
<totfact> 0.54827459E-01</totfact>
</mgrwt>
</event>
<event>
 6    1  0.1001928E-005  0.3469243E+04  0.7818608E-02  0.8121118E-01
          1   -1    0    0  501    0  0.00000000000E+00  0.00000000000E+00  0.31062728228E+04  0.31062728228E+04  0.00000000000E+00 0. -1.
         -1   -1    0    0    0  501 -0.00000000000E+00 -0.00000000000E+00 -0.96865644572E+03  0.96865644572E+03  0.00000000000E+00 0.  1.
         23    2    1    2    0    0 -0.13107174993E+04 -0.11156425331E+04  0.13109001322E+04  0.21654533262E+04  0.89946243926E+02 0.  0.
         11    1    3    3    0    0 -0.92969641725E+03 -0.74668451987E+03  0.93703874377E+03  0.15165470015E+04  0.00000000000E+00 0. -1.
        -11    1    3    3    0    0 -0.38102108207E+03 -0.36895801319E+03  0.37386138845E+03  0.64890632471E+03  0.00000000000E+00 0.  1.
         22    1    1    2    0    0  0.13107174993E+04  0.11156425331E+04  0.82671624481E+03  0.19094759423E+04  0.00000000000E+00 0. -1.
<mgrwt>
<rscale>  0 0.34692427E+04</rscale>
<asrwt>0</asrwt>
<pdfrwt beam="1">  1        1 0.47788812E+00 0.34692427E+04</pdfrwt>
<pdfrwt beam="2">  1       -1 0.14902407E+00 0.34692427E+04</pdfrwt>
<totfact> 0.14488439E-01</totfact>
</mgrwt>
</event>
<event>
 6    1  0.1001928E-005  0.4921906E+03  0.7818608E-02  0.1015838E+00
         -2   -1    0    0    0  501 -0.00000000000E+00  0.00000000000E+00  0.42968450851E+03  0.42968450851E+03  0.00000000000E+00 0.  1.
          2   -1    0    0  501    0  0.00000000000E+00 -0.00000000000E+00 -0.14094734366E+03  0.14094734366E+03  0.00000000000E+00 0. -1.
         23    2    1    2    0    0 -0.21913694914E+03 -0.31986880322E+02  0.48330790273E+02  0.24376890240E+03  0.89684165243E+02 0.  0.
         13    1    3    3    0    0 -0.17257919340E+03 -0.98284058431E+01  0.71724235369E+02  0.18714844775E+03  0.00000000000E+00 0. -1.
        -13    1    3    3    0    0 -0.46557755744E+02 -0.22158474479E+02 -0.23393445096E+02  0.56620454649E+02  0.00000000000E+00 0.  1.
         22    1    1    2    0    0  0.21913694914E+03  0.31986880322E+02  0.24040637458E+03  0.32686294977E+03  0.00000000000E+00 0.  1.
<mgrwt>
<rscale>  0 0.49219057E+03</rscale>
<asrwt>0</asrwt>
<pdfrwt beam="1">  1        2 0.21684207E-01 0.49219057E+03</pdfrwt>
<pdfrwt beam="2">  1       -2 0.66105308E-01 0.49219057E+03</pdfrwt>
<totfact> 0.54832576E+02</totfact>
</mgrwt>
</event>
<event>
 6    1  0.1001928E-005  0.1692840E+04  0.7818608E-02  0.8765459E-01
          2   -1    0    0  501    0  0.00000000000E+00  0.00000000000E+00  0.24836619152E+04  0.24836619152E+04  0.00000000000E+00 0. -1.
         -2   -1    0    0    0  501 -0.00000000000E+00 -0.00000000000E+00 -0.28845573814E+03  0.28845573814E+03  0.00000000000E+00 0.  1.
         23    2    1    2    0    0  0.41206171600E+03  0.58301044008E+03  0.36424556875E+03  0.80689176805E+03  0.93292335960E+02 0.  0.
         13    1    3    3    0    0  0.26943281262E+03  0.38240074237E+03  0.18798315540E+03  0.50414485517E+03  0.00000000000E+00 0.  1.
        -13    1    3    3    0    0  0.14262890339E+03  0.20060969771E+03  0.17626241335E+03  0.30274691288E+03  0.00000000000E+00 0. -1.
         22    1    1    2    0    0 -0.41206171600E+03 -0.58301044008E+03  0.18309606083E+04  0.19652258853E+04  0.00000000000E+00 0. -1.
<mgrwt>
<rscale>  0 0.16928397E+04</rscale>
<asrwt>0</asrwt>
<pdfrwt beam="1">  1        2 0.38210182E+00 0.16928397E+04</pdfrwt>
<pdfrwt beam="2">  1       -2 0.44377807E-01 0.16928397E+04</pdfrwt>
<totfact> 0.16337652E+01</totfact>
</mgrwt>
</event>
<event>
 6    1  0.1001928E-005  0.1067023E+04  0.7818608E-02  0.9237943E-01
          1   -1    0    0  501    0  0.00000000000E+00  0.00000000000E+00  0.31308172227E+03  0.31308172227E+03  0.00000000000E+00 0. -1.
         -1   -1    0    0    0  501 -0.00000000000E+00 -0.00000000000E+00 -0.90913872326E+03  0.90913872326E+03  0.00000000000E+00 0.  1.
         23    2    1    2    0    0  0.50974370068E+03 -0.64822946310E+02 -0.44806210434E+03  0.68748392706E+03  0.88509015754E+02 0.  0.
         11    1    3    3    0    0  0.21151659370E+03 -0.40131169562E+01 -0.13558602955E+03  0.25127464243E+03  0.00000000000E+00 0. -1.
        -11    1    3    3    0    0  0.29822710698E+03 -0.60809829354E+02 -0.31247607479E+03  0.43620928463E+03  0.00000000000E+00 0.  1.
         22    1    1    2    0    0 -0.50974370068E+03  0.64822946310E+02 -0.14799489665E+03  0.53473651847E+03  0.00000000000E+00 0. -1.
<mgrwt>
<rscale>  0 0.10670234E+04</rscale>
<asrwt>0</asrwt>
<pdfrwt beam="1">  1        1 0.48166419E-01 0.10670234E+04</pdfrwt>
<pdfrwt beam="2">  1       -1 0.13986749E+00 0.10670234E+04</pdfrwt>
<totfact> 0.34797384E+01</totfact>
</mgrwt>
</event>
<event>
 6    1  0.1001928E-005  0.3039909E+04  0.7818608E-02  0.8232426E-01
         -2   -1    0    0    0  501 -0.00000000000E+00  0.00000000000E+00  0.15203574951E+04  0.15203574951E+04  0.00000000000E+00 0.  1.
          2   -1    0    0  501    0  0.00000000000E+00 -0.00000000000E+00 -0.15195516110E+04  0.15195516110E+04  0.00000000000E+00 0. -1.
         23    2    1    2    0    0 -0.10995750556E+04  0.96433511321E+02  0.10433507987E+04  0.15215993144E+04  0.91207781338E+02 0.  0.
         13    1    3    3    0    0 -0.76034567850E+03  0.38769628044E+02  0.67415102097E+03  0.10169111239E+04  0.00000000000E+00 0.  1.
        -13    1    3    3    0    0 -0.33922937713E+03  0.57663883277E+02  0.36919977768E+03  0.50468819045E+03  0.00000000000E+00 0. -1.
         22    1    1    2    0    0  0.10995750556E+04 -0.96433511321E+02 -0.10425449145E+04  0.15183097918E+04  0.00000000000E+00 0. -1.
<mgrwt>
<rscale>  0 0.30399090E+04</rscale>
<asrwt>0</asrwt>
<pdfrwt beam="1">  1        2 0.23377717E+00 0.30399090E+04</pdfrwt>
<pdfrwt beam="2">  1       -2 0.23390115E+00 0.30399090E+04</pdfrwt>
<totfact> 0.85352322E-01</totfact>
</mgrwt>
</event>
<event>
 6    1  0.1001928E-005  0.3716704E+04  0.7818608E-02  0.8064270E-01
         -1   -1    0    0    0  501 -0.00000000000E+00  0.00000000000E+00  0.14251277016E+04  0.14251277016E+04  0.00000000000E+00 0.  1.
          1   -1    0    0  501    0  0.00000000000E+00 -0.00000000000E+00 -0.24232714619E+04  0.24232714619E+04  0.00000000000E+00 0. -1.
         23    2    1    2    0    0  0.80933507290E+03 -0.74710079505E+03  0.10484807109E+04  0.15242101470E+04  0.10354666917E+03 0.  0.
         13    1    3    3    0    0  0.41630718176E+03 -0.45311916456E+03  0.57025636294E+03  0.83894038307E+03  0.00000000000E+00 0. -1.
        -13    1    3    3    0    0  0.39302789114E+03 -0.29398163049E+03  0.47822434799E+03  0.68526976388E+03  0.00000000000E+00 0.  1.
         22    1    1    2    0    0 -0.80933507290E+03  0.74710079505E+03 -0.20466244713E+04  0.23241890165E+04  0.00000000000E+00 0. -1.
<mgrwt>
<rscale>  0 0.37167035E+04</rscale>
<asrwt>0</asrwt>
<pdfrwt beam="1">  1        1 0.37281099E+00 0.37167035E+04</pdfrwt>
<pdfrwt beam="2">  1       -1 0.21925042E+00 0.37167035E+04</pdfrwt>
<totfact> 0.13656682E-01</totfact>
</mgrwt>
</event>
<event>
 6    1  0.1001928E-005  0.3815666E+04  0.7818608E-02  0.8042801E-01
          2   -1    0    0  501    0  0.00000000000E+00  0.00000000000E+00  0.93478149382E+03  0.93478149382E+03  0.00000000000E+00 0. -1.
         -2   -1    0    0    0  501 -0.00000000000E+00 -0.00000000000E+00 -0.38937725647E+04  0.38937725647E+04  0.00000000000E+00 0.  1.
         23    2    1    2    0    0 -0.17679687074E+04 -0.71239725002E+03 -0.15434758084E+04  0.24543369980E+04  0.90715690072E+02 0.  0.
         11    1    3    3    0    0 -0.13130612553E+04 -0.50734219902E+03 -0.10946697846E+04  0.17832071962E+04  0.00000000000E+00 0.  1.
        -11    1    3    3    0    0 -0.45490745204E+03 -0.20505505100E+03 -0.44880602389E+03  0.67112980186E+03  0.00000000000E+00 0. -1.
         22    1    1    2    0    0  0.17679687074E+04  0.71239725002E+03 -0.14155152624E+04  0.23742170605E+04  0.00000000000E+00 0.  1.
<mgrwt>
<rscale>  0 0.38156659E+04</rscale>
<asrwt>0</asrwt>
<pdfrwt beam="1">  1        2 0.14381253E+00 0.38156659E+04</pdfrwt>
<pdfrwt beam="2">  1       -2 0.59904195E+00 0.38156659E+04</pdfrwt>
<totfact> 0.11356387E-02</totfact>
</mgrwt>
</event>
<event>
 6    1  0.1001928E-005  0.2296947E+04  0.7818608E-02  0.8479126E-01
         -1   -1    0    0    0  501 -0.00000000000E+00  0.00000000000E+00  0.62936561635E+03  0.62936561635E+03  0.00000000000E+00 0.  1.
          1   -1    0    0  501    0  0.00000000000E+00 -0.00000000000E+00 -0.20957479623E+04  0.20957479623E+04  0.00000000000E+00 0. -1.
         23    2    1    2    0    0 -0.22106710309E+03  0.70773223974E+03 -0.17720820207E+04  0.19231111607E+04  0.91248348778E+02 0.  0.
         13    1    3    3    0    0 -0.67059428902E+02  0.34897738598E+03 -0.90057123734E+03  0.96814809635E+03  0.00000000000E+00 0.  1.
        -13    1    3    3    0    0 -0.15400767419E+03  0.35875485377E+03 -0.87151078331E+03  0.95496306433E+03  0.00000000000E+00 0. -1.
         22    1    1    2    0    0  0.22106710309E+03 -0.70773223974E+03  0.30569967474E+03  0.80200241794E+03  0.00000000000E+00 0.  1.
<mgrwt>
<rscale>  0 0.22969473E+04</rscale>
<asrwt>0</asrwt>
<pdfrwt beam="1">  1        1 0.32242276E+00 0.22969473E+04</pdfrwt>
<pdfrwt beam="2">  1       -1 0.96825480E-01 0.22969473E+04</pdfrwt>
<totfact> 0.23787463E+00</totfact>
</mgrwt>
</event>
<event>
 6    1  0.1001928E-005  0.3356241E+04  0.7818608E-02  0.8148731E-01
         -2   -1    0    0    0  501 -0.00000000000E+00  0.00000000000E+00  0.87228709684E+03  0.87228709684E+03  0.00000000000E+00 0. -1.
          2   -1    0    0  501    0  0.00000000000E+00 -0.00000000000E+00 -0.32283954010E+04  0.32283954010E+04  0.00000000000E+00 0.  1.
         23    2    1    2    0    0 -0.15417472024E+04  0.59135674990E+03 -0.15361094701E+04  0.22570216479E+04  0.88471312801E+02 0.  0.
         13    1    3    3    0    0 -0.76870943356E+03  0.34186643114E+03 -0.78887526136E+03  0.11533043952E+04  0.00000000000E+00 0.  1.
        -13    1    3    3    0    0 -0.77303776884E+03  0.24949031875E+03 -0.74723420877E+03  0.11037172527E+04  0.00000000000E+00 0. -1.
         22    1    1    2    0    0  0.15417472024E+04 -0.59135674990E+03 -0.81999883407E+03  0.18436608500E+04  0.00000000000E+00 0. -1.
<mgrwt>
<rscale>  0 0.33562405E+04</rscale>
<asrwt>0</asrwt>
<pdfrwt beam="1">  1        2 0.49667622E+00 0.33562405E+04</pdfrwt>
<pdfrwt beam="2">  1       -2 0.13419801E+00 0.33562405E+04</pdfrwt>
<totfact> 0.41331550E-01</totfact>
</mgrwt>
</event>
<event>
 6    1  0.1001928E-005  0.2541957E+04  0.7818608E-02  0.8388189E-01
          2   -1    0    0  501    0  0.00000000000E+00  0.00000000000E+00  0.71018886480E+03  0.71018886480E+03  0.00000000000E+00 0. -1.
         -2   -1    0    0    0  501 -0.00000000000E+00 -0.00000000000E+00 -0.22745871473E+04  0.22745871473E+04  0.00000000000E+00 0.  1.
         23    2    1    2    0    0  0.36137912969E+03  0.12166318565E+04 -0.75729836300E+03  0.14807154317E+04  0.90716202014E+02 0.  0.
         13    1    3    3    0    0  0.10554388214E+03  0.33746036997E+03 -0.16482499734E+03  0.39011061522E+03  0.00000000000E+00 0. -1.
        -13    1    3    3    0    0  0.25583524755E+03  0.87917148654E+03 -0.59247336566E+03  0.10906048164E+04  0.00000000000E+00 0.  1.
         22    1    1    2    0    0 -0.36137912969E+03 -0.12166318565E+04 -0.80709991954E+03  0.15040605805E+04  0.00000000000E+00 0. -1.
<mgrwt>
<rscale>  0 0.25419571E+04</rscale>
<asrwt>0</asrwt>
<pdfrwt beam="1">  1        2 0.10925983E+00 0.25419571E+04</pdfrwt>
<pdfrwt beam="2">  1       -2 0.34993648E+00 0.25419571E+04</pdfrwt>
<totfact> 0.55700123E-01</totfact>
</mgrwt>
</event>
<event>
 6    1  0.1001928E-005  0.4289824E+04  0.7818608E-02  0.7948502E-01
          2   -1    0    0  501    0  0.00000000000E+00  0.00000000000E+00  0.13562985814E+04  0.13562985814E+04  0.00000000000E+00 0. -1.
         -2   -1    0    0    0  501 -0.00000000000E+00 -0.00000000000E+00 -0.33920604656E+04  0.33920604656E+04  0.00000000000E+00 0.  1.
         23    2    1    2    0    0  0.17146512009E+04 -0.12747597207E+04 -0.12136103469E+04  0.24590416298E+04  0.94839741579E+02 0.  0.
         13    1    3    3    0    0  0.12177012695E+04 -0.85700675698E+03 -0.86801214538E+03  0.17235724666E+04  0.00000000000E+00 0. -1.
        -13    1    3    3    0    0  0.49694993141E+03 -0.41775296373E+03 -0.34559820150E+03  0.73546916313E+03  0.00000000000E+00 0.  1.
         22    1    1    2    0    0 -0.17146512009E+04  0.12747597207E+04 -0.82215153739E+03  0.22893174172E+04  0.00000000000E+00 0. -1.
<mgrwt>
<rscale>  0 0.42898237E+04</rscale>
<asrwt>0</asrwt>
<pdfrwt beam="1">  1        2 0.20866132E+00 0.42898237E+04</pdfrwt>
<pdfrwt beam="2">  1       -2 0.52185545E+00 0.42898237E+04</pdfrwt>
<totfact> 0.14449067E-02</totfact>
</mgrwt>
</event>
<event>
 6    1  0.1001928E-005  0.2702510E+04  0.7818608E-02  0.8334191E-01
         -1   -1    0    0    0  501 -0.00000000000E+00  0.00000000000E+00  0.54207955459E+03  0.54207955459E+03  0.00000000000E+00 0.  1.
          1   -1    0    0  501    0  0.00000000000E+00 -0.00000000000E+00 -0.33683057766E+04  0.33683057766E+04  0.00000000000E+00 0. -1.
         23    2    1    2    0    0  0.14994366570E+02  0.29901696079E+03 -0.33190408286E+04  0.33337552849E+04  0.90864203462E+02 0.  0.
         11    1    3    3    0    0 -0.77505207585E+00  0.23753262906E+03 -0.21698275622E+04  0.21827904160E+04  0.00000000000E+00 0.  1.
        -11    1    3    3    0    0  0.15769418646E+02  0.61484331726E+02 -0.11492132664E+04  0.11509648689E+04  0.00000000000E+00 0. -1.
         22    1    1    2    0    0 -0.14994366570E+02 -0.29901696079E+03  0.49281460660E+03  0.57663004634E+03  0.00000000000E+00 0.  1.
<mgrwt>
<rscale>  0 0.27025097E+04</rscale>
<asrwt>0</asrwt>
<pdfrwt beam="1">  1        1 0.51820089E+00 0.27025097E+04</pdfrwt>
<pdfrwt beam="2">  1       -1 0.83396855E-01 0.27025097E+04</pdfrwt>
<totfact> 0.39419781E-01</totfact>
</mgrwt>
</event>
<event>
 6    1  0.1001928E-005  0.4004077E+04  0.7818608E-02  0.8003725E-01
          4   -1    0    0  501    0  0.00000000000E+00  0.00000000000E+00  0.15627956689E+04  0.15627956689E+04  0.00000000000E+00 0. -1.
         -4   -1    0    0    0  501 -0.00000000000E+00 -0.00000000000E+00 -0.25647357466E+04  0.25647357466E+04  0.00000000000E+00 0.  1.
         23    2    1    2    0    0 -0.16476871454E+04 -0.96506657188E+03 -0.11178571995E+04  0.22145067955E+04  0.90604700230E+02 0.  0.
         11    1    3    3    0    0 -0.12510753111E+04 -0.69258726135E+03 -0.81478766657E+03  0.16458266890E+04  0.00000000000E+00 0. -1.
        -11    1    3    3    0    0 -0.39661183429E+03 -0.27247931054E+03 -0.30306953292E+03  0.56868010653E+03  0.00000000000E+00 0.  1.
         22    1    1    2    0    0  0.16476871454E+04  0.96506657188E+03  0.11591712174E+03  0.19130246199E+04  0.00000000000E+00 0.  1.
<mgrwt>
<rscale>  0 0.40040769E+04</rscale>
<asrwt>0</asrwt>
<pdfrwt beam="1">  1        4 0.24043011E+00 0.40040769E+04</pdfrwt>
<pdfrwt beam="2">  1       -4 0.39457472E+00 0.40040769E+04</pdfrwt>
<totfact> 0.83096215E-04</totfact>
</mgrwt>
</event>
<event>
 6    1  0.1001928E-005  0.1245764E+04  0.7818608E-02  0.9073716E-01
         -2   -1    0    0    0  501 -0.00000000000E+00  0.00000000000E+00  0.38199540348E+03  0.38199540348E+03  0.00000000000E+00 0.  1.
          2   -1    0    0  501    0  0.00000000000E+00 -0.00000000000E+00 -0.10156722787E+04  0.10156722787E+04  0.00000000000E+00 0. -1.
         23    2    1    2    0    0  0.60872125064E+03  0.74247988329E+02 -0.41727641981E+03  0.74737276304E+03  0.91608469351E+02 0.  0.
         11    1    3    3    0    0  0.41130186702E+03  0.87221304815E+02 -0.25719163317E+03  0.49287353145E+03  0.00000000000E+00 0.  1.
        -11    1    3    3    0    0  0.19741938362E+03 -0.12973316485E+02 -0.16008478664E+03  0.25449923159E+03  0.00000000000E+00 0. -1.
         22    1    1    2    0    0 -0.60872125064E+03 -0.74247988329E+02 -0.21640045542E+03  0.65029491914E+03  0.00000000000E+00 0. -1.
<mgrwt>
<rscale>  0 0.12457643E+04</rscale>
<asrwt>0</asrwt>
<pdfrwt beam="1">  1        2 0.15625727E+00 0.12457643E+04</pdfrwt>
<pdfrwt beam="2">  1       -2 0.58768525E-01 0.12457643E+04</pdfrwt>
<totfact> 0.65524167E+01</totfact>
</mgrwt>
</event>
<event>
 6    1  0.1001928E-005  0.1603283E+04  0.7818608E-02  0.8818534E-01
          2   -1    0    0  501    0  0.00000000000E+00  0.00000000000E+00  0.18091655686E+04  0.18091655686E+04  0.00000000000E+00 0. -1.
         -2   -1    0    0    0  501 -0.00000000000E+00 -0.00000000000E+00 -0.35520750502E+03  0.35520750502E+03  0.00000000000E+00 0.  1.
         23    2    1    2    0    0 -0.42274194512E+03  0.19586349931E+03 -0.14722531918E+03  0.49678155058E+03  0.89684735953E+02 0.  0.
         13    1    3    3    0    0 -0.10019758477E+03  0.61300254601E+02  0.22355903765E+00  0.11746202445E+03  0.00000000000E+00 0. -1.
        -13    1    3    3    0    0 -0.32254436035E+03  0.13456324471E+03 -0.14744887821E+03  0.37931952613E+03  0.00000000000E+00 0.  1.
         22    1    1    2    0    0  0.42274194512E+03 -0.19586349931E+03  0.16011833827E+04  0.16675915230E+04  0.00000000000E+00 0. -1.
<mgrwt>
<rscale>  0 0.16032831E+04</rscale>
<asrwt>0</asrwt>
<pdfrwt beam="1">  1        2 0.27833316E+00 0.16032831E+04</pdfrwt>
<pdfrwt beam="2">  1       -2 0.54647310E-01 0.16032831E+04</pdfrwt>
<totfact> 0.25760083E+01</totfact>
</mgrwt>
</event>
<event>
 6    1  0.1001928E-005  0.3304651E+04  0.7818608E-02  0.8161713E-01
         -1   -1    0    0    0  501 -0.00000000000E+00  0.00000000000E+00  0.95818367206E+03  0.95818367206E+03  0.00000000000E+00 0.  1.
          1   -1    0    0  501    0  0.00000000000E+00 -0.00000000000E+00 -0.28493282937E+04  0.28493282937E+04  0.00000000000E+00 0. -1.
         23    2    1    2    0    0  0.64845722277E+03  0.13754576565E+03  0.79581010638E+03  0.10399965967E+04  0.94146632317E+02 0.  0.
         13    1    3    3    0    0  0.75767168297E+02  0.47894843323E+02  0.11619148538E+03  0.14674822344E+03  0.00000000000E+00 0. -1.
        -13    1    3    3    0    0  0.57269005447E+03  0.89650922332E+02  0.67961862100E+03  0.89324837329E+03  0.00000000000E+00 0.  1.
         22    1    1    2    0    0 -0.64845722277E+03 -0.13754576565E+03 -0.26869547280E+04  0.27675153690E+04  0.00000000000E+00 0. -1.
<mgrwt>
<rscale>  0 0.33046512E+04</rscale>
<asrwt>0</asrwt>
<pdfrwt beam="1">  1        1 0.43835820E+00 0.33046512E+04</pdfrwt>
<pdfrwt beam="2">  1       -1 0.14741287E+00 0.33046512E+04</pdfrwt>
<totfact> 0.23281278E-01</totfact>
</mgrwt>
</event>
<event>
 6    1  0.1001928E-005  0.4746288E+04  0.7818608E-02  0.7868883E-01
          2   -1    0    0  501    0  0.00000000000E+00  0.00000000000E+00  0.37174776088E+04  0.37174776088E+04  0.00000000000E+00 0. -1.
         -2   -1    0    0    0  501 -0.00000000000E+00 -0.00000000000E+00 -0.15149554062E+04  0.15149554062E+04  0.00000000000E+00 0.  1.
         23    2    1    2    0    0  0.20206021332E+04  0.45238989397E+03 -0.17457789442E+03  0.20799586744E+04  0.90890313444E+02 0.  0.
         11    1    3    3    0    0  0.10571350334E+04  0.19500992589E+03 -0.11085185752E+03  0.10806717745E+04  0.00000000000E+00 0. -1.
        -11    1    3    3    0    0  0.96346709979E+03  0.25737996808E+03 -0.63726036894E+02  0.99928689981E+03  0.00000000000E+00 0.  1.
         22    1    1    2    0    0 -0.20206021332E+04 -0.45238989397E+03  0.23771000970E+04  0.31524743406E+04  0.00000000000E+00 0. -1.
<mgrwt>
<rscale>  0 0.47462881E+04</rscale>
<asrwt>0</asrwt>
<pdfrwt beam="1">  1        2 0.57191963E+00 0.47462881E+04</pdfrwt>
<pdfrwt beam="2">  1       -2 0.23307006E+00 0.47462881E+04</pdfrwt>
<totfact> 0.34326837E-02</totfact>
</mgrwt>
</event>
<event>
 6    1  0.1001928E-005  0.2548156E+04  0.7818608E-02  0.8386028E-01
          2   -1    0    0  501    0  0.00000000000E+00  0.00000000000E+00  0.88180015438E+03  0.88180015438E+03  0.00000000000E+00 0. -1.
         -2   -1    0    0    0  501 -0.00000000000E+00 -0.00000000000E+00 -0.18408645186E+04  0.18408645186E+04  0.00000000000E+00 0.  1.
         23    2    1    2    0    0  0.56540110261E+03 -0.46137826031E+03  0.63237369445E+03  0.97188673147E+03  0.11008643636E+03 0.  0.
         13    1    3    3    0    0  0.31383960857E+03 -0.32457282047E+03  0.37670219101E+03  0.58800285408E+03  0.00000000000E+00 0. -1.
        -13    1    3    3    0    0  0.25156149403E+03 -0.13680543984E+03  0.25567150344E+03  0.38388387739E+03  0.00000000000E+00 0.  1.
         22    1    1    2    0    0 -0.56540110261E+03  0.46137826031E+03 -0.15914380586E+04  0.17507779415E+04  0.00000000000E+00 0.  1.
<mgrwt>
<rscale>  0 0.25481559E+04</rscale>
<asrwt>0</asrwt>
<pdfrwt beam="1">  1        2 0.13566156E+00 0.25481559E+04</pdfrwt>
<pdfrwt beam="2">  1       -2 0.28320993E+00 0.25481559E+04</pdfrwt>
<totfact> 0.10789842E+00</totfact>
</mgrwt>
</event>
<event>
 6    1  0.1001928E-005  0.2439725E+04  0.7818608E-02  0.8424779E-01
         -1   -1    0    0    0  501 -0.00000000000E+00  0.00000000000E+00  0.12261006614E+04  0.12261006614E+04  0.00000000000E+00 0.  1.
          1   -1    0    0  501    0  0.00000000000E+00 -0.00000000000E+00 -0.12136562734E+04  0.12136562734E+04  0.00000000000E+00 0. -1.
         23    2    1    2    0    0 -0.10030334949E+04 -0.67855186238E+03 -0.12561216477E+03  0.12209179653E+04  0.91397156180E+02 0.  0.
         13    1    3    3    0    0 -0.23983945405E+03 -0.20145815608E+03 -0.55943152422E+02  0.31817917700E+03  0.00000000000E+00 0.  1.
        -13    1    3    3    0    0 -0.76319404086E+03 -0.47709370629E+03 -0.69669012348E+02  0.90273878828E+03  0.00000000000E+00 0. -1.
         22    1    1    2    0    0  0.10030334949E+04  0.67855186238E+03  0.13805655282E+03  0.12188389695E+04  0.00000000000E+00 0. -1.
<mgrwt>
<rscale>  0 0.24397252E+04</rscale>
<asrwt>0</asrwt>
<pdfrwt beam="1">  1        1 0.18671635E+00 0.24397252E+04</pdfrwt>
<pdfrwt beam="2">  1       -1 0.18863087E+00 0.24397252E+04</pdfrwt>
<totfact> 0.16849203E+00</totfact>
</mgrwt>
</event>
<event>
 6    1  0.1001928E-005  0.2552603E+04  0.7818608E-02  0.8384482E-01
         -2   -1    0    0    0  501 -0.00000000000E+00  0.00000000000E+00  0.44985720566E+03  0.44985720566E+03  0.00000000000E+00 0.  1.
          2   -1    0    0  501    0  0.00000000000E+00 -0.00000000000E+00 -0.36210276180E+04  0.36210276180E+04  0.00000000000E+00 0. -1.
         23    2    1    2    0    0  0.94113576377E+03  0.84543093662E+03 -0.13505279001E+04  0.18538532155E+04  0.11115818032E+03 0.  0.
         11    1    3    3    0    0  0.55037902575E+03  0.56229812279E+03 -0.80927906084E+03  0.11287288643E+04  0.00000000000E+00 0. -1.
        -11    1    3    3    0    0  0.39075673802E+03  0.28313281383E+03 -0.54124883930E+03  0.72512435114E+03  0.00000000000E+00 0.  1.
         22    1    1    2    0    0 -0.94113576377E+03 -0.84543093662E+03 -0.18206425122E+04  0.22170316082E+04  0.00000000000E+00 0.  1.
<mgrwt>
<rscale>  0 0.25526029E+04</rscale>
<asrwt>0</asrwt>
<pdfrwt beam="1">  1        2 0.55708120E+00 0.25526029E+04</pdfrwt>
<pdfrwt beam="2">  1       -2 0.69208797E-01 0.25526029E+04</pdfrwt>
<totfact> 0.11297677E+00</totfact>
</mgrwt>
</event>
<event>
 6    1  0.1001928E-005  0.8440444E+03  0.7818608E-02  0.9498365E-01
         -1   -1    0    0    0  501 -0.00000000000E+00  0.00000000000E+00  0.77054268811E+03  0.77054268811E+03  0.00000000000E+00 0.  1.
          1   -1    0    0  501    0  0.00000000000E+00 -0.00000000000E+00 -0.23113936627E+03  0.23113936627E+03  0.00000000000E+00 0. -1.
         23    2    1    2    0    0  0.32636076115E+03 -0.25006612634E+03  0.18988633757E+03  0.46204649564E+03  0.91573626008E+02 0.  0.
         13    1    3    3    0    0  0.12037083376E+03 -0.13906163504E+03  0.11243346950E+03  0.21556567682E+03  0.00000000000E+00 0.  1.
        -13    1    3    3    0    0  0.20598992739E+03 -0.11100449130E+03  0.77452868072E+02  0.24648081882E+03  0.00000000000E+00 0. -1.
         22    1    1    2    0    0 -0.32636076115E+03  0.25006612634E+03  0.34951698427E+03  0.53963555874E+03  0.00000000000E+00 0. -1.
<mgrwt>
<rscale>  0 0.84404443E+03</rscale>
<asrwt>0</asrwt>
<pdfrwt beam="1">  1        1 0.35559903E-01 0.84404443E+03</pdfrwt>
<pdfrwt beam="2">  1       -1 0.11854503E+00 0.84404443E+03</pdfrwt>
<totfact> 0.79442677E+01</totfact>
</mgrwt>
</event>
<event>
 6    1  0.1001928E-005  0.3198444E+04  0.7818608E-02  0.8189228E-01
          1   -1    0    0  501    0  0.00000000000E+00  0.00000000000E+00  0.30285053244E+04  0.30285053244E+04  0.00000000000E+00 0. -1.
         -1   -1    0    0    0  501 -0.00000000000E+00 -0.00000000000E+00 -0.84447972732E+03  0.84447972732E+03  0.00000000000E+00 0.  1.
         23    2    1    2    0    0  0.11403416153E+04 -0.13920759012E+03 -0.25196238237E+03  0.11796979915E+04  0.91894266211E+02 0.  0.
         11    1    3    3    0    0  0.64621913143E+03 -0.93492554003E+02 -0.18723211285E+03  0.67926128078E+03  0.00000000000E+00 0. -1.
        -11    1    3    3    0    0  0.49412248390E+03 -0.45715036121E+02 -0.64730269515E+02  0.50043671070E+03  0.00000000000E+00 0.  1.
         22    1    1    2    0    0 -0.11403416153E+04  0.13920759012E+03  0.24359879794E+04  0.26932870602E+04  0.00000000000E+00 0. -1.
<mgrwt>
<rscale>  0 0.31984442E+04</rscale>
<asrwt>0</asrwt>
<pdfrwt beam="1">  1        1 0.46592389E+00 0.31984442E+04</pdfrwt>
<pdfrwt beam="2">  1       -1 0.12991996E+00 0.31984442E+04</pdfrwt>
<totfact> 0.24193176E-01</totfact>
</mgrwt>
</event>
<event>
 6    1  0.1001928E-005  0.4132739E+04  0.7818608E-02  0.7978291E-01
          2   -1    0    0  501    0  0.00000000000E+00  0.00000000000E+00  0.24267408987E+04  0.24267408987E+04  0.00000000000E+00 0. -1.
         -2   -1    0    0    0  501 -0.00000000000E+00 -0.00000000000E+00 -0.17595132910E+04  0.17595132910E+04  0.00000000000E+00 0.  1.
         23    2    1    2    0    0 -0.11454954246E+04  0.42280823948E+02 -0.14064471832E+04  0.18168503461E+04  0.94361353274E+02 0.  0.
         11    1    3    3    0    0 -0.52098918508E+03  0.52179007226E+02 -0.58860818374E+03  0.78778929526E+03  0.00000000000E+00 0.  1.
        -11    1    3    3    0    0 -0.62450623956E+03 -0.98981832783E+01 -0.81783899943E+03  0.10290610508E+04  0.00000000000E+00 0. -1.
         22    1    1    2    0    0  0.11454954246E+04 -0.42280823948E+02  0.20736747909E+04  0.23694038436E+04  0.00000000000E+00 0. -1.
<mgrwt>
<rscale>  0 0.41327390E+04</rscale>
<asrwt>0</asrwt>
<pdfrwt beam="1">  1        2 0.37334475E+00 0.41327390E+04</pdfrwt>
<pdfrwt beam="2">  1       -2 0.27069435E+00 0.41327390E+04</pdfrwt>
<totfact> 0.14375376E-01</totfact>
</mgrwt>
</event>
<event>
 6    1  0.1001928E-005  0.1418215E+04  0.7818608E-02  0.8940738E-01
          2   -1    0    0  501    0  0.00000000000E+00  0.00000000000E+00  0.11463758831E+04  0.11463758831E+04  0.00000000000E+00 0. -1.
         -2   -1    0    0    0  501 -0.00000000000E+00 -0.00000000000E+00 -0.43862867715E+03  0.43862867715E+03  0.00000000000E+00 0.  1.
         23    2    1    2    0    0 -0.94842158342E+01  0.48290844132E+03 -0.22039755075E+03  0.53870479324E+03  0.91308602200E+02 0.  0.
         11    1    3    3    0    0 -0.67406187741E+01  0.13353675880E+03 -0.10741191898E+03  0.17150749905E+03  0.00000000000E+00 0. -1.
        -11    1    3    3    0    0 -0.27435970601E+01  0.34937168252E+03 -0.11298563177E+03  0.36719729419E+03  0.00000000000E+00 0.  1.
         22    1    1    2    0    0  0.94842158342E+01 -0.48290844132E+03  0.92814475668E+03  0.10462997670E+04  0.00000000000E+00 0. -1.
<mgrwt>
<rscale>  0 0.14182148E+04</rscale>
<asrwt>0</asrwt>
<pdfrwt beam="1">  1        2 0.17636552E+00 0.14182148E+04</pdfrwt>
<pdfrwt beam="2">  1       -2 0.67481336E-01 0.14182148E+04</pdfrwt>
<totfact> 0.39939152E+01</totfact>
</mgrwt>
</event>
<event>
 6    1  0.1001928E-005  0.1827822E+04  0.7818608E-02  0.8691642E-01
         -2   -1    0    0    0  501 -0.00000000000E+00  0.00000000000E+00  0.96759371371E+03  0.96759371371E+03  0.00000000000E+00 0.  1.
          2   -1    0    0  501    0  0.00000000000E+00 -0.00000000000E+00 -0.86320690320E+03  0.86320690320E+03  0.00000000000E+00 0. -1.
         23    2    1    2    0    0  0.20063351749E+02  0.60138789732E+03 -0.63333982203E+03  0.87879718967E+03  0.95368911478E+02 0.  0.
         13    1    3    3    0    0  0.17299256758E+02  0.55869269006E+03 -0.61815439785E+03  0.83339765167E+03  0.00000000000E+00 0. -1.
        -13    1    3    3    0    0  0.27640949906E+01  0.42695207252E+02 -0.15185424177E+02  0.45399538003E+02  0.00000000000E+00 0.  1.
         22    1    1    2    0    0 -0.20063351749E+02 -0.60138789732E+03  0.73772663254E+03  0.95200342724E+03  0.00000000000E+00 0.  1.
<mgrwt>
<rscale>  0 0.18278223E+04</rscale>
<asrwt>0</asrwt>
<pdfrwt beam="1">  1        2 0.13280106E+00 0.18278223E+04</pdfrwt>
<pdfrwt beam="2">  1       -2 0.14886057E+00 0.18278223E+04</pdfrwt>
<totfact> 0.89466820E+00</totfact>
</mgrwt>
</event>
<event>
 6    1  0.1001928E-005  0.1147664E+04  0.7818608E-02  0.9159941E-01
          1   -1    0    0  501    0  0.00000000000E+00  0.00000000000E+00  0.63168261898E+03  0.63168261898E+03  0.00000000000E+00 0. -1.
         -1   -1    0    0    0  501 -0.00000000000E+00 -0.00000000000E+00 -0.52127986166E+03  0.52127986166E+03  0.00000000000E+00 0.  1.
         23    2    1    2    0    0  0.24796768818E+03 -0.14035187521E+03 -0.44067115213E+03  0.53258430812E+03  0.90930510217E+02 0.  0.
         13    1    3    3    0    0  0.16226996859E+03 -0.13458862788E+03 -0.28119123201E+03  0.35144580012E+03  0.00000000000E+00 0. -1.
        -13    1    3    3    0    0  0.85697719587E+02 -0.57632473264E+01 -0.15947992012E+03  0.18113850801E+03  0.00000000000E+00 0.  1.
         22    1    1    2    0    0 -0.24796768818E+03  0.14035187521E+03  0.55107390945E+03  0.62037817252E+03  0.00000000000E+00 0. -1.
<mgrwt>
<rscale>  0 0.11476645E+04</rscale>
<asrwt>0</asrwt>
<pdfrwt beam="1">  1        1 0.97181942E-01 0.11476645E+04</pdfrwt>
<pdfrwt beam="2">  1       -1 0.80196902E-01 0.11476645E+04</pdfrwt>
<totfact> 0.48996450E+01</totfact>
</mgrwt>
</event>
<event>
 6    1  0.1001928E-005  0.7161319E+03  0.7818608E-02  0.9690035E-01
         -1   -1    0    0    0  501 -0.00000000000E+00  0.00000000000E+00  0.13256867259E+03  0.13256867259E+03  0.00000000000E+00 0.  1.
          1   -1    0    0  501    0  0.00000000000E+00 -0.00000000000E+00 -0.96713074010E+03  0.96713074010E+03  0.00000000000E+00 0. -1.
         23    2    1    2    0    0  0.18377334837E+03 -0.28937418022E+03 -0.54866403053E+03  0.65332765361E+03  0.91075489715E+02 0.  0.
         11    1    3    3    0    0  0.94949250419E+02 -0.20897172152E+03 -0.30416880444E+03  0.38105537937E+03  0.00000000000E+00 0.  1.
        -11    1    3    3    0    0  0.88824097951E+02 -0.80402458703E+02 -0.24449522608E+03  0.27227227424E+03  0.00000000000E+00 0. -1.
         22    1    1    2    0    0 -0.18377334837E+03  0.28937418022E+03 -0.28589803698E+03  0.44637175908E+03  0.00000000000E+00 0.  1.
<mgrwt>
<rscale>  0 0.71613194E+03</rscale>
<asrwt>0</asrwt>
<pdfrwt beam="1">  1        1 0.14878935E+00 0.71613194E+03</pdfrwt>
<pdfrwt beam="2">  1       -1 0.20395180E-01 0.71613194E+03</pdfrwt>
<totfact> 0.32165875E+02</totfact>
</mgrwt>
</event>
<event>
 6    1  0.1001928E-005  0.1103541E+04  0.7818608E-02  0.9201748E-01
         -2   -1    0    0    0  501 -0.00000000000E+00  0.00000000000E+00  0.52222282787E+03  0.52222282787E+03  0.00000000000E+00 0.  1.
          2   -1    0    0  501    0  0.00000000000E+00 -0.00000000000E+00 -0.58298954827E+03  0.58298954827E+03  0.00000000000E+00 0. -1.
         23    2    1    2    0    0 -0.64398730909E+01  0.14282806652E+03  0.49914174557E+03  0.52733797905E+03  0.92203760338E+02 0.  0.
         11    1    3    3    0    0  0.17929245800E+02  0.12035739380E+03  0.27448407517E+03  0.30024801019E+03  0.00000000000E+00 0. -1.
        -11    1    3    3    0    0 -0.24369118891E+02  0.22470672723E+02  0.22465767040E+03  0.22708996886E+03  0.00000000000E+00 0.  1.
         22    1    1    2    0    0  0.64398730909E+01 -0.14282806652E+03 -0.55990846597E+03  0.57787439709E+03  0.00000000000E+00 0. -1.
<mgrwt>
<rscale>  0 0.11035406E+04</rscale>
<asrwt>0</asrwt>
<pdfrwt beam="1">  1        2 0.89690699E-01 0.11035406E+04</pdfrwt>
<pdfrwt beam="2">  1       -2 0.80341974E-01 0.11035406E+04</pdfrwt>
<totfact> 0.69828585E+01</totfact>
</mgrwt>
</event>
<event>
 6    1  0.1001928E-005  0.3839327E+04  0.7818608E-02  0.8037768E-01
         -2   -1    0    0    0  501 -0.00000000000E+00  0.00000000000E+00  0.21013230367E+04  0.21013230367E+04  0.00000000000E+00 0.  1.
          2   -1    0    0  501    0  0.00000000000E+00 -0.00000000000E+00 -0.17537087654E+04  0.17537087654E+04  0.00000000000E+00 0. -1.
         23    2    1    2    0    0 -0.18680700140E+04  0.40775654653E+03  0.33351887014E+03  0.19429257226E+04  0.88173399377E+02 0.  0.
         13    1    3    3    0    0 -0.15110960775E+04  0.29512660054E+03  0.25968202951E+03  0.15613922704E+04  0.00000000000E+00 0. -1.
        -13    1    3    3    0    0 -0.35697393657E+03  0.11262994599E+03  0.73836840626E+02  0.38153345222E+03  0.00000000000E+00 0.  1.
         22    1    1    2    0    0  0.18680700140E+04 -0.40775654653E+03  0.14095401143E+02  0.19121060794E+04  0.00000000000E+00 0. -1.
<mgrwt>
<rscale>  0 0.38393274E+04</rscale>
<asrwt>0</asrwt>
<pdfrwt beam="1">  1        2 0.26980135E+00 0.38393274E+04</pdfrwt>
<pdfrwt beam="2">  1       -2 0.32328047E+00 0.38393274E+04</pdfrwt>
<totfact> 0.16717754E-01</totfact>
</mgrwt>
</event>
<event>
 6    1  0.1001928E-005  0.2640897E+04  0.7818608E-02  0.8354441E-01
          2   -1    0    0  501    0  0.00000000000E+00  0.00000000000E+00  0.17889455239E+04  0.17889455239E+04  0.00000000000E+00 0. -1.
         -2   -1    0    0    0  501 -0.00000000000E+00 -0.00000000000E+00 -0.97464370488E+03  0.97464370488E+03  0.00000000000E+00 0.  1.
         23    2    1    2    0    0  0.99604215959E+03 -0.82479054098E+03  0.67840501936E+03  0.14632633618E+04  0.92341082685E+02 0.  0.
         11    1    3    3    0    0  0.61950715600E+03 -0.45439354749E+03  0.40720305499E+03  0.86952684853E+03  0.00000000000E+00 0. -1.
        -11    1    3    3    0    0  0.37653500360E+03 -0.37039699348E+03  0.27120196438E+03  0.59373651328E+03  0.00000000000E+00 0.  1.
         22    1    1    2    0    0 -0.99604215959E+03  0.82479054098E+03  0.13589679966E+03  0.13003258670E+04  0.00000000000E+00 0.  1.
<mgrwt>
<rscale>  0 0.26408972E+04</rscale>
<asrwt>0</asrwt>
<pdfrwt beam="1">  1        2 0.27522239E+00 0.26408972E+04</pdfrwt>
<pdfrwt beam="2">  1       -2 0.14994519E+00 0.26408972E+04</pdfrwt>
<totfact> 0.23141975E+00</totfact>
</mgrwt>
</event>
<event>
 6    1  0.1001928E-005  0.2831866E+04  0.7818608E-02  0.8293443E-01
          2   -1    0    0  501    0  0.00000000000E+00  0.00000000000E+00  0.23957753604E+04  0.23957753604E+04  0.00000000000E+00 0. -1.
         -2   -1    0    0    0  501 -0.00000000000E+00 -0.00000000000E+00 -0.83683423867E+03  0.83683423867E+03  0.00000000000E+00 0.  1.
         23    2    1    2    0    0  0.31996900767E+03  0.13737878247E+04  0.89984059124E+03  0.16756617314E+04  0.91956485982E+02 0.  0.
         13    1    3    3    0    0  0.15920371152E+03  0.87830989753E+03  0.57285932450E+03  0.10606327845E+04  0.00000000000E+00 0.  1.
        -13    1    3    3    0    0  0.16076529615E+03  0.49547792720E+03  0.32698126675E+03  0.61502894695E+03  0.00000000000E+00 0. -1.
         22    1    1    2    0    0 -0.31996900767E+03 -0.13737878247E+04  0.65910053050E+03  0.15569478676E+04  0.00000000000E+00 0.  1.
<mgrwt>
<rscale>  0 0.28318664E+04</rscale>
<asrwt>0</asrwt>
<pdfrwt beam="1">  1        2 0.36858082E+00 0.28318664E+04</pdfrwt>
<pdfrwt beam="2">  1       -2 0.12874373E+00 0.28318664E+04</pdfrwt>
<totfact> 0.15440980E+00</totfact>
</mgrwt>
</event>
<event>
 6    1  0.1001928E-005  0.3085291E+04  0.7818608E-02  0.8219786E-01
         -2   -1    0    0    0  501 -0.00000000000E+00  0.00000000000E+00  0.86520317358E+03  0.86520317358E+03  0.00000000000E+00 0.  1.
          2   -1    0    0  501    0  0.00000000000E+00 -0.00000000000E+00 -0.27505152696E+04  0.27505152696E+04  0.00000000000E+00 0. -1.
         23    2    1    2    0    0  0.12271501192E+03  0.11752590380E+04  0.21622799791E+03  0.12047510964E+04  0.91530741510E+02 0.  0.
         11    1    3    3    0    0  0.16805769103E+02  0.57901348150E+03  0.91036614024E+02  0.58636738545E+03  0.00000000000E+00 0. -1.
        -11    1    3    3    0    0  0.10590924281E+03  0.59624555654E+03  0.12519138388E+03  0.61838371098E+03  0.00000000000E+00 0.  1.
         22    1    1    2    0    0 -0.12271501192E+03 -0.11752590380E+04 -0.21015400939E+04  0.24109673467E+04  0.00000000000E+00 0. -1.
<mgrwt>
<rscale>  0 0.30852906E+04</rscale>
<asrwt>0</asrwt>
<pdfrwt beam="1">  1        2 0.42315619E+00 0.30852906E+04</pdfrwt>
<pdfrwt beam="2">  1       -2 0.13310818E+00 0.30852906E+04</pdfrwt>
<totfact> 0.86076385E-01</totfact>
</mgrwt>
</event>
<event>
 6    1  0.1001928E-005  0.2596601E+04  0.7818608E-02  0.8369357E-01
         -2   -1    0    0    0  501 -0.00000000000E+00  0.00000000000E+00  0.75607409627E+03  0.75607409627E+03  0.00000000000E+00 0.  1.
          2   -1    0    0  501    0  0.00000000000E+00 -0.00000000000E+00 -0.22293896387E+04  0.22293896387E+04  0.00000000000E+00 0. -1.
         23    2    1    2    0    0  0.47113605076E+03  0.65111409097E+03  0.43186266904E+03  0.91770582960E+03  0.98792140300E+02 0.  0.
         11    1    3    3    0    0  0.43694692290E+03  0.54738151523E+03  0.37908826230E+03  0.79640256608E+03  0.00000000000E+00 0.  1.
        -11    1    3    3    0    0  0.34189127861E+02  0.10373257574E+03  0.52774406743E+02  0.12130326352E+03  0.00000000000E+00 0. -1.
         22    1    1    2    0    0 -0.47113605076E+03 -0.65111409097E+03 -0.19051782114E+04  0.20677579053E+04  0.00000000000E+00 0. -1.
<mgrwt>
<rscale>  0 0.25966007E+04</rscale>
<asrwt>0</asrwt>
<pdfrwt beam="1">  1        2 0.34298301E+00 0.25966007E+04</pdfrwt>
<pdfrwt beam="2">  1       -2 0.11631909E+00 0.25966007E+04</pdfrwt>
<totfact> 0.25216348E+00</totfact>
</mgrwt>
</event>
<event>
 6    1  0.1001928E-005  0.2737240E+03  0.7818608E-02  0.1099167E+00
         -2   -1    0    0    0  501 -0.00000000000E+00  0.00000000000E+00  0.67052687629E+03  0.67052687629E+03  0.00000000000E+00 0.  1.
          2   -1    0    0  501    0  0.00000000000E+00 -0.00000000000E+00 -0.27935048737E+02  0.27935048737E+02  0.00000000000E+00 0. -1.
         23    2    1    2    0    0  0.34009591038E+02 -0.23971224112E+02  0.64862034543E+03  0.65641891258E+03  0.91903016359E+02 0.  0.
         11    1    3    3    0    0  0.28932189218E+02 -0.49690647259E+02  0.23364580031E+03  0.24061710663E+03  0.00000000000E+00 0. -1.
        -11    1    3    3    0    0  0.50774018206E+01  0.25719423147E+02  0.41497454511E+03  0.41580180595E+03  0.00000000000E+00 0.  1.
         22    1    1    2    0    0 -0.34009591038E+02  0.23971224112E+02 -0.60285178777E+01  0.42043012449E+02  0.00000000000E+00 0. -1.
<mgrwt>
<rscale>  0 0.27372396E+03</rscale>
<asrwt>0</asrwt>
<pdfrwt beam="1">  1        2 0.42977003E-02 0.27372396E+03</pdfrwt>
<pdfrwt beam="2">  1       -2 0.10315797E+00 0.27372396E+03</pdfrwt>
<totfact> 0.15329244E+03</totfact>
</mgrwt>
</event>
<event>
 6    1  0.1001928E-005  0.2175133E+04  0.7818608E-02  0.8528850E-01
          1   -1    0    0  501    0  0.00000000000E+00  0.00000000000E+00  0.14438828226E+04  0.14438828226E+04  0.00000000000E+00 0. -1.
         -1   -1    0    0    0  501 -0.00000000000E+00 -0.00000000000E+00 -0.81918071013E+03  0.81918071013E+03  0.00000000000E+00 0.  1.
         23    2    1    2    0    0 -0.10213184712E+04  0.18568244253E+03  0.64380930443E+03  0.12248273005E+04  0.90233622944E+02 0.  0.
         13    1    3    3    0    0 -0.37286673468E+03  0.60215490917E+02  0.18457561601E+03  0.42038513913E+03  0.00000000000E+00 0.  1.
        -13    1    3    3    0    0 -0.64845173648E+03  0.12546695161E+03  0.45923368842E+03  0.80444216142E+03  0.00000000000E+00 0. -1.
         22    1    1    2    0    0  0.10213184712E+04 -0.18568244253E+03 -0.19107191975E+02  0.10382362322E+04  0.00000000000E+00 0.  1.
<mgrwt>
<rscale>  0 0.21751331E+04</rscale>
<asrwt>0</asrwt>
<pdfrwt beam="1">  1        1 0.22213582E+00 0.21751331E+04</pdfrwt>
<pdfrwt beam="2">  1       -1 0.12602780E+00 0.21751331E+04</pdfrwt>
<totfact> 0.35859033E+00</totfact>
</mgrwt>
</event>
<event>
 6    1  0.1001928E-005  0.2571092E+04  0.7818608E-02  0.8378087E-01
         -2   -1    0    0    0  501 -0.00000000000E+00  0.00000000000E+00  0.68071176400E+03  0.68071176400E+03  0.00000000000E+00 0.  1.
          2   -1    0    0  501    0  0.00000000000E+00 -0.00000000000E+00 -0.24277944537E+04  0.24277944537E+04  0.00000000000E+00 0. -1.
         23    2    1    2    0    0  0.80943733649E+03  0.71374399184E+03 -0.33060508881E+02  0.10830454494E+04  0.85294552231E+02 0.  0.
         11    1    3    3    0    0  0.42353606564E+03  0.32968187324E+03  0.10808102291E+02  0.53683307602E+03  0.00000000000E+00 0. -1.
        -11    1    3    3    0    0  0.38590127085E+03  0.38406211860E+03 -0.43868611172E+02  0.54621237338E+03  0.00000000000E+00 0.  1.
         22    1    1    2    0    0 -0.80943733649E+03 -0.71374399184E+03 -0.17140221808E+04  0.20254607683E+04  0.00000000000E+00 0. -1.
<mgrwt>
<rscale>  0 0.25710918E+04</rscale>
<asrwt>0</asrwt>
<pdfrwt beam="1">  1        2 0.37350684E+00 0.25710918E+04</pdfrwt>
<pdfrwt beam="2">  1       -2 0.10472489E+00 0.25710918E+04</pdfrwt>
<totfact> 0.25129220E+00</totfact>
</mgrwt>
</event>
<event>
 6    1  0.1001928E-005  0.1890139E+04  0.7818608E-02  0.8659780E-01
          1   -1    0    0  501    0  0.00000000000E+00  0.00000000000E+00  0.18149822098E+04  0.18149822098E+04  0.00000000000E+00 0. -1.
         -1   -1    0    0    0  501 -0.00000000000E+00 -0.00000000000E+00 -0.49210218773E+03  0.49210218773E+03  0.00000000000E+00 0.  1.
         23    2    1    2    0    0  0.34786814171E+03  0.87357636044E+03  0.74866199357E+03  0.12053247841E+04  0.90361235975E+02 0.  0.
         13    1    3    3    0    0  0.19344176494E+03  0.41251618859E+03  0.40832144918E+03  0.61181347495E+03  0.00000000000E+00 0.  1.
        -13    1    3    3    0    0  0.15442637677E+03  0.46106017185E+03  0.34034054439E+03  0.59351130913E+03  0.00000000000E+00 0. -1.
         22    1    1    2    0    0 -0.34786814171E+03 -0.87357636044E+03  0.57421802846E+03  0.11017596134E+04  0.00000000000E+00 0. -1.
<mgrwt>
<rscale>  0 0.18901394E+04</rscale>
<asrwt>0</asrwt>
<pdfrwt beam="1">  1        1 0.27922803E+00 0.18901394E+04</pdfrwt>
<pdfrwt beam="2">  1       -1 0.75708030E-01 0.18901394E+04</pdfrwt>
<totfact> 0.65320383E+00</totfact>
</mgrwt>
</event>
<event>
 6    1  0.1001928E-005  0.5634185E+04  0.7818608E-02  0.7737490E-01
         -2   -1    0    0    0  501 -0.00000000000E+00  0.00000000000E+00  0.39728171199E+04  0.39728171199E+04  0.00000000000E+00 0.  1.
          2   -1    0    0  501    0  0.00000000000E+00 -0.00000000000E+00 -0.19975775391E+04  0.19975775391E+04  0.00000000000E+00 0. -1.
         23    2    1    2    0    0  0.61583971216E+03  0.18710208404E+04 -0.11452771287E+04  0.22801911321E+04  0.87374830783E+02 0.  0.
         13    1    3    3    0    0  0.35802871954E+03  0.10779784275E+04 -0.71005878706E+03  0.13395542301E+04  0.00000000000E+00 0. -1.
        -13    1    3    3    0    0  0.25781099262E+03  0.79304241290E+03 -0.43521834162E+03  0.94063690203E+03  0.00000000000E+00 0.  1.
         22    1    1    2    0    0 -0.61583971216E+03 -0.18710208404E+04  0.31205167094E+04  0.36902035269E+04  0.00000000000E+00 0.  1.
<mgrwt>
<rscale>  0 0.56341850E+04</rscale>
<asrwt>0</asrwt>
<pdfrwt beam="1">  1        2 0.30731962E+00 0.56341850E+04</pdfrwt>
<pdfrwt beam="2">  1       -2 0.61120263E+00 0.56341850E+04</pdfrwt>
<totfact> 0.21714820E-03</totfact>
</mgrwt>
</event>
<event>
 6    1  0.1001928E-005  0.2102392E+04  0.7818608E-02  0.8560190E-01
          1   -1    0    0  501    0  0.00000000000E+00  0.00000000000E+00  0.68228615647E+03  0.68228615647E+03  0.00000000000E+00 0. -1.
         -1   -1    0    0    0  501 -0.00000000000E+00 -0.00000000000E+00 -0.16195739174E+04  0.16195739174E+04  0.00000000000E+00 0.  1.
         23    2    1    2    0    0  0.20355927599E+03  0.45775302986E+03  0.53998632956E+03  0.74195207863E+03  0.89069835992E+02 0.  0.
         11    1    3    3    0    0  0.76171207781E+02  0.27475114990E+03  0.28305089521E+03  0.40175621532E+03  0.00000000000E+00 0. -1.
        -11    1    3    3    0    0  0.12738806821E+03  0.18300187996E+03  0.25693543435E+03  0.34019586332E+03  0.00000000000E+00 0.  1.
         22    1    1    2    0    0 -0.20355927599E+03 -0.45775302986E+03 -0.14772740905E+04  0.15599079953E+04  0.00000000000E+00 0.  1.
<mgrwt>
<rscale>  0 0.21023918E+04</rscale>
<asrwt>0</asrwt>
<pdfrwt beam="1">  1        1 0.10496710E+00 0.21023918E+04</pdfrwt>
<pdfrwt beam="2">  1       -1 0.24916522E+00 0.21023918E+04</pdfrwt>
<totfact> 0.18386321E+00</totfact>
</mgrwt>
</event>
<event>
 6    1  0.1001928E-005  0.3138515E+04  0.7818608E-02  0.8205247E-01
         -1   -1    0    0    0  501 -0.00000000000E+00  0.00000000000E+00  0.19694387961E+04  0.19694387961E+04  0.00000000000E+00 0.  1.
          1   -1    0    0  501    0  0.00000000000E+00 -0.00000000000E+00 -0.12503913108E+04  0.12503913108E+04  0.00000000000E+00 0. -1.
         23    2    1    2    0    0  0.13194254264E+04 -0.28635307997E+03 -0.45808094432E+03  0.14285978824E+04  0.90400307802E+02 0.  0.
         13    1    3    3    0    0  0.29284116838E+03 -0.38659300406E+02 -0.13039569087E+03  0.32288314853E+03  0.00000000000E+00 0. -1.
        -13    1    3    3    0    0  0.10265842581E+04 -0.24769377957E+03 -0.32768525345E+03  0.11057147338E+04  0.00000000000E+00 0.  1.
         22    1    1    2    0    0 -0.13194254264E+04  0.28635307997E+03  0.11771284296E+04  0.17912322245E+04  0.00000000000E+00 0.  1.
<mgrwt>
<rscale>  0 0.31385150E+04</rscale>
<asrwt>0</asrwt>
<pdfrwt beam="1">  1        1 0.19236789E+00 0.31385150E+04</pdfrwt>
<pdfrwt beam="2">  1       -1 0.30299058E+00 0.31385150E+04</pdfrwt>
<totfact> 0.26081200E-01</totfact>
</mgrwt>
</event>
<event>
 6    1  0.1001928E-005  0.2919884E+04  0.7818608E-02  0.8266986E-01
         -1   -1    0    0    0  501 -0.00000000000E+00  0.00000000000E+00  0.14924622446E+04  0.14924622446E+04  0.00000000000E+00 0.  1.
          1   -1    0    0  501    0  0.00000000000E+00 -0.00000000000E+00 -0.14281304551E+04  0.14281304551E+04  0.00000000000E+00 0. -1.
         23    2    1    2    0    0  0.14569968672E+03 -0.80071604731E+03  0.12426818354E+04  0.14885021237E+04  0.94899109460E+02 0.  0.
         13    1    3    3    0    0  0.80697171814E+02 -0.28277846575E+03  0.51338657272E+03  0.59164302352E+03  0.00000000000E+00 0.  1.
        -13    1    3    3    0    0  0.65002514906E+02 -0.51793758157E+03  0.72929526271E+03  0.89685910017E+03  0.00000000000E+00 0. -1.
         22    1    1    2    0    0 -0.14569968672E+03  0.80071604731E+03 -0.11783500460E+04  0.14320905760E+04  0.00000000000E+00 0. -1.
<mgrwt>
<rscale>  0 0.29198841E+04</rscale>
<asrwt>0</asrwt>
<pdfrwt beam="1">  1        1 0.21971238E+00 0.29198841E+04</pdfrwt>
<pdfrwt beam="2">  1       -1 0.22960958E+00 0.29198841E+04</pdfrwt>
<totfact> 0.59738054E-01</totfact>
</mgrwt>
</event>
<event>
 6    1  0.1001928E-005  0.2349270E+04  0.7818608E-02  0.8458744E-01
         -2   -1    0    0    0  501 -0.00000000000E+00  0.00000000000E+00  0.16944619581E+04  0.16944619581E+04  0.00000000000E+00 0.  1.
          2   -1    0    0  501    0  0.00000000000E+00 -0.00000000000E+00 -0.81428048490E+03  0.81428048490E+03  0.00000000000E+00 0. -1.
         23    2    1    2    0    0 -0.74361476028E+03 -0.11383215410E+02 -0.52773203239E+03  0.91647584205E+03  0.91292835116E+02 0.  0.
         11    1    3    3    0    0 -0.52696107414E+03 -0.49091655953E+02 -0.36498693908E+03  0.64289457148E+03  0.00000000000E+00 0. -1.
        -11    1    3    3    0    0 -0.21665368614E+03  0.37708440544E+02 -0.16274509332E+03  0.27358127057E+03  0.00000000000E+00 0.  1.
         22    1    1    2    0    0  0.74361476028E+03  0.11383215410E+02  0.14079135056E+04  0.15922666010E+04  0.00000000000E+00 0.  1.
<mgrwt>
<rscale>  0 0.23492699E+04</rscale>
<asrwt>0</asrwt>
<pdfrwt beam="1">  1        2 0.12527392E+00 0.23492699E+04</pdfrwt>
<pdfrwt beam="2">  1       -2 0.26068645E+00 0.23492699E+04</pdfrwt>
<totfact> 0.16783040E+00</totfact>
</mgrwt>
</event>
<event>
 6    1  0.1001928E-005  0.6242718E+04  0.7818608E-02  0.7661015E-01
         -2   -1    0    0    0  501 -0.00000000000E+00  0.00000000000E+00  0.37222604400E+04  0.37222604400E+04  0.00000000000E+00 0.  1.
          2   -1    0    0  501    0  0.00000000000E+00 -0.00000000000E+00 -0.26174637897E+04  0.26174637897E+04  0.00000000000E+00 0. -1.
         23    2    1    2    0    0 -0.15789567000E+04 -0.26195838993E+04 -0.76526873551E+02  0.30608754479E+04  0.88193419026E+02 0.  0.
         13    1    3    3    0    0 -0.72164456960E+03 -0.11406022492E+04 -0.11606219755E+01  0.13497206091E+04  0.00000000000E+00 0. -1.
        -13    1    3    3    0    0 -0.85731213035E+03 -0.14789816502E+04 -0.75366251576E+02  0.17111548388E+04  0.00000000000E+00 0.  1.
         22    1    1    2    0    0  0.15789567000E+04  0.26195838993E+04  0.11813235238E+04  0.32788487818E+04  0.00000000000E+00 0. -1.
<mgrwt>
<rscale>  0 0.62427180E+04</rscale>
<asrwt>0</asrwt>
<pdfrwt beam="1">  1        2 0.40268674E+00 0.62427180E+04</pdfrwt>
<pdfrwt beam="2">  1       -2 0.57265545E+00 0.62427180E+04</pdfrwt>
<totfact> 0.13302216E-03</totfact>
</mgrwt>
</event>
<event>
 6    1  0.1001928E-005  0.2933225E+04  0.7818608E-02  0.8263060E-01
          1   -1    0    0  501    0  0.00000000000E+00  0.00000000000E+00  0.39898204367E+04  0.39898204367E+04  0.00000000000E+00 0. -1.
         -1   -1    0    0    0  501 -0.00000000000E+00 -0.00000000000E+00 -0.53911004315E+03  0.53911004315E+03  0.00000000000E+00 0.  1.
         23    2    1    2    0    0 -0.12445790588E+04  0.25605605048E+03  0.28531559140E+04  0.31247890729E+04  0.96261861206E+02 0.  0.
         11    1    3    3    0    0 -0.44776085891E+03  0.13412003953E+03  0.11002448000E+04  0.11954148200E+04  0.00000000000E+00 0.  1.
        -11    1    3    3    0    0 -0.79681819991E+03  0.12193601095E+03  0.17529111140E+04  0.19293742530E+04  0.00000000000E+00 0. -1.
         22    1    1    2    0    0  0.12445790588E+04 -0.25605605048E+03  0.59755447951E+03  0.14041414069E+04  0.00000000000E+00 0.  1.
<mgrwt>
<rscale>  0 0.29332250E+04</rscale>
<asrwt>0</asrwt>
<pdfrwt beam="1">  1        1 0.61381851E+00 0.29332250E+04</pdfrwt>
<pdfrwt beam="2">  1       -1 0.82940009E-01 0.29332250E+04</pdfrwt>
<totfact> 0.12099391E-01</totfact>
</mgrwt>
</event>
<event>
 6    1  0.1001928E-005  0.3363346E+04  0.7818608E-02  0.8146962E-01
          2   -1    0    0  501    0  0.00000000000E+00  0.00000000000E+00  0.23068934216E+04  0.23068934216E+04  0.00000000000E+00 0. -1.
         -2   -1    0    0    0  501 -0.00000000000E+00 -0.00000000000E+00 -0.12259012845E+04  0.12259012845E+04  0.00000000000E+00 0.  1.
         23    2    1    2    0    0  0.13589931512E+04 -0.94262192865E+03  0.85327460676E+03  0.18632876653E+04  0.91459738982E+02 0.  0.
         11    1    3    3    0    0  0.23361878344E+03 -0.20326279010E+03  0.17206286771E+03  0.35425856131E+03  0.00000000000E+00 0.  1.
        -11    1    3    3    0    0  0.11253743678E+04 -0.73935913855E+03  0.68121173905E+03  0.15090291040E+04  0.00000000000E+00 0. -1.
         22    1    1    2    0    0 -0.13589931512E+04  0.94262192865E+03  0.22771753041E+03  0.16695070407E+04  0.00000000000E+00 0. -1.
<mgrwt>
<rscale>  0 0.33633457E+04</rscale>
<asrwt>0</asrwt>
<pdfrwt beam="1">  1        2 0.35490668E+00 0.33633457E+04</pdfrwt>
<pdfrwt beam="2">  1       -2 0.18860020E+00 0.33633457E+04</pdfrwt>
<totfact> 0.59132392E-01</totfact>
</mgrwt>
</event>
<event>
 6    1  0.1001928E-005  0.3137887E+04  0.7818608E-02  0.8205416E-01
         -2   -1    0    0    0  501 -0.00000000000E+00  0.00000000000E+00  0.81382554611E+03  0.81382554611E+03  0.00000000000E+00 0. -1.
          2   -1    0    0  501    0  0.00000000000E+00 -0.00000000000E+00 -0.30247076550E+04  0.30247076550E+04  0.00000000000E+00 0.  1.
         23    2    1    2    0    0  0.90729085441E+03 -0.12349116715E+04 -0.70201934060E+03  0.16879866695E+04  0.91018190630E+02 0.  0.
         13    1    3    3    0    0  0.74061729330E+03 -0.99692919588E+03 -0.52958460162E+03  0.13501265300E+04  0.00000000000E+00 0. -1.
        -13    1    3    3    0    0  0.16667356110E+03 -0.23798247563E+03 -0.17243473899E+03  0.33786013954E+03  0.00000000000E+00 0.  1.
         22    1    1    2    0    0 -0.90729085441E+03  0.12349116715E+04 -0.15088627683E+04  0.21505465315E+04  0.00000000000E+00 0.  1.
<mgrwt>
<rscale>  0 0.31378874E+04</rscale>
<asrwt>0</asrwt>
<pdfrwt beam="1">  1        2 0.46533963E+00 0.31378874E+04</pdfrwt>
<pdfrwt beam="2">  1       -2 0.12520393E+00 0.31378874E+04</pdfrwt>
<totfact> 0.67849683E-01</totfact>
</mgrwt>
</event>
<event>
 6    1  0.1001928E-005  0.3089104E+04  0.7818608E-02  0.8218734E-01
         -2   -1    0    0    0  501 -0.00000000000E+00  0.00000000000E+00  0.84617076888E+03  0.84617076888E+03  0.00000000000E+00 0.  1.
          2   -1    0    0  501    0  0.00000000000E+00 -0.00000000000E+00 -0.28193381813E+04  0.28193381813E+04  0.00000000000E+00 0. -1.
         23    2    1    2    0    0  0.94480666836E+03 -0.36441070002E+03 -0.23692210248E+04  0.25781666569E+04  0.90995865201E+02 0.  0.
         13    1    3    3    0    0  0.10861811827E+03 -0.58700435181E+02 -0.22937103021E+03  0.26048935911E+03  0.00000000000E+00 0. -1.
        -13    1    3    3    0    0  0.83618855009E+03 -0.30571026484E+03 -0.21398499946E+04  0.23176772978E+04  0.00000000000E+00 0.  1.
         22    1    1    2    0    0 -0.94480666836E+03  0.36441070002E+03  0.39605361238E+03  0.10873422933E+04  0.00000000000E+00 0.  1.
<mgrwt>
<rscale>  0 0.30891044E+04</rscale>
<asrwt>0</asrwt>
<pdfrwt beam="1">  1        2 0.43374433E+00 0.30891044E+04</pdfrwt>
<pdfrwt beam="2">  1       -2 0.13018012E+00 0.30891044E+04</pdfrwt>
<totfact> 0.82736085E-01</totfact>
</mgrwt>
</event>
<event>
 6    1  0.1001928E-005  0.1835549E+04  0.7818608E-02  0.8687620E-01
         -1   -1    0    0    0  501 -0.00000000000E+00  0.00000000000E+00  0.33945616050E+03  0.33945616050E+03  0.00000000000E+00 0.  1.
          1   -1    0    0  501    0  0.00000000000E+00 -0.00000000000E+00 -0.24813523984E+04  0.24813523984E+04  0.00000000000E+00 0. -1.
         23    2    1    2    0    0 -0.62449504210E+03 -0.59003431204E+03 -0.58640583979E+03  0.10438209603E+04  0.86924341807E+02 0.  0.
         11    1    3    3    0    0 -0.19153244043E+03 -0.19205029278E+03 -0.23403284154E+03  0.35824483474E+03  0.00000000000E+00 0.  1.
        -11    1    3    3    0    0 -0.43296260166E+03 -0.39798401926E+03 -0.35237299825E+03  0.68557612555E+03  0.00000000000E+00 0. -1.
         22    1    1    2    0    0  0.62449504210E+03  0.59003431204E+03 -0.15554903981E+04  0.17769875986E+04  0.00000000000E+00 0. -1.
<mgrwt>
<rscale>  0 0.18355494E+04</rscale>
<asrwt>0</asrwt>
<pdfrwt beam="1">  1        1 0.38174652E+00 0.18355494E+04</pdfrwt>
<pdfrwt beam="2">  1       -1 0.52224026E-01 0.18355494E+04</pdfrwt>
<totfact> 0.48532404E+00</totfact>
</mgrwt>
</event>
<event>
 6    1  0.1001928E-005  0.1091229E+04  0.7818608E-02  0.9213783E-01
         -2   -1    0    0    0  501 -0.00000000000E+00  0.00000000000E+00  0.35188548322E+03  0.35188548322E+03  0.00000000000E+00 0.  1.
          2   -1    0    0  501    0  0.00000000000E+00 -0.00000000000E+00 -0.84600086531E+03  0.84600086531E+03  0.00000000000E+00 0. -1.
         23    2    1    2    0    0  0.23689598133E+03  0.47278381953E+03 -0.11411400322E+03  0.54669874582E+03  0.78824279135E+02 0.  0.
         13    1    3    3    0    0  0.65230442375E+02  0.21150333033E+03 -0.33606927764E+02  0.22387071034E+03  0.00000000000E+00 0.  1.
        -13    1    3    3    0    0  0.17166553895E+03  0.26128048919E+03 -0.80507075455E+02  0.32282803548E+03  0.00000000000E+00 0. -1.
         22    1    1    2    0    0 -0.23689598133E+03 -0.47278381953E+03 -0.38000137887E+03  0.65118760271E+03  0.00000000000E+00 0.  1.
<mgrwt>
<rscale>  0 0.10912294E+04</rscale>
<asrwt>0</asrwt>
<pdfrwt beam="1">  1        2 0.13015398E+00 0.10912294E+04</pdfrwt>
<pdfrwt beam="2">  1       -2 0.54136229E-01 0.10912294E+04</pdfrwt>
<totfact> 0.10196687E+02</totfact>
</mgrwt>
</event>
<event>
 6    1  0.1001928E-005  0.2026137E+04  0.7818608E-02  0.8594497E-01
          2   -1    0    0  501    0  0.00000000000E+00  0.00000000000E+00  0.13872698631E+04  0.13872698631E+04  0.00000000000E+00 0. -1.
         -2   -1    0    0    0  501 -0.00000000000E+00 -0.00000000000E+00 -0.73980422783E+03  0.73980422783E+03  0.00000000000E+00 0.  1.
         23    2    1    2    0    0 -0.84227348956E+03  0.25021480615E+03 -0.20045369580E+03  0.90600928004E+03  0.92946494965E+02 0.  0.
         13    1    3    3    0    0 -0.46451080543E+03  0.91240128299E+02 -0.11956186938E+03  0.48825207627E+03  0.00000000000E+00 0. -1.
        -13    1    3    3    0    0 -0.37776268413E+03  0.15897467786E+03 -0.80891826421E+02  0.41775720377E+03  0.00000000000E+00 0.  1.
         22    1    1    2    0    0  0.84227348956E+03 -0.25021480615E+03  0.84791933109E+03  0.12210648109E+04  0.00000000000E+00 0. -1.
<mgrwt>
<rscale>  0 0.20261373E+04</rscale>
<asrwt>0</asrwt>
<pdfrwt beam="1">  1        2 0.21342613E+00 0.20261373E+04</pdfrwt>
<pdfrwt beam="2">  1       -2 0.11381604E+00 0.20261373E+04</pdfrwt>
<totfact> 0.82519655E+00</totfact>
</mgrwt>
</event>
<event>
 6    1  0.1001928E-005  0.1314960E+04  0.7818608E-02  0.9017785E-01
         -2   -1    0    0    0  501 -0.00000000000E+00  0.00000000000E+00  0.40046313784E+03  0.40046313784E+03  0.00000000000E+00 0.  1.
          2   -1    0    0  501    0  0.00000000000E+00 -0.00000000000E+00 -0.10794503843E+04  0.10794503843E+04  0.00000000000E+00 0. -1.
         23    2    1    2    0    0  0.23273902586E+03  0.30430880877E+03  0.25527869812E+03  0.47014911375E+03  0.95402673932E+02 0.  0.
         13    1    3    3    0    0  0.97724568954E+02  0.19883806682E+03  0.12079998709E+03  0.25234758781E+03  0.00000000000E+00 0.  1.
        -13    1    3    3    0    0  0.13501445690E+03  0.10547074195E+03  0.13447871103E+03  0.21780152594E+03  0.00000000000E+00 0. -1.
         22    1    1    2    0    0 -0.23273902586E+03 -0.30430880877E+03 -0.93426594456E+03  0.10097644084E+04  0.00000000000E+00 0. -1.
<mgrwt>
<rscale>  0 0.13149602E+04</rscale>
<asrwt>0</asrwt>
<pdfrwt beam="1">  1        2 0.16606929E+00 0.13149602E+04</pdfrwt>
<pdfrwt beam="2">  1       -2 0.61609713E-01 0.13149602E+04</pdfrwt>
<totfact> 0.53790217E+01</totfact>
</mgrwt>
</event>
<event>
 6    1  0.1001928E-005  0.1364107E+04  0.7818608E-02  0.8980217E-01
          1   -1    0    0  501    0  0.00000000000E+00  0.00000000000E+00  0.13261306985E+04  0.13261306985E+04  0.00000000000E+00 0. -1.
         -1   -1    0    0    0  501 -0.00000000000E+00 -0.00000000000E+00 -0.35079295940E+03  0.35079295940E+03  0.00000000000E+00 0.  1.
         23    2    1    2    0    0  0.51107444320E+03 -0.23187768867E+03  0.96019390047E+03  0.11155025282E+04  0.86076796472E+02 0.  0.
         11    1    3    3    0    0  0.61408863279E+02 -0.25832192708E+02  0.17779220484E+03  0.18986421140E+03  0.00000000000E+00 0.  1.
        -11    1    3    3    0    0  0.44966557992E+03 -0.20604549597E+03  0.78240169563E+03  0.92563831678E+03  0.00000000000E+00 0. -1.
         22    1    1    2    0    0 -0.51107444320E+03  0.23187768867E+03  0.15143838584E+02  0.56142112967E+03  0.00000000000E+00 0.  1.
<mgrwt>
<rscale>  0 0.13641075E+04</rscale>
<asrwt>0</asrwt>
<pdfrwt beam="1">  1        1 0.20402010E+00 0.13641075E+04</pdfrwt>
<pdfrwt beam="2">  1       -1 0.53968148E-01 0.13641075E+04</pdfrwt>
<totfact> 0.29363642E+01</totfact>
</mgrwt>
</event>
<event>
 6    1  0.1001928E-005  0.4662393E+03  0.7818608E-02  0.1022987E+00
         -2   -1    0    0    0  501 -0.00000000000E+00  0.00000000000E+00  0.30359719469E+02  0.30359719469E+02  0.00000000000E+00 0.  1.
          2   -1    0    0  501    0  0.00000000000E+00 -0.00000000000E+00 -0.17900286446E+04  0.17900286446E+04  0.00000000000E+00 0. -1.
         23    2    1    2    0    0 -0.10364863931E+03 -0.54752964484E+02 -0.16592634446E+04  0.16660439827E+04  0.93842666513E+02 0.  0.
         13    1    3    3    0    0 -0.93392450813E+02 -0.60864318516E+02 -0.92633411629E+03  0.93301742221E+03  0.00000000000E+00 0.  1.
        -13    1    3    3    0    0 -0.10256188499E+02  0.61113540320E+01 -0.73292932829E+03  0.73302656045E+03  0.00000000000E+00 0. -1.
         22    1    1    2    0    0  0.10364863931E+03  0.54752964484E+02 -0.10040548055E+03  0.15434438142E+03  0.00000000000E+00 0.  1.
<mgrwt>
<rscale>  0 0.46623928E+03</rscale>
<asrwt>0</asrwt>
<pdfrwt beam="1">  1        2 0.27538901E+00 0.46623928E+03</pdfrwt>
<pdfrwt beam="2">  1       -2 0.46707263E-02 0.46623928E+03</pdfrwt>
<totfact> 0.20636778E+03</totfact>
</mgrwt>
</event>
<event>
 6    1  0.1001928E-005  0.2046389E+04  0.7818608E-02  0.8585234E-01
          1   -1    0    0  501    0  0.00000000000E+00  0.00000000000E+00  0.86941672955E+03  0.86941672955E+03  0.00000000000E+00 0. -1.
         -1   -1    0    0    0  501 -0.00000000000E+00 -0.00000000000E+00 -0.12041717110E+04  0.12041717110E+04  0.00000000000E+00 0.  1.
         23    2    1    2    0    0 -0.88980753805E+03 -0.42240531936E+03 -0.44074227917E+03  0.10829235043E+04  0.91026649612E+02 0.  0.
         13    1    3    3    0    0 -0.71272052275E+03 -0.35378507726E+03 -0.39113339569E+03  0.88663394795E+03  0.00000000000E+00 0.  1.
        -13    1    3    3    0    0 -0.17708701530E+03 -0.68620242098E+02 -0.49608883488E+02  0.19628955636E+03  0.00000000000E+00 0. -1.
         22    1    1    2    0    0  0.88980753805E+03  0.42240531936E+03  0.10598729774E+03  0.99066493623E+03  0.00000000000E+00 0.  1.
<mgrwt>
<rscale>  0 0.20463890E+04</rscale>
<asrwt>0</asrwt>
<pdfrwt beam="1">  1        1 0.13375642E+00 0.20463890E+04</pdfrwt>
<pdfrwt beam="2">  1       -1 0.18525719E+00 0.20463890E+04</pdfrwt>
<totfact> 0.34015729E+00</totfact>
</mgrwt>
</event>
<event>
 6    1  0.1001928E-005  0.8003237E+03  0.7818608E-02  0.9559549E-01
         -2   -1    0    0    0  501 -0.00000000000E+00  0.00000000000E+00  0.14328664799E+03  0.14328664799E+03  0.00000000000E+00 0.  1.
          2   -1    0    0  501    0  0.00000000000E+00 -0.00000000000E+00 -0.11175467043E+04  0.11175467043E+04  0.00000000000E+00 0. -1.
         23    2    1    2    0    0  0.25810745999E+03  0.62838593309E+02 -0.95389061263E+03  0.99440688226E+03  0.91485501109E+02 0.  0.
         11    1    3    3    0    0  0.14365126254E+03  0.78135420456E+02 -0.50020728152E+03  0.52625863759E+03  0.00000000000E+00 0.  1.
        -11    1    3    3    0    0  0.11445619745E+03 -0.15296827148E+02 -0.45368333112E+03  0.46814824467E+03  0.00000000000E+00 0. -1.
         22    1    1    2    0    0 -0.25810745999E+03 -0.62838593309E+02 -0.20369443715E+02  0.26642647006E+03  0.00000000000E+00 0.  1.
<mgrwt>
<rscale>  0 0.80032374E+03</rscale>
<asrwt>0</asrwt>
<pdfrwt beam="1">  1        2 0.17193026E+00 0.80032374E+03</pdfrwt>
<pdfrwt beam="2">  1       -2 0.22044100E-01 0.80032374E+03</pdfrwt>
<totfact> 0.38384513E+02</totfact>
</mgrwt>
</event>
<event>
 6    1  0.1001928E-005  0.3082079E+04  0.7818608E-02  0.8220674E-01
         -1   -1    0    0    0  501 -0.00000000000E+00  0.00000000000E+00  0.19438684048E+04  0.19438684048E+04  0.00000000000E+00 0.  1.
          1   -1    0    0  501    0  0.00000000000E+00 -0.00000000000E+00 -0.12216886612E+04  0.12216886612E+04  0.00000000000E+00 0. -1.
         23    2    1    2    0    0  0.10356371534E+04 -0.95666739008E+03 -0.27415963131E+03  0.14391593833E+04  0.90881342219E+02 0.  0.
         11    1    3    3    0    0  0.68756226183E+03 -0.68193938332E+03 -0.16309216790E+03  0.98202965416E+03  0.00000000000E+00 0.  1.
        -11    1    3    3    0    0  0.34807489156E+03 -0.27472800676E+03 -0.11106746341E+03  0.45712972914E+03  0.00000000000E+00 0. -1.
         22    1    1    2    0    0 -0.10356371534E+04  0.95666739008E+03  0.99633937497E+03  0.17263976827E+04  0.00000000000E+00 0. -1.
<mgrwt>
<rscale>  0 0.30820785E+04</rscale>
<asrwt>0</asrwt>
<pdfrwt beam="1">  1        1 0.18795210E+00 0.30820785E+04</pdfrwt>
<pdfrwt beam="2">  1       -1 0.29905668E+00 0.30820785E+04</pdfrwt>
<totfact> 0.29159585E-01</totfact>
</mgrwt>
</event>
<event>
 6    1  0.1001928E-005  0.2555203E+04  0.7818608E-02  0.8383579E-01
          2   -1    0    0  501    0  0.00000000000E+00  0.00000000000E+00  0.31802510756E+04  0.31802510756E+04  0.00000000000E+00 0. -1.
         -2   -1    0    0    0  501 -0.00000000000E+00 -0.00000000000E+00 -0.51325049959E+03  0.51325049959E+03  0.00000000000E+00 0.  1.
         23    2    1    2    0    0  0.24822928165E+03  0.36692973544E+03  0.30648405962E+04  0.30980757707E+04  0.92576423144E+02 0.  0.
         11    1    3    3    0    0  0.11125034506E+03  0.13823723323E+03  0.94241266810E+03  0.95897226702E+03  0.00000000000E+00 0.  1.
        -11    1    3    3    0    0  0.13697893659E+03  0.22869250221E+03  0.21224279281E+04  0.21391035037E+04  0.00000000000E+00 0. -1.
         22    1    1    2    0    0 -0.24822928165E+03 -0.36692973544E+03 -0.39784002015E+03  0.59542580449E+03  0.00000000000E+00 0.  1.
<mgrwt>
<rscale>  0 0.25552029E+04</rscale>
<asrwt>0</asrwt>
<pdfrwt beam="1">  1        2 0.48926938E+00 0.25552029E+04</pdfrwt>
<pdfrwt beam="2">  1       -2 0.78961618E-01 0.25552029E+04</pdfrwt>
<totfact> 0.16886435E+00</totfact>
</mgrwt>
</event>
<event>
 6    1  0.1001928E-005  0.7534659E+03  0.7818608E-02  0.9629928E-01
          1   -1    0    0  501    0  0.00000000000E+00  0.00000000000E+00  0.31025891673E+04  0.31025891673E+04  0.00000000000E+00 0. -1.
         -1   -1    0    0    0  501 -0.00000000000E+00 -0.00000000000E+00 -0.45744931206E+02  0.45744931206E+02  0.00000000000E+00 0.  1.
         23    2    1    2    0    0 -0.19340803645E+03  0.29035336731E+03  0.10191541275E+04  0.10809945702E+04  0.90345884333E+02 0.  0.
         11    1    3    3    0    0 -0.95089642583E+02  0.20813746898E+03  0.57960020804E+03  0.62313694103E+03  0.00000000000E+00 0.  1.
        -11    1    3    3    0    0 -0.98318393865E+02  0.82215898330E+02  0.43955391944E+03  0.45785762918E+03  0.00000000000E+00 0. -1.
         22    1    1    2    0    0  0.19340803645E+03 -0.29035336731E+03  0.20376901086E+04  0.20673395283E+04  0.00000000000E+00 0. -1.
<mgrwt>
<rscale>  0 0.75346593E+03</rscale>
<asrwt>0</asrwt>
<pdfrwt beam="1">  1        1 0.47732125E+00 0.75346593E+03</pdfrwt>
<pdfrwt beam="2">  1       -1 0.70376841E-02 0.75346593E+03</pdfrwt>
<totfact> 0.58363970E+01</totfact>
</mgrwt>
</event>
<event>
 6    1  0.1001928E-005  0.4424967E+04  0.7818608E-02  0.7923906E-01
         -2   -1    0    0    0  501 -0.00000000000E+00  0.00000000000E+00  0.97740976710E+03  0.97740976710E+03  0.00000000000E+00 0.  1.
          2   -1    0    0  501    0  0.00000000000E+00 -0.00000000000E+00 -0.50082200767E+04  0.50082200767E+04  0.00000000000E+00 0. -1.
         23    2    1    2    0    0  0.48053922726E+03  0.18338837174E+04 -0.47570115736E+03  0.19566289103E+04  0.89764488056E+02 0.  0.
         13    1    3    3    0    0  0.30613272849E+03  0.10225735239E+04 -0.29325096669E+03  0.11069643123E+04  0.00000000000E+00 0. -1.
        -13    1    3    3    0    0  0.17440649877E+03  0.81131019350E+03 -0.18245019067E+03  0.84966459792E+03  0.00000000000E+00 0.  1.
         22    1    1    2    0    0 -0.48053922726E+03 -0.18338837174E+04 -0.35551091522E+04  0.40290009335E+04  0.00000000000E+00 0. -1.
<mgrwt>
<rscale>  0 0.44249670E+04</rscale>
<asrwt>0</asrwt>
<pdfrwt beam="1">  1        2 0.77049542E+00 0.44249670E+04</pdfrwt>
<pdfrwt beam="2">  1       -2 0.15037073E+00 0.44249670E+04</pdfrwt>
<totfact> 0.74946805E-03</totfact>
</mgrwt>
</event>
<event>
 6    1  0.1001928E-005  0.1203244E+04  0.7818608E-02  0.9110022E-01
          1   -1    0    0  501    0  0.00000000000E+00  0.00000000000E+00  0.26878804469E+04  0.26878804469E+04  0.00000000000E+00 0. -1.
         -1   -1    0    0    0  501 -0.00000000000E+00 -0.00000000000E+00 -0.13465968950E+03  0.13465968950E+03  0.00000000000E+00 0.  1.
         23    2    1    2    0    0 -0.42012469447E+03  0.30516553872E+03  0.58996847706E+03  0.79177912604E+03  0.96024036447E+02 0.  0.
         13    1    3    3    0    0 -0.90490438356E+02  0.85394752176E+02  0.88456635223E+02  0.15266092967E+03  0.00000000000E+00 0.  1.
        -13    1    3    3    0    0 -0.32963425612E+03  0.21977078654E+03  0.50151184183E+03  0.63911819636E+03  0.00000000000E+00 0. -1.
         22    1    1    2    0    0  0.42012469447E+03 -0.30516553872E+03  0.19632522804E+04  0.20307610104E+04  0.00000000000E+00 0. -1.
<mgrwt>
<rscale>  0 0.12032442E+04</rscale>
<asrwt>0</asrwt>
<pdfrwt beam="1">  1        1 0.41352003E+00 0.12032442E+04</pdfrwt>
<pdfrwt beam="2">  1       -1 0.20716877E-01 0.12032442E+04</pdfrwt>
<totfact> 0.19258601E+01</totfact>
</mgrwt>
</event>
<event>
 6    1  0.1001928E-005  0.5343951E+03  0.7818608E-02  0.1005172E+00
          1   -1    0    0  501    0  0.00000000000E+00  0.00000000000E+00  0.11020233772E+03  0.11020233772E+03  0.00000000000E+00 0. -1.
         -1   -1    0    0    0  501 -0.00000000000E+00 -0.00000000000E+00 -0.64784958909E+03  0.64784958909E+03  0.00000000000E+00 0.  1.
         23    2    1    2    0    0 -0.19235727533E+03  0.43435991392E+02 -0.51590916624E+03  0.55965698972E+03  0.90364105731E+02 0.  0.
         13    1    3    3    0    0 -0.12626746560E+03 -0.14158704840E+01 -0.22532996883E+03  0.25830035310E+03  0.00000000000E+00 0. -1.
        -13    1    3    3    0    0 -0.66089809730E+02  0.44851861876E+02 -0.29057919741E+03  0.30135663662E+03  0.00000000000E+00 0.  1.
         22    1    1    2    0    0  0.19235727533E+03 -0.43435991392E+02 -0.21738085126E+02  0.19839493710E+03  0.00000000000E+00 0. -1.
<mgrwt>
<rscale>  0 0.53439513E+03</rscale>
<asrwt>0</asrwt>
<pdfrwt beam="1">  1        1 0.16954206E-01 0.53439513E+03</pdfrwt>
<pdfrwt beam="2">  1       -1 0.99669166E-01 0.53439513E+03</pdfrwt>
<totfact> 0.31960408E+02</totfact>
</mgrwt>
</event>
<event>
 6    1  0.1001928E-005  0.2329737E+04  0.7818608E-02  0.8466288E-01
          1   -1    0    0  501    0  0.00000000000E+00  0.00000000000E+00  0.17808456450E+04  0.17808456450E+04  0.00000000000E+00 0. -1.
         -1   -1    0    0    0  501 -0.00000000000E+00 -0.00000000000E+00 -0.76195189978E+03  0.76195189978E+03  0.00000000000E+00 0.  1.
         23    2    1    2    0    0 -0.25678114182E+03 -0.34400197774E+03  0.16900382090E+04  0.17461114040E+04  0.91662269026E+02 0.  0.
         11    1    3    3    0    0 -0.14087436778E+03 -0.15031535857E+03  0.96523723768E+03  0.98697680800E+03  0.00000000000E+00 0.  1.
        -11    1    3    3    0    0 -0.11590677404E+03 -0.19368661917E+03  0.72480097136E+03  0.75913459597E+03  0.00000000000E+00 0. -1.
         22    1    1    2    0    0  0.25678114182E+03  0.34400197774E+03 -0.67114446387E+03  0.79668614075E+03  0.00000000000E+00 0.  1.
<mgrwt>
<rscale>  0 0.23297371E+04</rscale>
<asrwt>0</asrwt>
<pdfrwt beam="1">  1        1 0.27397625E+00 0.23297371E+04</pdfrwt>
<pdfrwt beam="2">  1       -1 0.11722337E+00 0.23297371E+04</pdfrwt>
<totfact> 0.24805105E+00</totfact>
</mgrwt>
</event>
<event>
 6    1  0.1001928E-005  0.1276457E+04  0.7818608E-02  0.9048446E-01
          4   -1    0    0  501    0  0.00000000000E+00  0.00000000000E+00  0.67774646441E+03  0.67774646441E+03  0.00000000000E+00 0. -1.
         -4   -1    0    0    0  501 -0.00000000000E+00 -0.00000000000E+00 -0.60101508559E+03  0.60101508559E+03  0.00000000000E+00 0.  1.
         23    2    1    2    0    0  0.49316115750E+03  0.40014751632E+03  0.61626066364E+02  0.64350244338E+03  0.83496469986E+02 0.  0.
         13    1    3    3    0    0  0.27603947219E+03  0.17204853855E+03  0.20470225374E+02  0.32591029433E+03  0.00000000000E+00 0.  1.
        -13    1    3    3    0    0  0.21712168531E+03  0.22809897777E+03  0.41155840989E+02  0.31759214906E+03  0.00000000000E+00 0. -1.
         22    1    1    2    0    0 -0.49316115750E+03 -0.40014751632E+03  0.15105312456E+02  0.63525910662E+03  0.00000000000E+00 0.  1.
<mgrwt>
<rscale>  0 0.12764574E+04</rscale>
<asrwt>0</asrwt>
<pdfrwt beam="1">  1        4 0.10426869E+00 0.12764574E+04</pdfrwt>
<pdfrwt beam="2">  1       -4 0.92463859E-01 0.12764574E+04</pdfrwt>
<totfact> 0.14540012E+00</totfact>
</mgrwt>
</event>
<event>
 6    1  0.1001928E-005  0.4576316E+04  0.7818608E-02  0.7897411E-01
          3   -1    0    0  501    0  0.00000000000E+00  0.00000000000E+00  0.28774667232E+04  0.28774667232E+04  0.00000000000E+00 0. -1.
         -3   -1    0    0    0  501 -0.00000000000E+00 -0.00000000000E+00 -0.18195402587E+04  0.18195402587E+04  0.00000000000E+00 0.  1.
         23    2    1    2    0    0  0.73227084313E+03  0.90058325468E+03 -0.14936355913E+04  0.18938409663E+04  0.91736251563E+02 0.  0.
         13    1    3    3    0    0  0.36469051895E+03  0.40012437803E+03 -0.64042796119E+03  0.83859803600E+03  0.00000000000E+00 0.  1.
        -13    1    3    3    0    0  0.36758032417E+03  0.50045887664E+03 -0.85320763008E+03  0.10552429303E+04  0.00000000000E+00 0. -1.
         22    1    1    2    0    0 -0.73227084313E+03 -0.90058325468E+03  0.25515620558E+04  0.28031660156E+04  0.00000000000E+00 0. -1.
<mgrwt>
<rscale>  0 0.45763158E+04</rscale>
<asrwt>0</asrwt>
<pdfrwt beam="1">  1        3 0.44268719E+00 0.45763158E+04</pdfrwt>
<pdfrwt beam="2">  1       -3 0.27992927E+00 0.45763158E+04</pdfrwt>
<totfact> 0.63455208E-04</totfact>
</mgrwt>
</event>
<event>
 6    1  0.1284601E-005  0.3351584E+04  0.7818608E-02  0.8149893E-01
          2   -1    0    0  501    0  0.00000000000E+00  0.00000000000E+00  0.30189246568E+04  0.30189246568E+04  0.00000000000E+00 0. -1.
         -2   -1    0    0    0  501 -0.00000000000E+00 -0.00000000000E+00 -0.93022474741E+03  0.93022474741E+03  0.00000000000E+00 0.  1.
         23    2    1    2    0    0 -0.42706531455E+03  0.10269986777E+04 -0.43022817155E+03  0.11955863046E+04  0.84966259622E+02 0.  0.
         11    1    3    3    0    0 -0.27756886286E+03  0.55761175547E+03 -0.23998561703E+03  0.66750913091E+03  0.00000000000E+00 0. -1.
        -11    1    3    3    0    0 -0.14949645169E+03  0.46938692218E+03 -0.19024255451E+03  0.52807717365E+03  0.00000000000E+00 0.  1.
         22    1    1    2    0    0  0.42706531455E+03 -0.10269986777E+04  0.25189280810E+04  0.27535630997E+04  0.00000000000E+00 0. -1.
<mgrwt>
<rscale>  0 0.33515838E+04</rscale>
<asrwt>0</asrwt>
<pdfrwt beam="1">  1        2 0.46444994E+00 0.33515838E+04</pdfrwt>
<pdfrwt beam="2">  1       -2 0.14311150E+00 0.33515838E+04</pdfrwt>
<totfact> 0.47749128E-01</totfact>
</mgrwt>
</event>
<event>
 6    1  0.1001928E-005  0.2103950E+04  0.7818608E-02  0.8559506E-01
         -1   -1    0    0    0  501 -0.00000000000E+00  0.00000000000E+00  0.19819488026E+04  0.19819488026E+04  0.00000000000E+00 0.  1.
          1   -1    0    0  501    0  0.00000000000E+00 -0.00000000000E+00 -0.55836509268E+03  0.55836509268E+03  0.00000000000E+00 0. -1.
         23    2    1    2    0    0  0.99140326337E+03  0.34457715129E+03  0.67303099785E+03  0.12499871082E+04  0.88787402423E+02 0.  0.
         11    1    3    3    0    0  0.49064971839E+03  0.13557524769E+03  0.29063050044E+03  0.58616028672E+03  0.00000000000E+00 0. -1.
        -11    1    3    3    0    0  0.50075354499E+03  0.20900190360E+03  0.38240049741E+03  0.66382682150E+03  0.00000000000E+00 0.  1.
         22    1    1    2    0    0 -0.99140326337E+03 -0.34457715129E+03  0.75055271209E+03  0.12903267871E+04  0.00000000000E+00 0.  1.
<mgrwt>
<rscale>  0 0.21039496E+04</rscale>
<asrwt>0</asrwt>
<pdfrwt beam="1">  1        1 0.85902323E-01 0.21039496E+04</pdfrwt>
<pdfrwt beam="2">  1       -1 0.30491520E+00 0.21039496E+04</pdfrwt>
<totfact> 0.10717940E+00</totfact>
</mgrwt>
</event>
<event>
 6    1  0.1001928E-005  0.1812470E+04  0.7818608E-02  0.8699696E-01
          1   -1    0    0  501    0  0.00000000000E+00  0.00000000000E+00  0.15880039461E+04  0.15880039461E+04  0.00000000000E+00 0.  1.
         -1   -1    0    0    0  501 -0.00000000000E+00 -0.00000000000E+00 -0.51716640822E+03  0.51716640822E+03  0.00000000000E+00 0. -1.
         23    2    1    2    0    0 -0.66712654945E+03 -0.65257260204E+01 -0.17063693637E+03  0.69578776315E+03  0.99514969833E+02 0.  0.
         13    1    3    3    0    0 -0.33237643687E+03 -0.29595450002E+02 -0.41544469633E+02  0.33626764549E+03  0.00000000000E+00 0.  1.
        -13    1    3    3    0    0 -0.33475011259E+03  0.23069723981E+02 -0.12909246673E+03  0.35952011767E+03  0.00000000000E+00 0. -1.
         22    1    1    2    0    0  0.66712654945E+03  0.65257260204E+01  0.12414744742E+04  0.14093825911E+04  0.00000000000E+00 0. -1.
<mgrwt>
<rscale>  0 0.18124705E+04</rscale>
<asrwt>0</asrwt>
<pdfrwt beam="1">  1        1 0.24430830E+00 0.18124705E+04</pdfrwt>
<pdfrwt beam="2">  1       -1 0.79564064E-01 0.18124705E+04</pdfrwt>
<totfact> 0.84595535E+00</totfact>
</mgrwt>
</event>
<event>
 6    1  0.1001928E-005  0.1179697E+04  0.7818608E-02  0.9130816E-01
          1   -1    0    0  501    0  0.00000000000E+00  0.00000000000E+00  0.17608377442E+04  0.17608377442E+04  0.00000000000E+00 0. -1.
         -1   -1    0    0    0  501 -0.00000000000E+00 -0.00000000000E+00 -0.19758845269E+03  0.19758845269E+03  0.00000000000E+00 0.  1.
         23    2    1    2    0    0  0.30925177248E+03 -0.92926551394E+02  0.15985384383E+04  0.16335918905E+04  0.95001702657E+02 0.  0.
         13    1    3    3    0    0  0.19997950512E+03 -0.28360407931E+02  0.11426964001E+04  0.11604099181E+04  0.00000000000E+00 0. -1.
        -13    1    3    3    0    0  0.10927226736E+03 -0.64566143463E+02  0.45584203817E+03  0.47318197246E+03  0.00000000000E+00 0.  1.
         22    1    1    2    0    0 -0.30925177248E+03  0.92926551394E+02 -0.35289146697E+02  0.32483430640E+03  0.00000000000E+00 0.  1.
<mgrwt>
<rscale>  0 0.11796969E+04</rscale>
<asrwt>0</asrwt>
<pdfrwt beam="1">  1        1 0.27089810E+00 0.11796969E+04</pdfrwt>
<pdfrwt beam="2">  1       -1 0.30398225E-01 0.11796969E+04</pdfrwt>
<totfact> 0.42833111E+01</totfact>
</mgrwt>
</event>
<event>
 6    1  0.1001928E-005  0.4633157E+04  0.7818608E-02  0.7887731E-01
         -1   -1    0    0    0  501 -0.00000000000E+00  0.00000000000E+00  0.13332995119E+04  0.13332995119E+04  0.00000000000E+00 0.  1.
          1   -1    0    0  501    0  0.00000000000E+00 -0.00000000000E+00 -0.40250032059E+04  0.40250032059E+04  0.00000000000E+00 0. -1.
         23    2    1    2    0    0  0.45818317324E+03  0.10336212638E+04  0.99055879349E+03  0.15063731021E+04  0.98226585489E+02 0.  0.
         13    1    3    3    0    0  0.27258878891E+03  0.72727382342E+03  0.68193171026E+03  0.10335679559E+04  0.00000000000E+00 0. -1.
        -13    1    3    3    0    0  0.18559438433E+03  0.30634744035E+03  0.30862708322E+03  0.47280514613E+03  0.00000000000E+00 0.  1.
         22    1    1    2    0    0 -0.45818317324E+03 -0.10336212638E+04 -0.36822624875E+04  0.38519296157E+04  0.00000000000E+00 0. -1.
<mgrwt>
<rscale>  0 0.46331565E+04</rscale>
<asrwt>0</asrwt>
<pdfrwt beam="1">  1        1 0.61923125E+00 0.46331565E+04</pdfrwt>
<pdfrwt beam="2">  1       -1 0.20512300E+00 0.46331565E+04</pdfrwt>
<totfact> 0.93738780E-03</totfact>
</mgrwt>
</event>
<event>
 6    1  0.1001928E-005  0.2079600E+04  0.7818608E-02  0.8570283E-01
          2   -1    0    0  501    0  0.00000000000E+00  0.00000000000E+00  0.14261390792E+04  0.14261390792E+04  0.00000000000E+00 0. -1.
         -2   -1    0    0    0  501 -0.00000000000E+00 -0.00000000000E+00 -0.75811955490E+03  0.75811955490E+03  0.00000000000E+00 0.  1.
         23    2    1    2    0    0 -0.98595053211E+02 -0.94962222109E+03  0.76205231414E+03  0.12249122353E+04  0.90459424569E+02 0.  0.
         13    1    3    3    0    0 -0.15348530301E+02 -0.57139866797E+03  0.44468502361E+03  0.72420769491E+03  0.00000000000E+00 0. -1.
        -13    1    3    3    0    0 -0.83246522910E+02 -0.37822355313E+03  0.31736729053E+03  0.50070454044E+03  0.00000000000E+00 0.  1.
         22    1    1    2    0    0  0.98595053211E+02  0.94962222109E+03 -0.94032789815E+02  0.95934639879E+03  0.00000000000E+00 0.  1.
<mgrwt>
<rscale>  0 0.20795999E+04</rscale>
<asrwt>0</asrwt>
<pdfrwt beam="1">  1        2 0.21940601E+00 0.20795999E+04</pdfrwt>
<pdfrwt beam="2">  1       -2 0.11663378E+00 0.20795999E+04</pdfrwt>
<totfact> 0.73528173E+00</totfact>
</mgrwt>
</event>
<event>
 6    1  0.1001928E-005  0.3681864E+04  0.7818608E-02  0.8071993E-01
          2   -1    0    0  501    0  0.00000000000E+00  0.00000000000E+00  0.26214184206E+04  0.26214184206E+04  0.00000000000E+00 0. -1.
         -2   -1    0    0    0  501 -0.00000000000E+00 -0.00000000000E+00 -0.12928233670E+04  0.12928233670E+04  0.00000000000E+00 0.  1.
         23    2    1    2    0    0 -0.13231056878E+04  0.65989481122E+03  0.18288112941E+04  0.23533810923E+04  0.88215608867E+02 0.  0.
         13    1    3    3    0    0 -0.12010113493E+04  0.60142766323E+03  0.16183239647E+04  0.21031205267E+04  0.00000000000E+00 0. -1.
        -13    1    3    3    0    0 -0.12209433849E+03  0.58467147997E+02  0.21048732937E+03  0.25026056563E+03  0.00000000000E+00 0.  1.
         22    1    1    2    0    0  0.13231056878E+04 -0.65989481122E+03 -0.50021624047E+03  0.15608606953E+04  0.00000000000E+00 0.  1.
<mgrwt>
<rscale>  0 0.36818642E+04</rscale>
<asrwt>0</asrwt>
<pdfrwt beam="1">  1        2 0.40329514E+00 0.36818642E+04</pdfrwt>
<pdfrwt beam="2">  1       -2 0.19889590E+00 0.36818642E+04</pdfrwt>
<totfact> 0.32362608E-01</totfact>
</mgrwt>
</event>
<event>
 6    1  0.1001928E-005  0.6898652E+03  0.7818608E-02  0.9734723E-01
         -1   -1    0    0    0  501 -0.00000000000E+00  0.00000000000E+00  0.64659991401E+02  0.64659991401E+02  0.00000000000E+00 0.  1.
          1   -1    0    0  501    0  0.00000000000E+00 -0.00000000000E+00 -0.18400634299E+04  0.18400634299E+04  0.00000000000E+00 0. -1.
         23    2    1    2    0    0  0.12345581687E+03  0.20060073414E+03 -0.15763882690E+04  0.15963583277E+04  0.88757774559E+02 0.  0.
         13    1    3    3    0    0  0.11073044204E+02  0.43152361946E+02 -0.55696547419E+03  0.55874437634E+03  0.00000000000E+00 0. -1.
        -13    1    3    3    0    0  0.11238277267E+03  0.15744837220E+03 -0.10194227948E+04  0.10376139513E+04  0.00000000000E+00 0.  1.
         22    1    1    2    0    0 -0.12345581687E+03 -0.20060073414E+03 -0.19901516951E+03  0.30836509360E+03  0.00000000000E+00 0.  1.
<mgrwt>
<rscale>  0 0.68986516E+03</rscale>
<asrwt>0</asrwt>
<pdfrwt beam="1">  1        1 0.28308661E+00 0.68986516E+03</pdfrwt>
<pdfrwt beam="2">  1       -1 0.99476934E-02 0.68986516E+03</pdfrwt>
<totfact> 0.25081846E+02</totfact>
</mgrwt>
</event>
<event>
 6    1  0.1001928E-005  0.1288807E+04  0.7818608E-02  0.9038489E-01
          2   -1    0    0  501    0  0.00000000000E+00  0.00000000000E+00  0.14035165786E+04  0.14035165786E+04  0.00000000000E+00 0. -1.
         -2   -1    0    0    0  501 -0.00000000000E+00 -0.00000000000E+00 -0.29586794550E+03  0.29586794550E+03  0.00000000000E+00 0.  1.
         23    2    1    2    0    0 -0.50494373781E+02  0.42909100770E+03 -0.66426274282E+02  0.44833669816E+03  0.99622137722E+02 0.  0.
         13    1    3    3    0    0 -0.27659549097E+02  0.30066981487E+03  0.47345729491E-01  0.30193938211E+03  0.00000000000E+00 0. -1.
        -13    1    3    3    0    0 -0.22834824685E+02  0.12842119284E+03 -0.66473620012E+02  0.14639731604E+03  0.00000000000E+00 0.  1.
         22    1    1    2    0    0  0.50494373781E+02 -0.42909100770E+03  0.11740749074E+04  0.12510478260E+04  0.00000000000E+00 0. -1.
<mgrwt>
<rscale>  0 0.12888065E+04</rscale>
<asrwt>0</asrwt>
<pdfrwt beam="1">  1        2 0.21592562E+00 0.12888065E+04</pdfrwt>
<pdfrwt beam="2">  1       -2 0.45518146E-01 0.12888065E+04</pdfrwt>
<totfact> 0.64641918E+01</totfact>
</mgrwt>
</event>
<event>
 6    1  0.1001928E-005  0.7019119E+03  0.7818608E-02  0.9713968E-01
         -2   -1    0    0    0  501 -0.00000000000E+00  0.00000000000E+00  0.98089846051E+02  0.98089846051E+02  0.00000000000E+00 0.  1.
          2   -1    0    0  501    0  0.00000000000E+00 -0.00000000000E+00 -0.12556863288E+04  0.12556863288E+04  0.00000000000E+00 0. -1.
         23    2    1    2    0    0 -0.10691579665E+03  0.24389966187E+03 -0.10113869116E+04  0.10499748067E+04  0.92873984527E+02 0.  0.
         13    1    3    3    0    0 -0.25231633318E+02  0.15939213189E+03 -0.50644069822E+03  0.53153049568E+03  0.00000000000E+00 0.  1.
        -13    1    3    3    0    0 -0.81684163331E+02  0.84507529981E+02 -0.50494621339E+03  0.51844431097E+03  0.00000000000E+00 0. -1.
         22    1    1    2    0    0  0.10691579665E+03 -0.24389966187E+03 -0.14620957116E+03  0.30380136822E+03  0.00000000000E+00 0.  1.
<mgrwt>
<rscale>  0 0.70191190E+03</rscale>
<asrwt>0</asrwt>
<pdfrwt beam="1">  1        2 0.19318251E+00 0.70191190E+03</pdfrwt>
<pdfrwt beam="2">  1       -2 0.15090746E-01 0.70191190E+03</pdfrwt>
<totfact> 0.61492119E+02</totfact>
</mgrwt>
</event>
<event>
 6    1  0.1001928E-005  0.1422117E+04  0.7818608E-02  0.8937963E-01
          1   -1    0    0  501    0  0.00000000000E+00  0.00000000000E+00  0.12658925634E+04  0.12658925634E+04  0.00000000000E+00 0. -1.
         -1   -1    0    0    0  501 -0.00000000000E+00 -0.00000000000E+00 -0.39940552877E+03  0.39940552877E+03  0.00000000000E+00 0.  1.
         23    2    1    2    0    0 -0.30368604921E+03 -0.51559239531E+02 -0.30843609173E+03  0.45066731513E+03  0.11438808758E+03 0.  0.
         11    1    3    3    0    0 -0.16029170534E+03 -0.21187784613E+02 -0.23880726585E+03  0.28839428434E+03  0.00000000000E+00 0.  1.
        -11    1    3    3    0    0 -0.14339434388E+03 -0.30371454918E+02 -0.69628825880E+02  0.16227303079E+03  0.00000000000E+00 0. -1.
         22    1    1    2    0    0  0.30368604921E+03  0.51559239531E+02  0.11749231263E+04  0.12146307770E+04  0.00000000000E+00 0. -1.
<mgrwt>
<rscale>  0 0.14221174E+04</rscale>
<asrwt>0</asrwt>
<pdfrwt beam="1">  1        1 0.19475270E+00 0.14221174E+04</pdfrwt>
<pdfrwt beam="2">  1       -1 0.61447005E-01 0.14221174E+04</pdfrwt>
<totfact> 0.25023003E+01</totfact>
</mgrwt>
</event>
<event>
 6    1  0.1001928E-005  0.2736690E+04  0.7818608E-02  0.8323198E-01
          1   -1    0    0  501    0  0.00000000000E+00  0.00000000000E+00  0.27575523381E+04  0.27575523381E+04  0.00000000000E+00 0. -1.
         -1   -1    0    0    0  501 -0.00000000000E+00 -0.00000000000E+00 -0.67899644758E+03  0.67899644758E+03  0.00000000000E+00 0.  1.
         23    2    1    2    0    0  0.88944893523E+03 -0.12651252910E+03 -0.25297774673E+03  0.93791437263E+03  0.92524600126E+02 0.  0.
         11    1    3    3    0    0  0.28035622455E+03 -0.21566225053E+02 -0.11990871094E+03  0.30568417307E+03  0.00000000000E+00 0.  1.
        -11    1    3    3    0    0  0.60909271069E+03 -0.10494630405E+03 -0.13306903579E+03  0.63223019956E+03  0.00000000000E+00 0. -1.
         22    1    1    2    0    0 -0.88944893523E+03  0.12651252910E+03  0.23315336373E+04  0.24986344131E+04  0.00000000000E+00 0. -1.
<mgrwt>
<rscale>  0 0.27366901E+04</rscale>
<asrwt>0</asrwt>
<pdfrwt beam="1">  1        1 0.42423881E+00 0.27366901E+04</pdfrwt>
<pdfrwt beam="2">  1       -1 0.10446099E+00 0.27366901E+04</pdfrwt>
<totfact> 0.66972271E-01</totfact>
</mgrwt>
</event>
<event>
 6    1  0.1001928E-005  0.2125154E+04  0.7818608E-02  0.8550243E-01
          2   -1    0    0  501    0  0.00000000000E+00  0.00000000000E+00  0.83143804296E+03  0.83143804296E+03  0.00000000000E+00 0. -1.
         -2   -1    0    0    0  501 -0.00000000000E+00 -0.00000000000E+00 -0.13579718000E+04  0.13579718000E+04  0.00000000000E+00 0.  1.
         23    2    1    2    0    0 -0.64691388172E+03 -0.80935851807E+03 -0.30254373801E+02  0.10405617210E+04  0.91074622959E+02 0.  0.
         11    1    3    3    0    0 -0.21765242854E+03 -0.22131745294E+03 -0.35987399727E+02  0.31248853990E+03  0.00000000000E+00 0. -1.
        -11    1    3    3    0    0 -0.42926145318E+03 -0.58804106512E+03  0.57330259255E+01  0.72807318110E+03  0.00000000000E+00 0.  1.
         22    1    1    2    0    0  0.64691388172E+03  0.80935851807E+03 -0.49627938324E+03  0.11488481220E+04  0.00000000000E+00 0. -1.
<mgrwt>
<rscale>  0 0.21251536E+04</rscale>
<asrwt>0</asrwt>
<pdfrwt beam="1">  1        2 0.12791355E+00 0.21251536E+04</pdfrwt>
<pdfrwt beam="2">  1       -2 0.20891874E+00 0.21251536E+04</pdfrwt>
<totfact> 0.34985727E+00</totfact>
</mgrwt>
</event>
<event>
 6    1  0.1001928E-005  0.4741749E+04  0.7818608E-02  0.7869628E-01
         -2   -1    0    0    0  501 -0.00000000000E+00  0.00000000000E+00  0.21476594095E+04  0.21476594095E+04  0.00000000000E+00 0.  1.
          2   -1    0    0  501    0  0.00000000000E+00 -0.00000000000E+00 -0.26172896465E+04  0.26172896465E+04  0.00000000000E+00 0. -1.
         23    2    1    2    0    0  0.84927017456E+02 -0.23385504238E+04 -0.61237113196E+03  0.24205076202E+04  0.88476285088E+02 0.  0.
         13    1    3    3    0    0  0.18853166304E+01 -0.43390025496E+03 -0.81228577639E+02  0.44144203187E+03  0.00000000000E+00 0.  1.
        -13    1    3    3    0    0  0.83041700825E+02 -0.19046501688E+04 -0.53114255432E+03  0.19790655883E+04  0.00000000000E+00 0. -1.
         22    1    1    2    0    0 -0.84927017456E+02  0.23385504238E+04  0.14274089498E+03  0.23444414358E+04  0.00000000000E+00 0.  1.
<mgrwt>
<rscale>  0 0.47417494E+04</rscale>
<asrwt>0</asrwt>
<pdfrwt beam="1">  1        2 0.40265994E+00 0.47417494E+04</pdfrwt>
<pdfrwt beam="2">  1       -2 0.33040914E+00 0.47417494E+04</pdfrwt>
<totfact> 0.45587430E-02</totfact>
</mgrwt>
</event>
<event>
 6    1  0.1001928E-005  0.2656564E+03  0.7818608E-02  0.1103792E+00
          1   -1    0    0  501    0  0.00000000000E+00  0.00000000000E+00  0.18798801191E+04  0.18798801191E+04  0.00000000000E+00 0. -1.
         -1   -1    0    0    0  501 -0.00000000000E+00 -0.00000000000E+00 -0.93853518821E+01  0.93853518821E+01  0.00000000000E+00 0.  1.
         23    2    1    2    0    0 -0.41866327409E+02 -0.84502784378E+02  0.15323083861E+04  0.15381763964E+04  0.95520292581E+02 0.  0.
         11    1    3    3    0    0 -0.64235819292E+02 -0.39395644388E+02  0.11648256145E+04  0.11672604548E+04  0.00000000000E+00 0.  1.
        -11    1    3    3    0    0  0.22369491883E+02 -0.45107139990E+02  0.36748277166E+03  0.37091594158E+03  0.00000000000E+00 0. -1.
         22    1    1    2    0    0  0.41866327409E+02  0.84502784378E+02  0.33818638107E+03  0.35108907457E+03  0.00000000000E+00 0.  1.
<mgrwt>
<rscale>  0 0.26565644E+03</rscale>
<asrwt>0</asrwt>
<pdfrwt beam="1">  1        1 0.28921203E+00 0.26565644E+03</pdfrwt>
<pdfrwt beam="2">  1       -1 0.14439018E-02 0.26565644E+03</pdfrwt>
<totfact> 0.44540065E+03</totfact>
</mgrwt>
</event>
<event>
 6    1  0.1001928E-005  0.2584599E+04  0.7818608E-02  0.8373451E-01
         -1   -1    0    0    0  501 -0.00000000000E+00  0.00000000000E+00  0.75638181051E+03  0.75638181051E+03  0.00000000000E+00 0.  1.
          1   -1    0    0  501    0  0.00000000000E+00 -0.00000000000E+00 -0.22079300622E+04  0.22079300622E+04  0.00000000000E+00 0. -1.
         23    2    1    2    0    0 -0.71224991174E+03  0.92902495899E+03 -0.13501191129E+04  0.17892905191E+04  0.91387261280E+02 0.  0.
         11    1    3    3    0    0 -0.16616033804E+03  0.21474822664E+03 -0.25652436071E+03  0.37353822619E+03  0.00000000000E+00 0. -1.
        -11    1    3    3    0    0 -0.54608957370E+03  0.71427673235E+03 -0.10935947522E+04  0.14157522929E+04  0.00000000000E+00 0.  1.
         22    1    1    2    0    0  0.71224991174E+03 -0.92902495899E+03 -0.10142913875E+03  0.11750213536E+04  0.00000000000E+00 0.  1.
<mgrwt>
<rscale>  0 0.25845991E+04</rscale>
<asrwt>0</asrwt>
<pdfrwt beam="1">  1        1 0.33968154E+00 0.25845991E+04</pdfrwt>
<pdfrwt beam="2">  1       -1 0.11636643E+00 0.25845991E+04</pdfrwt>
<totfact> 0.12655824E+00</totfact>
</mgrwt>
</event>
<event>
 6    1  0.1001928E-005  0.4565565E+04  0.7818608E-02  0.7899258E-01
          2   -1    0    0  501    0  0.00000000000E+00  0.00000000000E+00  0.21370369276E+04  0.21370369276E+04  0.00000000000E+00 0. -1.
         -2   -1    0    0    0  501 -0.00000000000E+00 -0.00000000000E+00 -0.24384679616E+04  0.24384679616E+04  0.00000000000E+00 0.  1.
         23    2    1    2    0    0  0.18864623664E+04 -0.77678556522E+03  0.87359739086E+03  0.22211837825E+04  0.91372426914E+02 0.  0.
         11    1    3    3    0    0  0.39508397634E+03 -0.19760412513E+03  0.16816366178E+03  0.47267087468E+03  0.00000000000E+00 0.  1.
        -11    1    3    3    0    0  0.14913783900E+04 -0.57918144008E+03  0.70543372908E+03  0.17485129078E+04  0.00000000000E+00 0. -1.
         22    1    1    2    0    0 -0.18864623664E+04  0.77678556522E+03 -0.11750284249E+04  0.23543211067E+04  0.00000000000E+00 0.  1.
<mgrwt>
<rscale>  0 0.45655651E+04</rscale>
<asrwt>0</asrwt>
<pdfrwt beam="1">  1        2 0.32877492E+00 0.45655651E+04</pdfrwt>
<pdfrwt beam="2">  1       -2 0.37514891E+00 0.45655651E+04</pdfrwt>
<totfact> 0.45430415E-02</totfact>
</mgrwt>
</event>
<event>
 6    1  0.1001928E-005  0.1947361E+04  0.7818608E-02  0.8631634E-01
          1   -1    0    0  501    0  0.00000000000E+00  0.00000000000E+00  0.23897351907E+04  0.23897351907E+04  0.00000000000E+00 0. -1.
         -1   -1    0    0    0  501 -0.00000000000E+00 -0.00000000000E+00 -0.39671933913E+03  0.39671933913E+03  0.00000000000E+00 0.  1.
         23    2    1    2    0    0 -0.93589550408E+02 -0.72933945235E+03  0.90633589130E+02  0.74690719937E+03  0.94661905183E+02 0.  0.
         11    1    3    3    0    0 -0.67024459094E+02 -0.26480231145E+03  0.15351728506E+01  0.27315727891E+03  0.00000000000E+00 0.  1.
        -11    1    3    3    0    0 -0.26565091314E+02 -0.46453714091E+03  0.89098416280E+02  0.47374992047E+03  0.00000000000E+00 0. -1.
         22    1    1    2    0    0  0.93589550408E+02  0.72933945235E+03  0.19023822624E+04  0.20395473304E+04  0.00000000000E+00 0. -1.
<mgrwt>
<rscale>  0 0.19473615E+04</rscale>
<asrwt>0</asrwt>
<pdfrwt beam="1">  1        1 0.36765156E+00 0.19473615E+04</pdfrwt>
<pdfrwt beam="2">  1       -1 0.61033746E-01 0.19473615E+04</pdfrwt>
<totfact> 0.40984007E+00</totfact>
</mgrwt>
</event>
<event>
 6    1  0.1001928E-005  0.1707519E+04  0.7818608E-02  0.8757088E-01
         -1   -1    0    0    0  501 -0.00000000000E+00  0.00000000000E+00  0.66649265172E+03  0.66649265172E+03  0.00000000000E+00 0.  1.
          1   -1    0    0  501    0  0.00000000000E+00 -0.00000000000E+00 -0.10936432592E+04  0.10936432592E+04  0.00000000000E+00 0. -1.
         23    2    1    2    0    0  0.70582720711E+02 -0.50626231740E+03 -0.91583507734E+03  0.10529612751E+04  0.93220725044E+02 0.  0.
         13    1    3    3    0    0  0.86664202914E+02 -0.37032454432E+03 -0.62707466468E+03  0.73339865508E+03  0.00000000000E+00 0.  1.
        -13    1    3    3    0    0 -0.16081482203E+02 -0.13593777308E+03 -0.28876041265E+03  0.31956262005E+03  0.00000000000E+00 0. -1.
         22    1    1    2    0    0 -0.70582720711E+02  0.50626231740E+03  0.48868446982E+03  0.70717463581E+03  0.00000000000E+00 0.  1.
<mgrwt>
<rscale>  0 0.17075189E+04</rscale>
<asrwt>0</asrwt>
<pdfrwt beam="1">  1        1 0.16825281E+00 0.17075189E+04</pdfrwt>
<pdfrwt beam="2">  1       -1 0.10253733E+00 0.17075189E+04</pdfrwt>
<totfact> 0.10969856E+01</totfact>
</mgrwt>
</event>
<event>
 6    1  0.1001928E-005  0.3482432E+04  0.7818608E-02  0.8117966E-01
         -1   -1    0    0    0  501 -0.00000000000E+00  0.00000000000E+00  0.20954019024E+04  0.20954019024E+04  0.00000000000E+00 0.  1.
          1   -1    0    0  501    0  0.00000000000E+00 -0.00000000000E+00 -0.14468979522E+04  0.14468979522E+04  0.00000000000E+00 0. -1.
         23    2    1    2    0    0  0.57203113241E+03 -0.62979453225E+03 -0.12194137929E+04  0.14897459664E+04  0.92262000414E+02 0.  0.
         11    1    3    3    0    0  0.19984412198E+03 -0.15858166810E+03 -0.37838948270E+03  0.45635996665E+03  0.00000000000E+00 0. -1.
        -11    1    3    3    0    0  0.37218701043E+03 -0.47121286415E+03 -0.84102431022E+03  0.10333859997E+04  0.00000000000E+00 0.  1.
         22    1    1    2    0    0 -0.57203113241E+03  0.62979453225E+03  0.18679177431E+04  0.20525538882E+04  0.00000000000E+00 0.  1.
<mgrwt>
<rscale>  0 0.34824317E+04</rscale>
<asrwt>0</asrwt>
<pdfrwt beam="1">  1        1 0.22259969E+00 0.34824317E+04</pdfrwt>
<pdfrwt beam="2">  1       -1 0.32236952E+00 0.34824317E+04</pdfrwt>
<totfact> 0.13741548E-01</totfact>
</mgrwt>
</event>
<event>
 6    1  0.1001928E-005  0.7065489E+03  0.7818608E-02  0.9706098E-01
          2   -1    0    0  501    0  0.00000000000E+00  0.00000000000E+00  0.54292110475E+03  0.54292110475E+03  0.00000000000E+00 0. -1.
         -2   -1    0    0    0  501 -0.00000000000E+00 -0.00000000000E+00 -0.22987286621E+03  0.22987286621E+03  0.00000000000E+00 0.  1.
         23    2    1    2    0    0  0.73495277357E+02 -0.16369146254E+03  0.48454106200E+03  0.52458792913E+03  0.90642175180E+02 0.  0.
         11    1    3    3    0    0  0.75765412748E+02 -0.60617424177E+02  0.21021978051E+03  0.23153234331E+03  0.00000000000E+00 0. -1.
        -11    1    3    3    0    0 -0.22701353904E+01 -0.10307403836E+03  0.27432128149E+03  0.29305558582E+03  0.00000000000E+00 0.  1.
         22    1    1    2    0    0 -0.73495277357E+02  0.16369146254E+03 -0.17149282346E+03  0.24820604183E+03  0.00000000000E+00 0.  1.
<mgrwt>
<rscale>  0 0.70654888E+03</rscale>
<asrwt>0</asrwt>
<pdfrwt beam="1">  1        2 0.83526323E-01 0.70654888E+03</pdfrwt>
<pdfrwt beam="2">  1       -2 0.35365056E-01 0.70654888E+03</pdfrwt>
<totfact> 0.42279381E+02</totfact>
</mgrwt>
</event>
<event>
 6    1  0.1001928E-005  0.3023250E+04  0.7818608E-02  0.8237123E-01
         -1   -1    0    0    0  501 -0.00000000000E+00  0.00000000000E+00  0.12210731411E+04  0.12210731411E+04  0.00000000000E+00 0.  1.
          1   -1    0    0  501    0  0.00000000000E+00 -0.00000000000E+00 -0.18713126558E+04  0.18713126558E+04  0.00000000000E+00 0. -1.
         23    2    1    2    0    0  0.93027982620E+03  0.70460408457E+03 -0.13059208894E+04  0.17538023904E+04  0.92227893282E+02 0.  0.
         13    1    3    3    0    0  0.27024542585E+03  0.24427276939E+03 -0.36451979811E+03  0.51534110963E+03  0.00000000000E+00 0. -1.
        -13    1    3    3    0    0  0.66003440036E+03  0.46033131519E+03 -0.94140109126E+03  0.12384612808E+04  0.00000000000E+00 0.  1.
         22    1    1    2    0    0 -0.93027982620E+03 -0.70460408457E+03  0.65568137464E+03  0.13385834065E+04  0.00000000000E+00 0.  1.
<mgrwt>
<rscale>  0 0.30232497E+04</rscale>
<asrwt>0</asrwt>
<pdfrwt beam="1">  1        1 0.28789425E+00 0.30232497E+04</pdfrwt>
<pdfrwt beam="2">  1       -1 0.18785741E+00 0.30232497E+04</pdfrwt>
<totfact> 0.56624389E-01</totfact>
</mgrwt>
</event>
<event>
 6    1  0.1001928E-005  0.7232241E+03  0.7818608E-02  0.9678320E-01
          1   -1    0    0  501    0  0.00000000000E+00  0.00000000000E+00  0.27705714456E+04  0.27705714456E+04  0.00000000000E+00 0. -1.
         -1   -1    0    0    0  501 -0.00000000000E+00 -0.00000000000E+00 -0.47197228011E+02  0.47197228011E+02  0.00000000000E+00 0.  1.
         23    2    1    2    0    0 -0.19474969007E+03 -0.27372638346E+03  0.92599231630E+03  0.98926237779E+03  0.91239834915E+02 0.  0.
         13    1    3    3    0    0 -0.99007636598E+02 -0.80883590200E+02  0.42885480987E+03  0.44750543596E+03  0.00000000000E+00 0. -1.
        -13    1    3    3    0    0 -0.95742053472E+02 -0.19284279326E+03  0.49713750643E+03  0.54175694182E+03  0.00000000000E+00 0.  1.
         22    1    1    2    0    0  0.19474969007E+03  0.27372638346E+03  0.17973819013E+04  0.18285062958E+04  0.00000000000E+00 0. -1.
<mgrwt>
<rscale>  0 0.72322415E+03</rscale>
<asrwt>0</asrwt>
<pdfrwt beam="1">  1        1 0.42624163E+00 0.72322415E+03</pdfrwt>
<pdfrwt beam="2">  1       -1 0.72611142E-02 0.72322415E+03</pdfrwt>
<totfact> 0.96130616E+01</totfact>
</mgrwt>
</event>
<event>
 6    1  0.1001928E-005  0.3765525E+04  0.7818608E-02  0.8053594E-01
         -1   -1    0    0    0  501 -0.00000000000E+00  0.00000000000E+00  0.17145485555E+04  0.17145485555E+04  0.00000000000E+00 0.  1.
          1   -1    0    0  501    0  0.00000000000E+00 -0.00000000000E+00 -0.20674794483E+04  0.20674794483E+04  0.00000000000E+00 0. -1.
         23    2    1    2    0    0 -0.97139240799E+03  0.88868088727E+03  0.11737486048E+04  0.17660649045E+04  0.89120873155E+02 0.  0.
         11    1    3    3    0    0 -0.10126535713E+03  0.11370082942E+03  0.16911879647E+03  0.22756036228E+03  0.00000000000E+00 0.  1.
        -11    1    3    3    0    0 -0.87012705086E+03  0.77498005785E+03  0.10046298083E+04  0.15385045422E+04  0.00000000000E+00 0. -1.
         22    1    1    2    0    0  0.97139240799E+03 -0.88868088727E+03 -0.15266794975E+04  0.20159630993E+04  0.00000000000E+00 0. -1.
<mgrwt>
<rscale>  0 0.37655246E+04</rscale>
<asrwt>0</asrwt>
<pdfrwt beam="1">  1        1 0.31807376E+00 0.37655246E+04</pdfrwt>
<pdfrwt beam="2">  1       -1 0.26377670E+00 0.37655246E+04</pdfrwt>
<totfact> 0.12134466E-01</totfact>
</mgrwt>
</event>
<event>
 6    1  0.1204698E-005  0.4021849E+04  0.7818608E-02  0.8000153E-01
         -2   -1    0    0    0  501 -0.00000000000E+00  0.00000000000E+00  0.11325054860E+04  0.11325054860E+04  0.00000000000E+00 0.  1.
          2   -1    0    0  501    0  0.00000000000E+00 -0.00000000000E+00 -0.35706820150E+04  0.35706820150E+04  0.00000000000E+00 0. -1.
         23    2    1    2    0    0  0.11226332315E+04  0.14850947536E+04 -0.21056299210E+04  0.28120505291E+04  0.90216486111E+02 0.  0.
         11    1    3    3    0    0  0.52470389824E+03  0.68636126996E+03 -0.90981305970E+03  0.12546576335E+04  0.00000000000E+00 0.  1.
        -11    1    3    3    0    0  0.59792933328E+03  0.79873348366E+03 -0.11958168613E+04  0.15573928956E+04  0.00000000000E+00 0. -1.
         22    1    1    2    0    0 -0.11226332315E+04 -0.14850947536E+04 -0.33254660791E+03  0.18911369718E+04  0.00000000000E+00 0.  1.
<mgrwt>
<rscale>  0 0.40218488E+04</rscale>
<asrwt>0</asrwt>
<pdfrwt beam="1">  1        2 0.54933568E+00 0.40218488E+04</pdfrwt>
<pdfrwt beam="2">  1       -2 0.17423162E+00 0.40218488E+04</pdfrwt>
<totfact> 0.11328705E-01</totfact>
</mgrwt>
</event>
<event>
 6    1  0.1001928E-005  0.1743022E+04  0.7818608E-02  0.8737201E-01
         -1   -1    0    0    0  501 -0.00000000000E+00  0.00000000000E+00  0.75178656125E+03  0.75178656125E+03  0.00000000000E+00 0.  1.
          1   -1    0    0  501    0  0.00000000000E+00 -0.00000000000E+00 -0.10103019781E+04  0.10103019781E+04  0.00000000000E+00 0. -1.
         23    2    1    2    0    0  0.39614176508E+03  0.46879402595E+03 -0.75162402830E+03  0.97478158557E+03  0.92543626683E+02 0.  0.
         13    1    3    3    0    0  0.39083057475E+02  0.87027133636E+02 -0.15030535508E+03  0.17802501829E+03  0.00000000000E+00 0.  1.
        -13    1    3    3    0    0  0.35705870761E+03  0.38176689232E+03 -0.60131867322E+03  0.79675656729E+03  0.00000000000E+00 0. -1.
         22    1    1    2    0    0 -0.39614176508E+03 -0.46879402595E+03  0.49310861143E+03  0.78730695379E+03  0.00000000000E+00 0.  1.
<mgrwt>
<rscale>  0 0.17430220E+04</rscale>
<asrwt>0</asrwt>
<pdfrwt beam="1">  1        1 0.15543107E+00 0.17430220E+04</pdfrwt>
<pdfrwt beam="2">  1       -1 0.11565947E+00 0.17430220E+04</pdfrwt>
<totfact> 0.95366828E+00</totfact>
</mgrwt>
</event>
<event>
 6    1  0.1001928E-005  0.3976901E+04  0.7818608E-02  0.8009223E-01
          2   -1    0    0  501    0  0.00000000000E+00  0.00000000000E+00  0.48301673136E+04  0.48301673136E+04  0.00000000000E+00 0. -1.
         -2   -1    0    0    0  501 -0.00000000000E+00 -0.00000000000E+00 -0.81859176854E+03  0.81859176854E+03  0.00000000000E+00 0.  1.
         23    2    1    2    0    0 -0.14747587738E+04  0.12762842448E+04  0.14639870798E+04  0.24403292633E+04  0.90187742169E+02 0.  0.
         13    1    3    3    0    0 -0.11560220157E+04  0.10395900736E+04  0.11921353772E+04  0.19591633877E+04  0.00000000000E+00 0.  1.
        -13    1    3    3    0    0 -0.31873675808E+03  0.23669417120E+03  0.27185170260E+03  0.48116587560E+03  0.00000000000E+00 0. -1.
         22    1    1    2    0    0  0.14747587738E+04 -0.12762842448E+04  0.25475884652E+04  0.32084298188E+04  0.00000000000E+00 0. -1.
<mgrwt>
<rscale>  0 0.39769009E+04</rscale>
<asrwt>0</asrwt>
<pdfrwt beam="1">  1        2 0.74310265E+00 0.39769009E+04</pdfrwt>
<pdfrwt beam="2">  1       -2 0.12593720E+00 0.39769009E+04</pdfrwt>
<totfact> 0.20248517E-02</totfact>
</mgrwt>
</event>
<event>
 6    1  0.1001928E-005  0.2915588E+04  0.7818608E-02  0.8268255E-01
          2   -1    0    0  501    0  0.00000000000E+00  0.00000000000E+00  0.28169874044E+04  0.28169874044E+04  0.00000000000E+00 0. -1.
         -2   -1    0    0    0  501 -0.00000000000E+00 -0.00000000000E+00 -0.75440995960E+03  0.75440995960E+03  0.00000000000E+00 0.  1.
         23    2    1    2    0    0  0.15374738473E+03  0.42857109607E+03  0.27267268145E+04  0.27661608597E+04  0.96412332373E+02 0.  0.
         13    1    3    3    0    0  0.77548145837E+02  0.21449687505E+03  0.16523016027E+04  0.16679697871E+04  0.00000000000E+00 0. -1.
        -13    1    3    3    0    0  0.76199238894E+02  0.21407422102E+03  0.10744252118E+04  0.10981910726E+04  0.00000000000E+00 0.  1.
         22    1    1    2    0    0 -0.15374738473E+03 -0.42857109607E+03 -0.66414936969E+03  0.80523650436E+03  0.00000000000E+00 0.  1.
<mgrwt>
<rscale>  0 0.29155880E+04</rscale>
<asrwt>0</asrwt>
<pdfrwt beam="1">  1        2 0.43338267E+00 0.29155880E+04</pdfrwt>
<pdfrwt beam="2">  1       -2 0.11606307E+00 0.29155880E+04</pdfrwt>
<totfact> 0.11217132E+00</totfact>
</mgrwt>
</event>
<event>
 6    1  0.1001928E-005  0.2143804E+04  0.7818608E-02  0.8542189E-01
          1   -1    0    0  501    0  0.00000000000E+00  0.00000000000E+00  0.86329839904E+03  0.86329839904E+03  0.00000000000E+00 0. -1.
         -1   -1    0    0    0  501 -0.00000000000E+00 -0.00000000000E+00 -0.13309121157E+04  0.13309121157E+04  0.00000000000E+00 0.  1.
         23    2    1    2    0    0  0.53578791511E+03 -0.60438008229E+03 -0.95232431895E+03  0.12522506739E+04  0.94160331069E+02 0.  0.
         13    1    3    3    0    0  0.14857648148E+03 -0.23450447688E+03 -0.31816439411E+03  0.42225099432E+03  0.00000000000E+00 0.  1.
        -13    1    3    3    0    0  0.38721143363E+03 -0.36987560541E+03 -0.63415992484E+03  0.82999967957E+03  0.00000000000E+00 0. -1.
         22    1    1    2    0    0 -0.53578791511E+03  0.60438008229E+03  0.48471060227E+03  0.94195984087E+03  0.00000000000E+00 0. -1.
<mgrwt>
<rscale>  0 0.21438044E+04</rscale>
<asrwt>0</asrwt>
<pdfrwt beam="1">  1        1 0.13281514E+00 0.21438044E+04</pdfrwt>
<pdfrwt beam="2">  1       -1 0.20475571E+00 0.21438044E+04</pdfrwt>
<totfact> 0.24959911E+00</totfact>
</mgrwt>
</event>
<event>
 6    1  0.1001928E-005  0.1429035E+04  0.7818608E-02  0.8933066E-01
         -2   -1    0    0    0  501 -0.00000000000E+00  0.00000000000E+00  0.46533208286E+03  0.46533208286E+03  0.00000000000E+00 0.  1.
          2   -1    0    0  501    0  0.00000000000E+00 -0.00000000000E+00 -0.10971412103E+04  0.10971412103E+04  0.00000000000E+00 0. -1.
         23    2    1    2    0    0  0.31590728350E+03 -0.39928200844E+03 -0.86079677982E+03  0.10042091272E+04  0.90781832119E+02 0.  0.
         11    1    3    3    0    0  0.93229791965E+02 -0.61419971194E+02 -0.21115324223E+03  0.23885120614E+03  0.00000000000E+00 0. -1.
        -11    1    3    3    0    0  0.22267749154E+03 -0.33786203725E+03 -0.64964353759E+03  0.76535792110E+03  0.00000000000E+00 0.  1.
         22    1    1    2    0    0 -0.31590728350E+03  0.39928200844E+03  0.22898765236E+03  0.55826416594E+03  0.00000000000E+00 0.  1.
<mgrwt>
<rscale>  0 0.14290346E+04</rscale>
<asrwt>0</asrwt>
<pdfrwt beam="1">  1        2 0.16879096E+00 0.14290346E+04</pdfrwt>
<pdfrwt beam="2">  1       -2 0.71589551E-01 0.14290346E+04</pdfrwt>
<totfact> 0.37604966E+01</totfact>
</mgrwt>
</event>
<event>
 6    1  0.1001928E-005  0.2270738E+04  0.7818608E-02  0.8489549E-01
          1   -1    0    0  501    0  0.00000000000E+00  0.00000000000E+00  0.39962161828E+04  0.39962161828E+04  0.00000000000E+00 0. -1.
         -1   -1    0    0    0  501 -0.00000000000E+00 -0.00000000000E+00 -0.32257087446E+03  0.32257087446E+03  0.00000000000E+00 0.  1.
         23    2    1    2    0    0  0.93775530479E+03 -0.48025434521E+03  0.10445550372E+04  0.14864479353E+04  0.91667829319E+02 0.  0.
         11    1    3    3    0    0  0.31454881540E+03 -0.11399096634E+03  0.31983001078E+03  0.46284569078E+03  0.00000000000E+00 0. -1.
        -11    1    3    3    0    0  0.62320648939E+03 -0.36626337887E+03  0.72472502637E+03  0.10236022445E+04  0.00000000000E+00 0.  1.
         22    1    1    2    0    0 -0.93775530479E+03  0.48025434521E+03  0.26290902712E+04  0.28323391220E+04  0.00000000000E+00 0. -1.
<mgrwt>
<rscale>  0 0.22707382E+04</rscale>
<asrwt>0</asrwt>
<pdfrwt beam="1">  1        1 0.61480246E+00 0.22707382E+04</pdfrwt>
<pdfrwt beam="2">  1       -1 0.49626291E-01 0.22707382E+04</pdfrwt>
<totfact> 0.35845401E-01</totfact>
</mgrwt>
</event>
<event>
 6    1  0.1001928E-005  0.9497623E+03  0.7818608E-02  0.9365428E-01
         -2   -1    0    0    0  501 -0.00000000000E+00  0.00000000000E+00  0.14559920836E+03  0.14559920836E+03  0.00000000000E+00 0.  1.
          2   -1    0    0  501    0  0.00000000000E+00 -0.00000000000E+00 -0.15488552606E+04  0.15488552606E+04  0.00000000000E+00 0. -1.
         23    2    1    2    0    0  0.17908962655E+03  0.33475640453E+03 -0.12042063604E+04  0.12657870868E+04  0.89269512955E+02 0.  0.
         13    1    3    3    0    0  0.55174358974E+02  0.40126099470E+02 -0.26690925926E+03  0.27549022928E+03  0.00000000000E+00 0. -1.
        -13    1    3    3    0    0  0.12391526757E+03  0.29463030506E+03 -0.93729710111E+03  0.99029685749E+03  0.00000000000E+00 0.  1.
         22    1    1    2    0    0 -0.17908962655E+03 -0.33475640453E+03 -0.19904969184E+03  0.42866738216E+03  0.00000000000E+00 0.  1.
<mgrwt>
<rscale>  0 0.94976229E+03</rscale>
<asrwt>0</asrwt>
<pdfrwt beam="1">  1        2 0.23828543E+00 0.94976229E+03</pdfrwt>
<pdfrwt beam="2">  1       -2 0.22399878E-01 0.94976229E+03</pdfrwt>
<totfact> 0.20840038E+02</totfact>
</mgrwt>
</event>
<event>
 6    1  0.1001928E-005  0.2250195E+04  0.7818608E-02  0.8497822E-01
          1   -1    0    0  501    0  0.00000000000E+00  0.00000000000E+00  0.12179415809E+04  0.12179415809E+04  0.00000000000E+00 0. -1.
         -1   -1    0    0    0  501 -0.00000000000E+00 -0.00000000000E+00 -0.10393308437E+04  0.10393308437E+04  0.00000000000E+00 0.  1.
         23    2    1    2    0    0  0.25328410538E+03 -0.34582547613E+03  0.11317656019E+04  0.12121636770E+04  0.68551470803E+02 0.  0.
         11    1    3    3    0    0  0.16423997914E+03 -0.27199678066E+03  0.85927384356E+03  0.91613784862E+03  0.00000000000E+00 0.  1.
        -11    1    3    3    0    0  0.89044126234E+02 -0.73828695470E+02  0.27249175837E+03  0.29602582839E+03  0.00000000000E+00 0. -1.
         22    1    1    2    0    0 -0.25328410538E+03  0.34582547613E+03 -0.95315486474E+03  0.10451087475E+04  0.00000000000E+00 0.  1.
<mgrwt>
<rscale>  0 0.22501949E+04</rscale>
<asrwt>0</asrwt>
<pdfrwt beam="1">  1        1 0.18737563E+00 0.22501949E+04</pdfrwt>
<pdfrwt beam="2">  1       -1 0.15989705E+00 0.22501949E+04</pdfrwt>
<totfact> 0.27556415E+00</totfact>
</mgrwt>
</event>
<event>
 6    1  0.1001928E-005  0.2065725E+04  0.7818608E-02  0.8576494E-01
         -2   -1    0    0    0  501 -0.00000000000E+00  0.00000000000E+00  0.14409358631E+04  0.14409358631E+04  0.00000000000E+00 0.  1.
          2   -1    0    0  501    0  0.00000000000E+00 -0.00000000000E+00 -0.74035554769E+03  0.74035554769E+03  0.00000000000E+00 0. -1.
         23    2    1    2    0    0  0.78103484188E+02 -0.38423707028E+03  0.13576761069E+04  0.14161030944E+04  0.91242985183E+02 0.  0.
         11    1    3    3    0    0  0.69308274132E+02 -0.28912775290E+03  0.11448340401E+04  0.11828116814E+04  0.00000000000E+00 0. -1.
        -11    1    3    3    0    0  0.87952100558E+01 -0.95109317379E+02  0.21284206682E+03  0.23329141300E+03  0.00000000000E+00 0.  1.
         22    1    1    2    0    0 -0.78103484188E+02  0.38423707028E+03 -0.65709579145E+03  0.76518831641E+03  0.00000000000E+00 0. -1.
<mgrwt>
<rscale>  0 0.20657249E+04</rscale>
<asrwt>0</asrwt>
<pdfrwt beam="1">  1        2 0.11390085E+00 0.20657249E+04</pdfrwt>
<pdfrwt beam="2">  1       -2 0.22168244E+00 0.20657249E+04</pdfrwt>
<totfact> 0.33970629E+00</totfact>
</mgrwt>
</event>
<event>
 6    1  0.1001928E-005  0.1954363E+04  0.7818608E-02  0.8628260E-01
         -2   -1    0    0    0  501 -0.00000000000E+00  0.00000000000E+00  0.58966941188E+03  0.58966941188E+03  0.00000000000E+00 0.  1.
          2   -1    0    0  501    0  0.00000000000E+00 -0.00000000000E+00 -0.16193548877E+04  0.16193548877E+04  0.00000000000E+00 0. -1.
         23    2    1    2    0    0  0.43145605240E+03 -0.81703672398E+03 -0.16302562091E+03  0.94221624877E+03  0.86549251218E+02 0.  0.
         13    1    3    3    0    0  0.25338133848E+03 -0.39369397142E+03 -0.98508580426E+02  0.47843597925E+03  0.00000000000E+00 0.  1.
        -13    1    3    3    0    0  0.17807471392E+03 -0.42334275256E+03 -0.64517040488E+02  0.46378026952E+03  0.00000000000E+00 0. -1.
         22    1    1    2    0    0 -0.43145605240E+03  0.81703672398E+03 -0.86665985492E+03  0.12668080508E+04  0.00000000000E+00 0. -1.
<mgrwt>
<rscale>  0 0.19543634E+04</rscale>
<asrwt>0</asrwt>
<pdfrwt beam="1">  1        2 0.24913152E+00 0.19543634E+04</pdfrwt>
<pdfrwt beam="2">  1       -2 0.90718372E-01 0.19543634E+04</pdfrwt>
<totfact> 0.10524109E+01</totfact>
</mgrwt>
</event>
<event>
 6    1  0.1001928E-005  0.3367656E+04  0.7818608E-02  0.8145890E-01
          1   -1    0    0  501    0  0.00000000000E+00  0.00000000000E+00  0.14134105468E+04  0.14134105468E+04  0.00000000000E+00 0. -1.
         -1   -1    0    0    0  501 -0.00000000000E+00 -0.00000000000E+00 -0.20059828406E+04  0.20059828406E+04  0.00000000000E+00 0.  1.
         23    2    1    2    0    0 -0.16332143750E+04  0.22888643160E+03 -0.63569640896E+03  0.17696546559E+04  0.88258051067E+02 0.  0.
         13    1    3    3    0    0 -0.38692521239E+03  0.25571122948E+02 -0.12342380605E+03  0.40693788004E+03  0.00000000000E+00 0. -1.
        -13    1    3    3    0    0 -0.12462891626E+04  0.20331530865E+03 -0.51227260291E+03  0.13627167758E+04  0.00000000000E+00 0.  1.
         22    1    1    2    0    0  0.16332143750E+04 -0.22888643160E+03  0.43124115193E+02  0.16497387316E+04  0.00000000000E+00 0. -1.
<mgrwt>
<rscale>  0 0.33676563E+04</rscale>
<asrwt>0</asrwt>
<pdfrwt beam="1">  1        1 0.21744778E+00 0.33676563E+04</pdfrwt>
<pdfrwt beam="2">  1       -1 0.30861274E+00 0.33676563E+04</pdfrwt>
<totfact> 0.18002744E-01</totfact>
</mgrwt>
</event>
<event>
 6    1  0.1001928E-005  0.1810423E+04  0.7818608E-02  0.8700776E-01
          1   -1    0    0  501    0  0.00000000000E+00  0.00000000000E+00  0.11683597875E+04  0.11683597875E+04  0.00000000000E+00 0. -1.
         -1   -1    0    0    0  501 -0.00000000000E+00 -0.00000000000E+00 -0.70133181401E+03  0.70133181401E+03  0.00000000000E+00 0.  1.
         23    2    1    2    0    0  0.18331791874E+03 -0.66931385881E+02 -0.67631511661E+03  0.70981286154E+03  0.91361325042E+02 0.  0.
         11    1    3    3    0    0  0.77106151002E+02 -0.40666419635E+02 -0.16175504918E+03  0.18374931875E+03  0.00000000000E+00 0.  1.
        -11    1    3    3    0    0  0.10621176773E+03 -0.26264966247E+02 -0.51456006743E+03  0.52606354279E+03  0.00000000000E+00 0. -1.
         22    1    1    2    0    0 -0.18331791874E+03  0.66931385881E+02  0.11433430901E+04  0.11598787400E+04  0.00000000000E+00 0. -1.
<mgrwt>
<rscale>  0 0.18104230E+04</rscale>
<asrwt>0</asrwt>
<pdfrwt beam="1">  1        1 0.17974766E+00 0.18104230E+04</pdfrwt>
<pdfrwt beam="2">  1       -1 0.10789720E+00 0.18104230E+04</pdfrwt>
<totfact> 0.84907351E+00</totfact>
</mgrwt>
</event>
<event>
 6    1  0.1001928E-005  0.3137037E+04  0.7818608E-02  0.8205646E-01
          1   -1    0    0  501    0  0.00000000000E+00  0.00000000000E+00  0.18570360428E+04  0.18570360428E+04  0.00000000000E+00 0. -1.
         -1   -1    0    0    0  501 -0.00000000000E+00 -0.00000000000E+00 -0.13248259946E+04  0.13248259946E+04  0.00000000000E+00 0.  1.
         23    2    1    2    0    0 -0.10746282788E+04  0.11052879639E+04  0.55273902415E+03  0.16401393452E+04  0.89717456670E+02 0.  0.
         13    1    3    3    0    0 -0.40713569300E+03  0.48189509791E+03  0.22867612631E+03  0.67102543070E+03  0.00000000000E+00 0.  1.
        -13    1    3    3    0    0 -0.66749258582E+03  0.62339286597E+03  0.32406289784E+03  0.96911391447E+03  0.00000000000E+00 0. -1.
         22    1    1    2    0    0  0.10746282788E+04 -0.11052879639E+04 -0.20528975977E+02  0.15417226922E+04  0.00000000000E+00 0.  1.
<mgrwt>
<rscale>  0 0.31370366E+04</rscale>
<asrwt>0</asrwt>
<pdfrwt beam="1">  1        1 0.28569785E+00 0.31370366E+04</pdfrwt>
<pdfrwt beam="2">  1       -1 0.20381938E+00 0.31370366E+04</pdfrwt>
<totfact> 0.44405271E-01</totfact>
</mgrwt>
</event>
<event>
 6    1  0.1001928E-005  0.1461070E+04  0.7818608E-02  0.8910762E-01
         -3   -1    0    0    0  501 -0.00000000000E+00  0.00000000000E+00  0.48781270221E+03  0.48781270221E+03  0.00000000000E+00 0.  1.
          3   -1    0    0  501    0  0.00000000000E+00 -0.00000000000E+00 -0.10940288309E+04  0.10940288309E+04  0.00000000000E+00 0. -1.
         23    2    1    2    0    0  0.40851764823E+03  0.21278515617E+03  0.30558173298E+03  0.56030370603E+03  0.91628903019E+02 0.  0.
         11    1    3    3    0    0  0.33769102951E+03  0.14204584396E+03  0.21198723574E+03  0.42326214255E+03  0.00000000000E+00 0. -1.
        -11    1    3    3    0    0  0.70826618723E+02  0.70739312203E+02  0.93594497232E+02  0.13704156349E+03  0.00000000000E+00 0.  1.
         22    1    1    2    0    0 -0.40851764823E+03 -0.21278515617E+03 -0.91179786167E+03  0.10215378271E+04  0.00000000000E+00 0. -1.
<mgrwt>
<rscale>  0 0.14610697E+04</rscale>
<asrwt>0</asrwt>
<pdfrwt beam="1">  1        3 0.16831213E+00 0.14610697E+04</pdfrwt>
<pdfrwt beam="2">  1       -3 0.75048109E-01 0.14610697E+04</pdfrwt>
<totfact> 0.10148629E+00</totfact>
</mgrwt>
</event>
<event>
 6    1  0.1001928E-005  0.1727645E+04  0.7818608E-02  0.8745752E-01
          1   -1    0    0  501    0  0.00000000000E+00  0.00000000000E+00  0.70699581143E+03  0.70699581143E+03  0.00000000000E+00 0. -1.
         -1   -1    0    0    0  501 -0.00000000000E+00 -0.00000000000E+00 -0.10554371532E+04  0.10554371532E+04  0.00000000000E+00 0.  1.
         23    2    1    2    0    0 -0.56851592143E+03 -0.26952725824E+03  0.42537436124E+03  0.76511353831E+03  0.92736634888E+02 0.  0.
         13    1    3    3    0    0 -0.34006800441E+03 -0.11548482671E+03  0.26477856733E+03  0.44619578947E+03  0.00000000000E+00 0. -1.
        -13    1    3    3    0    0 -0.22844791702E+03 -0.15404243154E+03  0.16059579392E+03  0.31891774884E+03  0.00000000000E+00 0.  1.
         22    1    1    2    0    0  0.56851592143E+03  0.26952725824E+03 -0.77381570301E+03  0.99731942630E+03  0.00000000000E+00 0.  1.
<mgrwt>
<rscale>  0 0.17276454E+04</rscale>
<asrwt>0</asrwt>
<pdfrwt beam="1">  1        1 0.10876859E+00 0.17276454E+04</pdfrwt>
<pdfrwt beam="2">  1       -1 0.16237495E+00 0.17276454E+04</pdfrwt>
<totfact> 0.71437463E+00</totfact>
</mgrwt>
</event>
<event>
 6    1  0.1001928E-005  0.2034661E+04  0.7818608E-02  0.8590585E-01
          2   -1    0    0  501    0  0.00000000000E+00  0.00000000000E+00  0.37597064878E+04  0.37597064878E+04  0.00000000000E+00 0. -1.
         -2   -1    0    0    0  501 -0.00000000000E+00 -0.00000000000E+00 -0.27527712308E+03  0.27527712308E+03  0.00000000000E+00 0.  1.
         23    2    1    2    0    0  0.45958149961E+03  0.87596458187E+03  0.21999073167E+04  0.24137106557E+04  0.88757104995E+02 0.  0.
         11    1    3    3    0    0  0.13687961689E+02  0.33365770068E+02  0.47501163769E+02  0.59640552201E+02  0.00000000000E+00 0. -1.
        -11    1    3    3    0    0  0.44589353792E+03  0.84259881181E+03  0.21524061529E+04  0.23540701035E+04  0.00000000000E+00 0.  1.
         22    1    1    2    0    0 -0.45958149961E+03 -0.87596458187E+03  0.12845220481E+04  0.16212729553E+04  0.00000000000E+00 0.  1.
<mgrwt>
<rscale>  0 0.20346608E+04</rscale>
<asrwt>0</asrwt>
<pdfrwt beam="1">  1        2 0.57841635E+00 0.20346608E+04</pdfrwt>
<pdfrwt beam="2">  1       -2 0.42350329E-01 0.20346608E+04</pdfrwt>
<totfact> 0.25988367E+00</totfact>
</mgrwt>
</event>
<event>
 6    1  0.1001928E-005  0.1321627E+04  0.7818608E-02  0.9012588E-01
         -1   -1    0    0    0  501 -0.00000000000E+00  0.00000000000E+00  0.57824337329E+03  0.57824337329E+03  0.00000000000E+00 0.  1.
          1   -1    0    0  501    0  0.00000000000E+00 -0.00000000000E+00 -0.75517465590E+03  0.75517465590E+03  0.00000000000E+00 0. -1.
         23    2    1    2    0    0 -0.65380337164E+01  0.49069608831E+03  0.35284691560E+03  0.61127515118E+03  0.91274134564E+02 0.  0.
         11    1    3    3    0    0  0.30807659329E+02  0.38124060155E+03  0.28705402822E+03  0.47821911637E+03  0.00000000000E+00 0.  1.
        -11    1    3    3    0    0 -0.37345693045E+02  0.10945548676E+03  0.65792887370E+02  0.13305603481E+03  0.00000000000E+00 0. -1.
         22    1    1    2    0    0  0.65380337164E+01 -0.49069608831E+03 -0.52977819820E+03  0.72214287801E+03  0.00000000000E+00 0. -1.
<mgrwt>
<rscale>  0 0.13216274E+04</rscale>
<asrwt>0</asrwt>
<pdfrwt beam="1">  1        1 0.11618072E+00 0.13216274E+04</pdfrwt>
<pdfrwt beam="2">  1       -1 0.88960518E-01 0.13216274E+04</pdfrwt>
<totfact> 0.29469806E+01</totfact>
</mgrwt>
</event>
<event>
 6    1  0.1001928E-005  0.1735122E+04  0.7818608E-02  0.8741583E-01
          2   -1    0    0  501    0  0.00000000000E+00  0.00000000000E+00  0.16943902336E+04  0.16943902336E+04  0.00000000000E+00 0.  1.
         -2   -1    0    0    0  501 -0.00000000000E+00 -0.00000000000E+00 -0.44420832755E+03  0.44420832755E+03  0.00000000000E+00 0. -1.
         23    2    1    2    0    0  0.43936634884E+03  0.74299077791E+03  0.55829635740E+03  0.10323509863E+04  0.94739915431E+02 0.  0.
         13    1    3    3    0    0  0.19918038899E+03  0.42280719904E+03  0.32180170813E+03  0.56744611574E+03  0.00000000000E+00 0. -1.
        -13    1    3    3    0    0  0.24018595985E+03  0.32018357888E+03  0.23649464926E+03  0.46490487051E+03  0.00000000000E+00 0.  1.
         22    1    1    2    0    0 -0.43936634884E+03 -0.74299077791E+03  0.69188554870E+03  0.11062475749E+04  0.00000000000E+00 0.  1.
<mgrwt>
<rscale>  0 0.17351222E+04</rscale>
<asrwt>0</asrwt>
<pdfrwt beam="1">  1        2 0.26067542E+00 0.17351222E+04</pdfrwt>
<pdfrwt beam="2">  1       -2 0.68339744E-01 0.17351222E+04</pdfrwt>
<totfact> 0.18358685E+01</totfact>
</mgrwt>
</event>
<event>
 6    1  0.1001928E-005  0.1971794E+04  0.7818608E-02  0.8619923E-01
          1   -1    0    0  501    0  0.00000000000E+00  0.00000000000E+00  0.22898530971E+04  0.22898530971E+04  0.00000000000E+00 0. -1.
         -1   -1    0    0    0  501 -0.00000000000E+00 -0.00000000000E+00 -0.42447832721E+03  0.42447832721E+03  0.00000000000E+00 0.  1.
         23    2    1    2    0    0 -0.59108890004E+03  0.44801163028E+03  0.18244034216E+04  0.19715130347E+04  0.91188225849E+02 0.  0.
         11    1    3    3    0    0 -0.49013246066E+03  0.40664179297E+03  0.15139853596E+04  0.16424795420E+04  0.00000000000E+00 0. -1.
        -11    1    3    3    0    0 -0.10095643939E+03  0.41369837307E+02  0.31041806196E+03  0.32903349265E+03  0.00000000000E+00 0.  1.
         22    1    1    2    0    0  0.59108890004E+03 -0.44801163028E+03  0.40971348313E+02  0.74281838965E+03  0.00000000000E+00 0.  1.
<mgrwt>
<rscale>  0 0.19717941E+04</rscale>
<asrwt>0</asrwt>
<pdfrwt beam="1">  1        1 0.35228508E+00 0.19717941E+04</pdfrwt>
<pdfrwt beam="2">  1       -1 0.65304360E-01 0.19717941E+04</pdfrwt>
<totfact> 0.41813464E+00</totfact>
</mgrwt>
</event>
<event>
 6    1  0.1001928E-005  0.2461690E+04  0.7818608E-02  0.8416762E-01
          1   -1    0    0  501    0  0.00000000000E+00  0.00000000000E+00  0.14382683569E+04  0.14382683569E+04  0.00000000000E+00 0. -1.
         -1   -1    0    0    0  501 -0.00000000000E+00 -0.00000000000E+00 -0.10533359858E+04  0.10533359858E+04  0.00000000000E+00 0.  1.
         23    2    1    2    0    0  0.62544418923E+03  0.41565181155E+03  0.11776173864E+04  0.13996810873E+04  0.91529094486E+02 0.  0.
         13    1    3    3    0    0  0.71562403329E+02  0.32730637804E+02  0.17565980605E+03  0.19248075146E+03  0.00000000000E+00 0.  1.
        -13    1    3    3    0    0  0.55388178590E+03  0.38292117374E+03  0.10019575803E+04  0.12072003358E+04  0.00000000000E+00 0. -1.
         22    1    1    2    0    0 -0.62544418923E+03 -0.41565181155E+03 -0.79268501526E+03  0.10919232554E+04  0.00000000000E+00 0.  1.
<mgrwt>
<rscale>  0 0.24616903E+04</rscale>
<asrwt>0</asrwt>
<pdfrwt beam="1">  1        1 0.22127205E+00 0.24616903E+04</pdfrwt>
<pdfrwt beam="2">  1       -1 0.16205169E+00 0.24616903E+04</pdfrwt>
<totfact> 0.18154837E+00</totfact>
</mgrwt>
</event>
<event>
 6    1  0.1001928E-005  0.3335767E+04  0.7818608E-02  0.8153854E-01
         -1   -1    0    0    0  501 -0.00000000000E+00  0.00000000000E+00  0.98340382779E+03  0.98340382779E+03  0.00000000000E+00 0.  1.
          1   -1    0    0  501    0  0.00000000000E+00 -0.00000000000E+00 -0.28287831655E+04  0.28287831655E+04  0.00000000000E+00 0. -1.
         23    2    1    2    0    0 -0.10181957446E+04  0.11966670604E+04 -0.28974942165E+03  0.16011422033E+04  0.10472344572E+03 0.  0.
         13    1    3    3    0    0 -0.87642732593E+03  0.10488265421E+04 -0.21784620802E+03  0.13840588656E+04  0.00000000000E+00 0.  1.
        -13    1    3    3    0    0 -0.14176841866E+03  0.14784051824E+03 -0.71903213634E+02  0.21708333767E+03  0.00000000000E+00 0. -1.
         22    1    1    2    0    0  0.10181957446E+04 -0.11966670604E+04 -0.15556299160E+04  0.22110447900E+04  0.00000000000E+00 0.  1.
<mgrwt>
<rscale>  0 0.33357675E+04</rscale>
<asrwt>0</asrwt>
<pdfrwt beam="1">  1        1 0.43519741E+00 0.33357675E+04</pdfrwt>
<pdfrwt beam="2">  1       -1 0.15129290E+00 0.33357675E+04</pdfrwt>
<totfact> 0.22398018E-01</totfact>
</mgrwt>
</event>
<event>
 6    1  0.1001928E-005  0.3077563E+04  0.7818608E-02  0.8221923E-01
          2   -1    0    0  501    0  0.00000000000E+00  0.00000000000E+00  0.11103571817E+04  0.11103571817E+04  0.00000000000E+00 0. -1.
         -2   -1    0    0    0  501 -0.00000000000E+00 -0.00000000000E+00 -0.21325111090E+04  0.21325111090E+04  0.00000000000E+00 0.  1.
         23    2    1    2    0    0 -0.10312732774E+04 -0.80454118873E+03 -0.13628806742E+04  0.18912374931E+04  0.92327818886E+02 0.  0.
         13    1    3    3    0    0 -0.11951190724E+03 -0.11740642077E+03 -0.14093334655E+03  0.21892823432E+03  0.00000000000E+00 0.  1.
        -13    1    3    3    0    0 -0.91176137012E+03 -0.68713476796E+03 -0.12219473277E+04  0.16723092588E+04  0.00000000000E+00 0. -1.
         22    1    1    2    0    0  0.10312732774E+04  0.80454118873E+03  0.34072674692E+03  0.13516307976E+04  0.00000000000E+00 0. -1.
<mgrwt>
<rscale>  0 0.30775633E+04</rscale>
<asrwt>0</asrwt>
<pdfrwt beam="1">  1        2 0.17082418E+00 0.30775633E+04</pdfrwt>
<pdfrwt beam="2">  1       -2 0.32807863E+00 0.30775633E+04</pdfrwt>
<totfact> 0.38955021E-01</totfact>
</mgrwt>
</event>
<event>
 6    1  0.1001928E-005  0.2025469E+04  0.7818608E-02  0.8594805E-01
         -2   -1    0    0    0  501 -0.00000000000E+00  0.00000000000E+00  0.36223217838E+03  0.36223217838E+03  0.00000000000E+00 0.  1.
          2   -1    0    0  501    0  0.00000000000E+00 -0.00000000000E+00 -0.28314187561E+04  0.28314187561E+04  0.00000000000E+00 0. -1.
         23    2    1    2    0    0  0.83096948966E+03  0.56925090047E+03 -0.13681646009E+04  0.17014022039E+04  0.91313766110E+02 0.  0.
         11    1    3    3    0    0  0.50876210239E+03  0.33622822579E+03 -0.75391452925E+03  0.96967799504E+03  0.00000000000E+00 0.  1.
        -11    1    3    3    0    0  0.32220738727E+03  0.23302267468E+03 -0.61425007167E+03  0.73172420889E+03  0.00000000000E+00 0. -1.
         22    1    1    2    0    0 -0.83096948966E+03 -0.56925090047E+03 -0.11010219768E+04  0.14922487305E+04  0.00000000000E+00 0. -1.
<mgrwt>
<rscale>  0 0.20254688E+04</rscale>
<asrwt>0</asrwt>
<pdfrwt beam="1">  1        2 0.43560291E+00 0.20254688E+04</pdfrwt>
<pdfrwt beam="2">  1       -2 0.55728025E-01 0.20254688E+04</pdfrwt>
<totfact> 0.62159204E+00</totfact>
</mgrwt>
</event>
<event>
 6    1  0.1001928E-005  0.1483402E+04  0.7818608E-02  0.8895566E-01
         -1   -1    0    0    0  501 -0.00000000000E+00  0.00000000000E+00  0.12238706446E+04  0.12238706446E+04  0.00000000000E+00 0.  1.
          1   -1    0    0  501    0  0.00000000000E+00 -0.00000000000E+00 -0.44949212236E+03  0.44949212236E+03  0.00000000000E+00 0. -1.
         23    2    1    2    0    0  0.49807790323E+03 -0.14045889147E+03  0.98352494917E+03  0.11151938626E+04  0.92334866678E+02 0.  0.
         13    1    3    3    0    0  0.36096381329E+01 -0.13828365073E+02  0.39614450573E+02  0.42113630362E+02  0.00000000000E+00 0.  1.
        -13    1    3    3    0    0  0.49446826510E+03 -0.12663052640E+03  0.94391049860E+03  0.10730802322E+04  0.00000000000E+00 0. -1.
         22    1    1    2    0    0 -0.49807790323E+03  0.14045889147E+03 -0.20914642695E+03  0.55816890436E+03  0.00000000000E+00 0. -1.
<mgrwt>
<rscale>  0 0.14834018E+04</rscale>
<asrwt>0</asrwt>
<pdfrwt beam="1">  1        1 0.69152635E-01 0.14834018E+04</pdfrwt>
<pdfrwt beam="2">  1       -1 0.18828779E+00 0.14834018E+04</pdfrwt>
<totfact> 0.90229632E+00</totfact>
</mgrwt>
</event>
<event>
 6    1  0.1001928E-005  0.2356226E+04  0.7818608E-02  0.8456076E-01
         -2   -1    0    0    0  501 -0.00000000000E+00  0.00000000000E+00  0.34028193694E+03  0.34028193694E+03  0.00000000000E+00 0.  1.
          2   -1    0    0  501    0  0.00000000000E+00 -0.00000000000E+00 -0.40788231770E+04  0.40788231770E+04  0.00000000000E+00 0. -1.
         23    2    1    2    0    0 -0.35320130279E+03  0.81822336417E+03 -0.33118548559E+04  0.34310252061E+04  0.96492196838E+02 0.  0.
         13    1    3    3    0    0 -0.98770792459E+02  0.25320701484E+03 -0.85075695297E+03  0.89311637250E+03  0.00000000000E+00 0. -1.
        -13    1    3    3    0    0 -0.25443051033E+03  0.56501634933E+03 -0.24610979030E+04  0.25379088336E+04  0.00000000000E+00 0.  1.
         22    1    1    2    0    0  0.35320130279E+03 -0.81822336417E+03 -0.42668638417E+03  0.98807990790E+03  0.00000000000E+00 0.  1.
<mgrwt>
<rscale>  0 0.23562257E+04</rscale>
<asrwt>0</asrwt>
<pdfrwt beam="1">  1        2 0.62751124E+00 0.23562257E+04</pdfrwt>
<pdfrwt beam="2">  1       -2 0.52351069E-01 0.23562257E+04</pdfrwt>
<totfact> 0.92121599E-01</totfact>
</mgrwt>
</event>
<event>
 6    1  0.1001928E-005  0.3704908E+04  0.7818608E-02  0.8066875E-01
         -1   -1    0    0    0  501 -0.00000000000E+00  0.00000000000E+00  0.16910985899E+04  0.16910985899E+04  0.00000000000E+00 0.  1.
          1   -1    0    0  501    0  0.00000000000E+00 -0.00000000000E+00 -0.20292050436E+04  0.20292050436E+04  0.00000000000E+00 0. -1.
         23    2    1    2    0    0  0.17246308424E+04 -0.82500101856E+01 -0.84509357233E+03  0.19226786604E+04  0.89947094731E+02 0.  0.
         13    1    3    3    0    0  0.96200391964E+03 -0.48259767274E+02 -0.48190227377E+03  0.10770377654E+04  0.00000000000E+00 0. -1.
        -13    1    3    3    0    0  0.76262692279E+03  0.40009757088E+02 -0.36319129856E+03  0.84564089505E+03  0.00000000000E+00 0.  1.
         22    1    1    2    0    0 -0.17246308424E+04  0.82500101856E+01  0.50698711867E+03  0.17976249731E+04  0.00000000000E+00 0.  1.
<mgrwt>
<rscale>  0 0.37049080E+04</rscale>
<asrwt>0</asrwt>
<pdfrwt beam="1">  1        1 0.31218539E+00 0.37049080E+04</pdfrwt>
<pdfrwt beam="2">  1       -1 0.26016901E+00 0.37049080E+04</pdfrwt>
<totfact> 0.13666375E-01</totfact>
</mgrwt>
</event>
<event>
 6    1  0.1001928E-005  0.3408612E+04  0.7818608E-02  0.8135796E-01
         -1   -1    0    0    0  501 -0.00000000000E+00  0.00000000000E+00  0.15422100403E+04  0.15422100403E+04  0.00000000000E+00 0.  1.
          1   -1    0    0  501    0  0.00000000000E+00 -0.00000000000E+00 -0.18834388051E+04  0.18834388051E+04  0.00000000000E+00 0. -1.
         23    2    1    2    0    0 -0.65261268753E+03 -0.18499882923E+03  0.13993087012E+04  0.15576021229E+04  0.89059784571E+02 0.  0.
         11    1    3    3    0    0 -0.22434960473E+03 -0.45563973185E+02  0.38737888420E+03  0.44996802188E+03  0.00000000000E+00 0. -1.
        -11    1    3    3    0    0 -0.42826308280E+03 -0.13943485605E+03  0.10119298170E+04  0.11076341010E+04  0.00000000000E+00 0.  1.
         22    1    1    2    0    0  0.65261268753E+03  0.18499882923E+03 -0.17405374660E+04  0.18680467225E+04  0.00000000000E+00 0. -1.
<mgrwt>
<rscale>  0 0.34086116E+04</rscale>
<asrwt>0</asrwt>
<pdfrwt beam="1">  1        1 0.28975982E+00 0.34086116E+04</pdfrwt>
<pdfrwt beam="2">  1       -1 0.23726308E+00 0.34086116E+04</pdfrwt>
<totfact> 0.24842164E-01</totfact>
</mgrwt>
</event>
<event>
 6    1  0.1001928E-005  0.2684705E+04  0.7818608E-02  0.8339985E-01
         -1   -1    0    0    0  501 -0.00000000000E+00  0.00000000000E+00  0.68249938000E+03  0.68249938000E+03  0.00000000000E+00 0.  1.
          1   -1    0    0  501    0  0.00000000000E+00 -0.00000000000E+00 -0.26401629338E+04  0.26401629338E+04  0.00000000000E+00 0. -1.
         23    2    1    2    0    0 -0.34604462302E+03 -0.99074145628E+03 -0.20127889406E+04  0.22717796741E+04  0.91367684949E+02 0.  0.
         11    1    3    3    0    0 -0.33461031916E+03 -0.91560423175E+03 -0.19043859899E+04  0.21393880371E+04  0.00000000000E+00 0.  1.
        -11    1    3    3    0    0 -0.11434303859E+02 -0.75137224532E+02 -0.10840295074E+03  0.13239163699E+03  0.00000000000E+00 0. -1.
         22    1    1    2    0    0  0.34604462302E+03  0.99074145628E+03  0.55125386757E+02  0.10508826398E+04  0.00000000000E+00 0.  1.
<mgrwt>
<rscale>  0 0.26847045E+04</rscale>
<asrwt>0</asrwt>
<pdfrwt beam="1">  1        1 0.40617891E+00 0.26847045E+04</pdfrwt>
<pdfrwt beam="2">  1       -1 0.10499990E+00 0.26847045E+04</pdfrwt>
<totfact> 0.80454513E-01</totfact>
</mgrwt>
</event>
<event>
 6    1  0.1001928E-005  0.6328177E+03  0.7818608E-02  0.9839566E-01
         -2   -1    0    0    0  501 -0.00000000000E+00  0.00000000000E+00  0.46277927877E+03  0.46277927877E+03  0.00000000000E+00 0.  1.
          2   -1    0    0  501    0  0.00000000000E+00 -0.00000000000E+00 -0.21633327157E+03  0.21633327157E+03  0.00000000000E+00 0. -1.
         23    2    1    2    0    0 -0.24116718007E+03  0.10259873512E+02 -0.88528868317E+02  0.26622631786E+03  0.69081242372E+02 0.  0.
         13    1    3    3    0    0 -0.51721060709E+02  0.31065479855E+02 -0.17289269266E+02  0.62761859368E+02  0.00000000000E+00 0.  1.
        -13    1    3    3    0    0 -0.18944611936E+03 -0.20805606343E+02 -0.71239599052E+02  0.20346445849E+03  0.00000000000E+00 0. -1.
         22    1    1    2    0    0  0.24116718007E+03 -0.10259873512E+02  0.33497487551E+03  0.41288623248E+03  0.00000000000E+00 0.  1.
<mgrwt>
<rscale>  0 0.63281768E+03</rscale>
<asrwt>0</asrwt>
<pdfrwt beam="1">  1        2 0.33282042E-01 0.63281768E+03</pdfrwt>
<pdfrwt beam="2">  1       -2 0.71196812E-01 0.63281768E+03</pdfrwt>
<totfact> 0.28648120E+02</totfact>
</mgrwt>
</event>
<event>
 6    1  0.1001928E-005  0.1547355E+04  0.7818608E-02  0.8853559E-01
         -2   -1    0    0    0  501 -0.00000000000E+00  0.00000000000E+00  0.15252960747E+04  0.15252960747E+04  0.00000000000E+00 0.  1.
          2   -1    0    0  501    0  0.00000000000E+00 -0.00000000000E+00 -0.39243303681E+03  0.39243303681E+03  0.00000000000E+00 0. -1.
         23    2    1    2    0    0 -0.37764198045E+03  0.36167834115E+03 -0.13390609591E+03  0.54728074467E+03  0.90336499336E+02 0.  0.
         11    1    3    3    0    0 -0.14465558165E+03  0.19689829111E+03 -0.78134410978E+02  0.25651347046E+03  0.00000000000E+00 0. -1.
        -11    1    3    3    0    0 -0.23298639880E+03  0.16478005003E+03 -0.55771684929E+02  0.29076727421E+03  0.00000000000E+00 0.  1.
         22    1    1    2    0    0  0.37764198045E+03 -0.36167834115E+03  0.12667691338E+04  0.13704483668E+04  0.00000000000E+00 0.  1.
<mgrwt>
<rscale>  0 0.15473546E+04</rscale>
<asrwt>0</asrwt>
<pdfrwt beam="1">  1        2 0.60374314E-01 0.15473546E+04</pdfrwt>
<pdfrwt beam="2">  1       -2 0.23466093E+00 0.15473546E+04</pdfrwt>
<totfact> 0.62534863E+00</totfact>
</mgrwt>
</event>
<event>
 6    1  0.1001928E-005  0.2792823E+04  0.7818608E-02  0.8305500E-01
         -2   -1    0    0    0  501 -0.00000000000E+00  0.00000000000E+00  0.66686556912E+03  0.66686556912E+03  0.00000000000E+00 0. -1.
          2   -1    0    0  501    0  0.00000000000E+00 -0.00000000000E+00 -0.29240755677E+04  0.29240755677E+04  0.00000000000E+00 0.  1.
         23    2    1    2    0    0  0.26608302366E+03  0.12592046399E+04 -0.43592646891E+03  0.13608132938E+04  0.73378701303E+02 0.  0.
         11    1    3    3    0    0  0.95870309920E+02  0.39166062626E+03 -0.17005718872E+03  0.43761696713E+03  0.00000000000E+00 0.  1.
        -11    1    3    3    0    0  0.17021271374E+03  0.86754401363E+03 -0.26586928018E+03  0.92319632671E+03  0.00000000000E+00 0. -1.
         22    1    1    2    0    0 -0.26608302366E+03 -0.12592046399E+04 -0.18212835296E+04  0.22301278430E+04  0.00000000000E+00 0.  1.
<mgrwt>
<rscale>  0 0.27928232E+04</rscale>
<asrwt>0</asrwt>
<pdfrwt beam="1">  1        2 0.44985778E+00 0.27928232E+04</pdfrwt>
<pdfrwt beam="2">  1       -2 0.10259470E+00 0.27928232E+04</pdfrwt>
<totfact> 0.13130209E+00</totfact>
</mgrwt>
</event>
<event>
 6    1  0.1001928E-005  0.2256836E+04  0.7818608E-02  0.8495137E-01
          2   -1    0    0  501    0  0.00000000000E+00  0.00000000000E+00  0.11518932782E+04  0.11518932782E+04  0.00000000000E+00 0. -1.
         -2   -1    0    0    0  501 -0.00000000000E+00 -0.00000000000E+00 -0.11054207292E+04  0.11054207292E+04  0.00000000000E+00 0.  1.
         23    2    1    2    0    0 -0.64412792878E+03  0.65277217292E+03 -0.63129262367E+03  0.11169728621E+04  0.89920518240E+02 0.  0.
         13    1    3    3    0    0 -0.40869275809E+03  0.44633047970E+03 -0.37150877279E+03  0.71011226992E+03  0.00000000000E+00 0. -1.
        -13    1    3    3    0    0 -0.23543517069E+03  0.20644169322E+03 -0.25978385087E+03  0.40686059219E+03  0.00000000000E+00 0.  1.
         22    1    1    2    0    0  0.64412792878E+03 -0.65277217292E+03  0.67776517264E+03  0.11403411453E+04  0.00000000000E+00 0. -1.
<mgrwt>
<rscale>  0 0.22568356E+04</rscale>
<asrwt>0</asrwt>
<pdfrwt beam="1">  1        2 0.17721435E+00 0.22568356E+04</pdfrwt>
<pdfrwt beam="2">  1       -2 0.17006473E+00 0.22568356E+04</pdfrwt>
<totfact> 0.39222231E+00</totfact>
</mgrwt>
</event>
<event>
 6    1  0.1001928E-005  0.1415888E+04  0.7818608E-02  0.8942398E-01
         -1   -1    0    0    0  501 -0.00000000000E+00  0.00000000000E+00  0.35182173879E+03  0.35182173879E+03  0.00000000000E+00 0.  1.
          1   -1    0    0  501    0  0.00000000000E+00 -0.00000000000E+00 -0.14245411697E+04  0.14245411697E+04  0.00000000000E+00 0. -1.
         23    2    1    2    0    0  0.22186384899E+03 -0.24915068839E+03 -0.13176477631E+04  0.13624915263E+04  0.94275653326E+02 0.  0.
         11    1    3    3    0    0  0.20649497492E+03 -0.17595331371E+03 -0.99874960156E+03  0.10349398581E+04  0.00000000000E+00 0. -1.
        -11    1    3    3    0    0  0.15368874070E+02 -0.73197374688E+02 -0.31889816151E+03  0.32755166824E+03  0.00000000000E+00 0.  1.
         22    1    1    2    0    0 -0.22186384899E+03  0.24915068839E+03  0.24492833220E+03  0.41387138211E+03  0.00000000000E+00 0.  1.
<mgrwt>
<rscale>  0 0.14158878E+04</rscale>
<asrwt>0</asrwt>
<pdfrwt beam="1">  1        1 0.21916018E+00 0.14158878E+04</pdfrwt>
<pdfrwt beam="2">  1       -1 0.54126421E-01 0.14158878E+04</pdfrwt>
<totfact> 0.24781516E+01</totfact>
</mgrwt>
</event>
<event>
 6    1  0.1001928E-005  0.3611680E+04  0.7818608E-02  0.8087822E-01
          2   -1    0    0  501    0  0.00000000000E+00  0.00000000000E+00  0.24862710994E+04  0.24862710994E+04  0.00000000000E+00 0. -1.
         -2   -1    0    0    0  501 -0.00000000000E+00 -0.00000000000E+00 -0.13116259279E+04  0.13116259279E+04  0.00000000000E+00 0.  1.
         23    2    1    2    0    0 -0.14082689417E+04  0.49949504043E+03  0.16518796543E+04  0.22293086622E+04  0.91618838807E+02 0.  0.
         11    1    3    3    0    0 -0.20686973294E+03  0.10859425512E+03  0.25793128411E+03  0.34801773802E+03  0.00000000000E+00 0. -1.
        -11    1    3    3    0    0 -0.12013992087E+04  0.39090078531E+03  0.13939483702E+04  0.18812909242E+04  0.00000000000E+00 0.  1.
         22    1    1    2    0    0  0.14082689417E+04 -0.49949504043E+03 -0.47723448275E+03  0.15685883651E+04  0.00000000000E+00 0. -1.
<mgrwt>
<rscale>  0 0.36116797E+04</rscale>
<asrwt>0</asrwt>
<pdfrwt beam="1">  1        2 0.38250325E+00 0.36116797E+04</pdfrwt>
<pdfrwt beam="2">  1       -2 0.20178860E+00 0.36116797E+04</pdfrwt>
<totfact> 0.37370076E-01</totfact>
</mgrwt>
</event>
<event>
 6    1  0.1001928E-005  0.2401842E+04  0.7818608E-02  0.8438814E-01
         -2   -1    0    0    0  501 -0.00000000000E+00  0.00000000000E+00  0.10125092749E+04  0.10125092749E+04  0.00000000000E+00 0.  1.
          2   -1    0    0  501    0  0.00000000000E+00 -0.00000000000E+00 -0.14243936544E+04  0.14243936544E+04  0.00000000000E+00 0. -1.
         23    2    1    2    0    0 -0.46337881594E+03  0.19843702206E+03 -0.13102564170E+04  0.14067721140E+04  0.90214873915E+02 0.  0.
         11    1    3    3    0    0 -0.45403151813E+03  0.17836400539E+03 -0.12750890394E+04  0.13652144140E+04  0.00000000000E+00 0. -1.
        -11    1    3    3    0    0 -0.93472978113E+01  0.20073016677E+02 -0.35167377651E+02  0.41557699957E+02  0.00000000000E+00 0.  1.
         22    1    1    2    0    0  0.46337881594E+03 -0.19843702206E+03  0.89837203757E+03  0.10301308153E+04  0.00000000000E+00 0.  1.
<mgrwt>
<rscale>  0 0.24018424E+04</rscale>
<asrwt>0</asrwt>
<pdfrwt beam="1">  1        2 0.21913748E+00 0.24018424E+04</pdfrwt>
<pdfrwt beam="2">  1       -2 0.15577066E+00 0.24018424E+04</pdfrwt>
<totfact> 0.34133632E+00</totfact>
</mgrwt>
</event>
<event>
 6    1  0.1001928E-005  0.1894394E+04  0.7818608E-02  0.8657652E-01
          1   -1    0    0  501    0  0.00000000000E+00  0.00000000000E+00  0.15121803004E+04  0.15121803004E+04  0.00000000000E+00 0. -1.
         -1   -1    0    0    0  501 -0.00000000000E+00 -0.00000000000E+00 -0.59330366869E+03  0.59330366869E+03  0.00000000000E+00 0.  1.
         23    2    1    2    0    0 -0.21261758723E+03  0.79851521618E+03 -0.49384376688E+02  0.83254949737E+03  0.88696448807E+02 0.  0.
         11    1    3    3    0    0 -0.52063261762E+02  0.20931672518E+03 -0.51949057514E+02  0.22186207256E+03  0.00000000000E+00 0.  1.
        -11    1    3    3    0    0 -0.16055432547E+03  0.58919849100E+03  0.25646808264E+01  0.61068742480E+03  0.00000000000E+00 0. -1.
         22    1    1    2    0    0  0.21261758723E+03 -0.79851521618E+03  0.96826100837E+03  0.12729344717E+04  0.00000000000E+00 0. -1.
<mgrwt>
<rscale>  0 0.18943940E+04</rscale>
<asrwt>0</asrwt>
<pdfrwt beam="1">  1        1 0.23264312E+00 0.18943940E+04</pdfrwt>
<pdfrwt beam="2">  1       -1 0.91277488E-01 0.18943940E+04</pdfrwt>
<totfact> 0.70309160E+00</totfact>
</mgrwt>
</event>
<event>
 6    1  0.1001928E-005  0.3673839E+04  0.7818608E-02  0.8073784E-01
          2   -1    0    0  501    0  0.00000000000E+00  0.00000000000E+00  0.16073348411E+04  0.16073348411E+04  0.00000000000E+00 0.  1.
         -2   -1    0    0    0  501 -0.00000000000E+00 -0.00000000000E+00 -0.20992968064E+04  0.20992968064E+04  0.00000000000E+00 0. -1.
         23    2    1    2    0    0  0.10351692916E+04  0.11392720446E+04  0.76304519961E+03  0.17205402000E+04  0.92219029375E+02 0.  0.
         13    1    3    3    0    0  0.60297499345E+03  0.61078344660E+03  0.39266288591E+03  0.94383229620E+03  0.00000000000E+00 0. -1.
        -13    1    3    3    0    0  0.43219429810E+03  0.52848859804E+03  0.37038231370E+03  0.77670790383E+03  0.00000000000E+00 0.  1.
         22    1    1    2    0    0 -0.10351692916E+04 -0.11392720446E+04 -0.12550071649E+04  0.19860914475E+04  0.00000000000E+00 0. -1.
<mgrwt>
<rscale>  0 0.36738388E+04</rscale>
<asrwt>0</asrwt>
<pdfrwt beam="1">  1        2 0.24728229E+00 0.36738388E+04</pdfrwt>
<pdfrwt beam="2">  1       -2 0.32296874E+00 0.36738388E+04</pdfrwt>
<totfact> 0.20537468E-01</totfact>
</mgrwt>
</event>
<event>
 6    1  0.1001928E-005  0.5459607E+03  0.7818608E-02  0.1002433E+00
         -1   -1    0    0    0  501 -0.00000000000E+00  0.00000000000E+00  0.57114143710E+03  0.57114143710E+03  0.00000000000E+00 0.  1.
          1   -1    0    0  501    0  0.00000000000E+00 -0.00000000000E+00 -0.13047253137E+03  0.13047253137E+03  0.00000000000E+00 0. -1.
         23    2    1    2    0    0 -0.51027072351E+02  0.23265714946E+03  0.75767277066E+02  0.26585450511E+03  0.90580496289E+02 0.  0.
         13    1    3    3    0    0 -0.63588166938E+02  0.18371109434E+03  0.88714371527E+02  0.21369010476E+03  0.00000000000E+00 0.  1.
        -13    1    3    3    0    0  0.12561094587E+02  0.48946055119E+02 -0.12947094461E+02  0.52164400351E+02  0.00000000000E+00 0. -1.
         22    1    1    2    0    0  0.51027072351E+02 -0.23265714946E+03  0.36490162866E+03  0.43575946336E+03  0.00000000000E+00 0.  1.
<mgrwt>
<rscale>  0 0.54596069E+03</rscale>
<asrwt>0</asrwt>
<pdfrwt beam="1">  1        1 0.20072697E-01 0.54596069E+03</pdfrwt>
<pdfrwt beam="2">  1       -1 0.87867912E-01 0.54596069E+03</pdfrwt>
<totfact> 0.33774666E+02</totfact>
</mgrwt>
</event>
<event>
 6    1  0.1001928E-005  0.3402516E+04  0.7818608E-02  0.8137289E-01
          1   -1    0    0  501    0  0.00000000000E+00  0.00000000000E+00  0.21213748773E+04  0.21213748773E+04  0.00000000000E+00 0. -1.
         -1   -1    0    0    0  501 -0.00000000000E+00 -0.00000000000E+00 -0.13643406773E+04  0.13643406773E+04  0.00000000000E+00 0.  1.
         23    2    1    2    0    0  0.10629543293E+04  0.12233259165E+04  0.90500542808E+03  0.18583576688E+04  0.89778596409E+02 0.  0.
         11    1    3    3    0    0  0.42776014201E+03  0.52835428208E+03  0.33672947959E+03  0.75863280242E+03  0.00000000000E+00 0.  1.
        -11    1    3    3    0    0  0.63519418724E+03  0.69497163440E+03  0.56827594849E+03  0.10997248664E+04  0.00000000000E+00 0. -1.
         22    1    1    2    0    0 -0.10629543293E+04 -0.12233259165E+04 -0.14797122803E+03  0.16273578858E+04  0.00000000000E+00 0.  1.
<mgrwt>
<rscale>  0 0.34025156E+04</rscale>
<asrwt>0</asrwt>
<pdfrwt beam="1">  1        1 0.32636537E+00 0.34025156E+04</pdfrwt>
<pdfrwt beam="2">  1       -1 0.20989857E+00 0.34025156E+04</pdfrwt>
<totfact> 0.26103499E-01</totfact>
</mgrwt>
</event>
<event>
 6    1  0.1001928E-005  0.1972676E+04  0.7818608E-02  0.8619503E-01
         -3   -1    0    0    0  501 -0.00000000000E+00  0.00000000000E+00  0.78046924742E+03  0.78046924742E+03  0.00000000000E+00 0.  1.
          3   -1    0    0  501    0  0.00000000000E+00 -0.00000000000E+00 -0.12465105218E+04  0.12465105218E+04  0.00000000000E+00 0. -1.
         23    2    1    2    0    0 -0.97039927777E+03 -0.11784664303E+03 -0.11639749941E+03  0.98880186592E+03  0.92834059576E+02 0.  0.
         13    1    3    3    0    0 -0.22487266337E+03 -0.32813856168E+02 -0.66501363529E+02  0.23678449113E+03  0.00000000000E+00 0.  1.
        -13    1    3    3    0    0 -0.74552661439E+03 -0.85032786864E+02 -0.49896135884E+02  0.75201737479E+03  0.00000000000E+00 0. -1.
         22    1    1    2    0    0  0.97039927777E+03  0.11784664303E+03 -0.34964377501E+03  0.10381779033E+04  0.00000000000E+00 0. -1.
<mgrwt>
<rscale>  0 0.19726765E+04</rscale>
<asrwt>0</asrwt>
<pdfrwt beam="1">  1        3 0.19177085E+00 0.19726765E+04</pdfrwt>
<pdfrwt beam="2">  1       -3 0.12007219E+00 0.19726765E+04</pdfrwt>
<totfact> 0.22837937E-01</totfact>
</mgrwt>
</event>
<event>
 6    1  0.1001928E-005  0.3409428E+04  0.7818608E-02  0.8135596E-01
         -2   -1    0    0    0  501 -0.00000000000E+00  0.00000000000E+00  0.11989114503E+04  0.11989114503E+04  0.00000000000E+00 0.  1.
          2   -1    0    0  501    0  0.00000000000E+00 -0.00000000000E+00 -0.24239068413E+04  0.24239068413E+04  0.00000000000E+00 0. -1.
         23    2    1    2    0    0  0.76616827133E+03  0.30085571427E+03  0.97183671991E+03  0.12768431629E+04  0.91290041218E+02 0.  0.
         13    1    3    3    0    0  0.31947014720E+03  0.15462106395E+03  0.47435544338E+03  0.59243728363E+03  0.00000000000E+00 0.  1.
        -13    1    3    3    0    0  0.44669812413E+03  0.14623465032E+03  0.49748127653E+03  0.68440587925E+03  0.00000000000E+00 0. -1.
         22    1    1    2    0    0 -0.76616827133E+03 -0.30085571427E+03 -0.21968321109E+04  0.23459751286E+04  0.00000000000E+00 0. -1.
<mgrwt>
<rscale>  0 0.34094279E+04</rscale>
<asrwt>0</asrwt>
<pdfrwt beam="1">  1        2 0.37290874E+00 0.34094279E+04</pdfrwt>
<pdfrwt beam="2">  1       -2 0.18444792E+00 0.34094279E+04</pdfrwt>
<totfact> 0.53884610E-01</totfact>
</mgrwt>
</event>
<event>
 6    1  0.1001928E-005  0.2218249E+04  0.7818608E-02  0.8510871E-01
          1   -1    0    0  501    0  0.00000000000E+00  0.00000000000E+00  0.10895508490E+04  0.10895508490E+04  0.00000000000E+00 0. -1.
         -1   -1    0    0    0  501 -0.00000000000E+00 -0.00000000000E+00 -0.11290496772E+04  0.11290496772E+04  0.00000000000E+00 0.  1.
         23    2    1    2    0    0  0.36176193712E+03  0.64963450648E+03  0.80077462409E+03  0.10965683673E+04  0.91244147309E+02 0.  0.
         13    1    3    3    0    0  0.10295141458E+03  0.23744987359E+03  0.22777031028E+03  0.34476187504E+03  0.00000000000E+00 0. -1.
        -13    1    3    3    0    0  0.25881052255E+03  0.41218463289E+03  0.57300431380E+03  0.75180649226E+03  0.00000000000E+00 0.  1.
         22    1    1    2    0    0 -0.36176193712E+03 -0.64963450648E+03 -0.84027345226E+03  0.11220321590E+04  0.00000000000E+00 0.  1.
<mgrwt>
<rscale>  0 0.22182489E+04</rscale>
<asrwt>0</asrwt>
<pdfrwt beam="1">  1        1 0.16762321E+00 0.22182489E+04</pdfrwt>
<pdfrwt beam="2">  1       -1 0.17369995E+00 0.22182489E+04</pdfrwt>
<totfact> 0.27171407E+00</totfact>
</mgrwt>
</event>
<event>
 6    1  0.1001928E-005  0.2985422E+04  0.7818608E-02  0.8247906E-01
         -1   -1    0    0    0  501 -0.00000000000E+00  0.00000000000E+00  0.15821520593E+04  0.15821520593E+04  0.00000000000E+00 0.  1.
          1   -1    0    0  501    0  0.00000000000E+00 -0.00000000000E+00 -0.14083259722E+04  0.14083259722E+04  0.00000000000E+00 0. -1.
         23    2    1    2    0    0  0.12230582981E+04 -0.25563567058E+03 -0.72855602618E+03  0.14492075571E+04  0.90484603884E+02 0.  0.
         13    1    3    3    0    0  0.61352772021E+03 -0.13209259098E+03 -0.31376631454E+03  0.70165092189E+03  0.00000000000E+00 0. -1.
        -13    1    3    3    0    0  0.60953057793E+03 -0.12354307960E+03 -0.41478971165E+03  0.74755663521E+03  0.00000000000E+00 0.  1.
         22    1    1    2    0    0 -0.12230582981E+04  0.25563567058E+03  0.90238211328E+03  0.15412704743E+04  0.00000000000E+00 0.  1.
<mgrwt>
<rscale>  0 0.29854218E+04</rscale>
<asrwt>0</asrwt>
<pdfrwt beam="1">  1        1 0.21666553E+00 0.29854218E+04</pdfrwt>
<pdfrwt beam="2">  1       -1 0.24340801E+00 0.29854218E+04</pdfrwt>
<totfact> 0.49736430E-01</totfact>
</mgrwt>
</event>
<event>
 6    1  0.1001928E-005  0.3019111E+04  0.7818608E-02  0.8238295E-01
         -2   -1    0    0    0  501 -0.00000000000E+00  0.00000000000E+00  0.13501457612E+04  0.13501457612E+04  0.00000000000E+00 0. -1.
          2   -1    0    0  501    0  0.00000000000E+00 -0.00000000000E+00 -0.16877860955E+04  0.16877860955E+04  0.00000000000E+00 0.  1.
         23    2    1    2    0    0 -0.45479360568E+03 -0.12825814122E+03 -0.16101387546E+04  0.16805300724E+04  0.91362687154E+02 0.  0.
         11    1    3    3    0    0 -0.23721827447E+03 -0.11023429534E+03 -0.94063453216E+03  0.97632854752E+03  0.00000000000E+00 0. -1.
        -11    1    3    3    0    0 -0.21757533120E+03 -0.18023845879E+02 -0.66950422242E+03  0.70420152486E+03  0.00000000000E+00 0.  1.
         22    1    1    2    0    0  0.45479360568E+03  0.12825814122E+03  0.12724984203E+04  0.13574017844E+04  0.00000000000E+00 0. -1.
<mgrwt>
<rscale>  0 0.30191106E+04</rscale>
<asrwt>0</asrwt>
<pdfrwt beam="1">  1        2 0.25965940E+00 0.30191106E+04</pdfrwt>
<pdfrwt beam="2">  1       -2 0.20771473E+00 0.30191106E+04</pdfrwt>
<totfact> 0.10086936E+00</totfact>
</mgrwt>
</event>
<event>
 6    1  0.1001928E-005  0.2495670E+04  0.7818608E-02  0.8404530E-01
         -1   -1    0    0    0  501 -0.00000000000E+00  0.00000000000E+00  0.75138420693E+03  0.75138420693E+03  0.00000000000E+00 0.  1.
          1   -1    0    0  501    0  0.00000000000E+00 -0.00000000000E+00 -0.20722987172E+04  0.20722987172E+04  0.00000000000E+00 0. -1.
         23    2    1    2    0    0 -0.84320750866E+03  0.32539917840E+03  0.30895146558E+03  0.95999125780E+03  0.96170052534E+02 0.  0.
         11    1    3    3    0    0 -0.77201586282E+03  0.27410875344E+03  0.29713863386E+03  0.87145594776E+03  0.00000000000E+00 0. -1.
        -11    1    3    3    0    0 -0.71191645839E+02  0.51290424961E+02  0.11812831715E+02  0.88535310035E+02  0.00000000000E+00 0.  1.
         22    1    1    2    0    0  0.84320750866E+03 -0.32539917840E+03 -0.16298659758E+04  0.18636916663E+04  0.00000000000E+00 0. -1.
<mgrwt>
<rscale>  0 0.24956703E+04</rscale>
<asrwt>0</asrwt>
<pdfrwt beam="1">  1        1 0.31881518E+00 0.24956703E+04</pdfrwt>
<pdfrwt beam="2">  1       -1 0.11559757E+00 0.24956703E+04</pdfrwt>
<totfact> 0.16030876E+00</totfact>
</mgrwt>
</event>
<event>
 6    1  0.1001928E-005  0.1470916E+04  0.7818608E-02  0.8904027E-01
         -1   -1    0    0    0  501 -0.00000000000E+00  0.00000000000E+00  0.41978005241E+03  0.41978005241E+03  0.00000000000E+00 0.  1.
          1   -1    0    0  501    0  0.00000000000E+00 -0.00000000000E+00 -0.12885284797E+04  0.12885284797E+04  0.00000000000E+00 0. -1.
         23    2    1    2    0    0  0.26839278457E+03 -0.34162047429E+02  0.35450435764E+03  0.45549206187E+03  0.92725112816E+02 0.  0.
         11    1    3    3    0    0  0.13141039040E+03 -0.56864957134E+02  0.14209535471E+03  0.20172606149E+03  0.00000000000E+00 0.  1.
        -11    1    3    3    0    0  0.13698239417E+03  0.22702909705E+02  0.21240900293E+03  0.25376600038E+03  0.00000000000E+00 0. -1.
         22    1    1    2    0    0 -0.26839278457E+03  0.34162047429E+02 -0.12232527849E+04  0.12528164703E+04  0.00000000000E+00 0. -1.
<mgrwt>
<rscale>  0 0.14709161E+04</rscale>
<asrwt>0</asrwt>
<pdfrwt beam="1">  1        1 0.19823515E+00 0.14709161E+04</pdfrwt>
<pdfrwt beam="2">  1       -1 0.64581548E-01 0.14709161E+04</pdfrwt>
<totfact> 0.21730297E+01</totfact>
</mgrwt>
</event>
<event>
 6    1  0.1001928E-005  0.1754561E+04  0.7818608E-02  0.8730844E-01
          3   -1    0    0  501    0  0.00000000000E+00  0.00000000000E+00  0.51281390757E+03  0.51281390757E+03  0.00000000000E+00 0. -1.
         -3   -1    0    0    0  501 -0.00000000000E+00 -0.00000000000E+00 -0.15007808689E+04  0.15007808689E+04  0.00000000000E+00 0.  1.
         23    2    1    2    0    0 -0.20303341902E+03 -0.49622207503E+03  0.29830825884E+03  0.62005150156E+03  0.89538429274E+02 0.  0.
         11    1    3    3    0    0 -0.14299790619E+03 -0.43220436391E+03  0.23945294040E+03  0.51437994131E+03  0.00000000000E+00 0. -1.
        -11    1    3    3    0    0 -0.60035512833E+02 -0.64017711118E+02  0.58855318442E+02  0.10567156026E+03  0.00000000000E+00 0.  1.
         22    1    1    2    0    0  0.20303341902E+03  0.49622207503E+03 -0.12862752202E+04  0.13935432749E+04  0.00000000000E+00 0.  1.
<mgrwt>
<rscale>  0 0.17545613E+04</rscale>
<asrwt>0</asrwt>
<pdfrwt beam="1">  1        3 0.78894448E-01 0.17545613E+04</pdfrwt>
<pdfrwt beam="2">  1       -3 0.23088936E+00 0.17545613E+04</pdfrwt>
<totfact> 0.35243381E-01</totfact>
</mgrwt>
</event>
<event>
 6    1  0.1001928E-005  0.2152463E+04  0.7818608E-02  0.8538479E-01
         -2   -1    0    0    0  501 -0.00000000000E+00  0.00000000000E+00  0.18104406630E+04  0.18104406630E+04  0.00000000000E+00 0.  1.
          2   -1    0    0  501    0  0.00000000000E+00 -0.00000000000E+00 -0.63977477138E+03  0.63977477138E+03  0.00000000000E+00 0. -1.
         23    2    1    2    0    0 -0.71523207583E+03 -0.61589394808E+03  0.42708271844E+01  0.94976226153E+03  0.10558331254E+03 0.  0.
         13    1    3    3    0    0 -0.44578482741E+03 -0.33624549055E+03  0.39862717653E+02  0.55979833738E+03  0.00000000000E+00 0. -1.
        -13    1    3    3    0    0 -0.26944724841E+03 -0.27964845753E+03 -0.35591890469E+02  0.38996392415E+03  0.00000000000E+00 0.  1.
         22    1    1    2    0    0  0.71523207583E+03  0.61589394808E+03  0.11663950645E+04  0.15004531729E+04  0.00000000000E+00 0.  1.
<mgrwt>
<rscale>  0 0.21524630E+04</rscale>
<asrwt>0</asrwt>
<pdfrwt beam="1">  1        2 0.98426889E-01 0.21524630E+04</pdfrwt>
<pdfrwt beam="2">  1       -2 0.27852933E+00 0.21524630E+04</pdfrwt>
<totfact> 0.18092776E+00</totfact>
</mgrwt>
</event>
<event>
 6    1  0.1001928E-005  0.3332827E+04  0.7818608E-02  0.8154592E-01
         -1   -1    0    0    0  501 -0.00000000000E+00  0.00000000000E+00  0.92073707116E+03  0.92073707116E+03  0.00000000000E+00 0.  1.
          1   -1    0    0  501    0  0.00000000000E+00 -0.00000000000E+00 -0.30159908291E+04  0.30159908291E+04  0.00000000000E+00 0. -1.
         23    2    1    2    0    0  0.44683087014E+03 -0.22919656597E+03  0.82689855561E+03  0.97173834954E+03  0.91243116627E+02 0.  0.
         11    1    3    3    0    0  0.37023923730E+03 -0.22442367652E+03  0.68312404705E+03  0.80876544380E+03  0.00000000000E+00 0. -1.
        -11    1    3    3    0    0  0.76591632845E+02 -0.47728894492E+01  0.14377450855E+03  0.16297290574E+03  0.00000000000E+00 0.  1.
         22    1    1    2    0    0 -0.44683087014E+03  0.22919656597E+03 -0.29221523135E+04  0.29649895507E+04  0.00000000000E+00 0. -1.
<mgrwt>
<rscale>  0 0.33328274E+04</rscale>
<asrwt>0</asrwt>
<pdfrwt beam="1">  1        1 0.46399859E+00 0.33328274E+04</pdfrwt>
<pdfrwt beam="2">  1       -1 0.14165186E+00 0.33328274E+04</pdfrwt>
<totfact> 0.19549963E-01</totfact>
</mgrwt>
</event>
<event>
 6    1  0.1001928E-005  0.3847102E+04  0.7818608E-02  0.8036122E-01
          2   -1    0    0  501    0  0.00000000000E+00  0.00000000000E+00  0.24411800785E+04  0.24411800785E+04  0.00000000000E+00 0. -1.
         -2   -1    0    0    0  501 -0.00000000000E+00 -0.00000000000E+00 -0.15156805645E+04  0.15156805645E+04  0.00000000000E+00 0.  1.
         23    2    1    2    0    0 -0.14920309813E+04 -0.12123463161E+04  0.45962949088E+03  0.19787365524E+04  0.90548527076E+02 0.  0.
         13    1    3    3    0    0 -0.43482681038E+03 -0.40457394445E+03  0.15514081291E+03  0.61385918856E+03  0.00000000000E+00 0.  1.
        -13    1    3    3    0    0 -0.10572041709E+04 -0.80777237165E+03  0.30448867797E+03  0.13648773639E+04  0.00000000000E+00 0. -1.
         22    1    1    2    0    0  0.14920309813E+04  0.12123463161E+04  0.46587002312E+03  0.19781240906E+04  0.00000000000E+00 0.  1.
<mgrwt>
<rscale>  0 0.38471024E+04</rscale>
<asrwt>0</asrwt>
<pdfrwt beam="1">  1        2 0.37556617E+00 0.38471024E+04</pdfrwt>
<pdfrwt beam="2">  1       -2 0.23318163E+00 0.38471024E+04</pdfrwt>
<totfact> 0.24557975E-01</totfact>
</mgrwt>
</event>
<event>
 6    1  0.1001928E-005  0.2350142E+04  0.7818608E-02  0.8458409E-01
          2   -1    0    0  501    0  0.00000000000E+00  0.00000000000E+00  0.26076569232E+04  0.26076569232E+04  0.00000000000E+00 0. -1.
         -2   -1    0    0    0  501 -0.00000000000E+00 -0.00000000000E+00 -0.52951417497E+03  0.52951417497E+03  0.00000000000E+00 0.  1.
         23    2    1    2    0    0  0.97630175904E+02  0.15598051418E+01  0.26014422579E+04  0.26048399407E+04  0.90306207960E+02 0.  0.
         13    1    3    3    0    0  0.40398460505E+01  0.40241741686E+01  0.13085184921E+04  0.13085309162E+04  0.00000000000E+00 0.  1.
        -13    1    3    3    0    0  0.93590329853E+02 -0.24643690268E+01  0.12929237658E+04  0.12963090246E+04  0.00000000000E+00 0. -1.
         22    1    1    2    0    0 -0.97630175904E+02 -0.15598051418E+01 -0.52329950974E+03  0.53233115740E+03  0.00000000000E+00 0.  1.
<mgrwt>
<rscale>  0 0.23501415E+04</rscale>
<asrwt>0</asrwt>
<pdfrwt beam="1">  1        2 0.40117798E+00 0.23501415E+04</pdfrwt>
<pdfrwt beam="2">  1       -2 0.81463721E-01 0.23501415E+04</pdfrwt>
<totfact> 0.36084545E+00</totfact>
</mgrwt>
</event>
<event>
 6    1  0.1115845E-005  0.3327984E+04  0.7818608E-02  0.8155811E-01
         -2   -1    0    0    0  501 -0.00000000000E+00  0.00000000000E+00  0.13991439912E+04  0.13991439912E+04  0.00000000000E+00 0.  1.
          2   -1    0    0  501    0  0.00000000000E+00 -0.00000000000E+00 -0.19789735540E+04  0.19789735540E+04  0.00000000000E+00 0. -1.
         23    2    1    2    0    0 -0.44640188505E+03  0.34352702551E+03  0.12978587583E+04  0.14177607177E+04  0.91228481965E+02 0.  0.
         11    1    3    3    0    0 -0.10808220003E+03  0.13477181453E+03  0.41532897835E+03  0.44982592657E+03  0.00000000000E+00 0. -1.
        -11    1    3    3    0    0 -0.33831968502E+03  0.20875521098E+03  0.88252977995E+03  0.96793479113E+03  0.00000000000E+00 0.  1.
         22    1    1    2    0    0  0.44640188505E+03 -0.34352702551E+03 -0.18776883210E+04  0.19603568275E+04  0.00000000000E+00 0. -1.
<mgrwt>
<rscale>  0 0.33279837E+04</rscale>
<asrwt>0</asrwt>
<pdfrwt beam="1">  1        2 0.30445747E+00 0.33279837E+04</pdfrwt>
<pdfrwt beam="2">  1       -2 0.21525292E+00 0.33279837E+04</pdfrwt>
<totfact> 0.60606234E-01</totfact>
</mgrwt>
</event>
<event>
 6    1  0.1001928E-005  0.1966298E+04  0.7818608E-02  0.8622541E-01
          2   -1    0    0  501    0  0.00000000000E+00  0.00000000000E+00  0.26308278490E+04  0.26308278490E+04  0.00000000000E+00 0. -1.
         -2   -1    0    0    0  501 -0.00000000000E+00 -0.00000000000E+00 -0.36740619290E+03  0.36740619290E+03  0.00000000000E+00 0.  1.
         23    2    1    2    0    0  0.15855547398E+03 -0.96788514205E+03  0.10826714396E+04  0.14632706677E+04  0.83917305509E+02 0.  0.
         13    1    3    3    0    0  0.13744231186E+03 -0.60536616938E+03  0.66127898086E+03  0.90699971259E+03  0.00000000000E+00 0.  1.
        -13    1    3    3    0    0  0.21113162119E+02 -0.36251897266E+03  0.42139245876E+03  0.55627095507E+03  0.00000000000E+00 0. -1.
         22    1    1    2    0    0 -0.15855547398E+03  0.96788514205E+03  0.11807502165E+04  0.15349633742E+04  0.00000000000E+00 0. -1.
<mgrwt>
<rscale>  0 0.19662985E+04</rscale>
<asrwt>0</asrwt>
<pdfrwt beam="1">  1        2 0.40474273E+00 0.19662985E+04</pdfrwt>
<pdfrwt beam="2">  1       -2 0.56524032E-01 0.19662985E+04</pdfrwt>
<totfact> 0.79926920E+00</totfact>
</mgrwt>
</event>
<event>
 6    1  0.1001928E-005  0.1893392E+04  0.7818608E-02  0.8658152E-01
          1   -1    0    0  501    0  0.00000000000E+00  0.00000000000E+00  0.88547204965E+03  0.88547204965E+03  0.00000000000E+00 0. -1.
         -1   -1    0    0    0  501 -0.00000000000E+00 -0.00000000000E+00 -0.10121536443E+04  0.10121536443E+04  0.00000000000E+00 0.  1.
         23    2    1    2    0    0  0.48271682192E+03  0.57175815251E+03  0.51409257604E+03  0.91247877446E+03  0.91670180471E+02 0.  0.
         11    1    3    3    0    0  0.16705776326E+03  0.26696143117E+03  0.20568795829E+03  0.37614390622E+03  0.00000000000E+00 0. -1.
        -11    1    3    3    0    0  0.31565905866E+03  0.30479672134E+03  0.30840461774E+03  0.53633486825E+03  0.00000000000E+00 0.  1.
         22    1    1    2    0    0 -0.48271682192E+03 -0.57175815251E+03 -0.64077417065E+03  0.98514691945E+03  0.00000000000E+00 0.  1.
<mgrwt>
<rscale>  0 0.18933925E+04</rscale>
<asrwt>0</asrwt>
<pdfrwt beam="1">  1        1 0.13622647E+00 0.18933925E+04</pdfrwt>
<pdfrwt beam="2">  1       -1 0.15571595E+00 0.18933925E+04</pdfrwt>
<totfact> 0.55181233E+00</totfact>
</mgrwt>
</event>
<event>
 6    1  0.1001928E-005  0.1400728E+04  0.7818608E-02  0.8953292E-01
          1   -1    0    0  501    0  0.00000000000E+00  0.00000000000E+00  0.11981767173E+04  0.11981767173E+04  0.00000000000E+00 0. -1.
         -1   -1    0    0    0  501 -0.00000000000E+00 -0.00000000000E+00 -0.40937993034E+03  0.40937993034E+03  0.00000000000E+00 0.  1.
         23    2    1    2    0    0  0.35910688436E+03 -0.50994311289E+03  0.75421936625E+03  0.98290047756E+03  0.90811692968E+02 0.  0.
         13    1    3    3    0    0  0.11633096798E+03 -0.17940926208E+03  0.32690909589E+03  0.39062787203E+03  0.00000000000E+00 0. -1.
        -13    1    3    3    0    0  0.24277591638E+03 -0.33053385080E+03  0.42731027036E+03  0.59227260553E+03  0.00000000000E+00 0.  1.
         22    1    1    2    0    0 -0.35910688436E+03  0.50994311289E+03  0.34577420680E+02  0.62465617006E+03  0.00000000000E+00 0.  1.
<mgrwt>
<rscale>  0 0.14007277E+04</rscale>
<asrwt>0</asrwt>
<pdfrwt beam="1">  1        1 0.18433488E+00 0.14007277E+04</pdfrwt>
<pdfrwt beam="2">  1       -1 0.62981528E-01 0.14007277E+04</pdfrwt>
<totfact> 0.26721810E+01</totfact>
</mgrwt>
</event>
<event>
 6    1  0.1051763E-005  0.2353272E+04  0.7818608E-02  0.8457208E-01
          1   -1    0    0  501    0  0.00000000000E+00  0.00000000000E+00  0.17457586819E+04  0.17457586819E+04  0.00000000000E+00 0. -1.
         -1   -1    0    0    0  501 -0.00000000000E+00 -0.00000000000E+00 -0.79304893122E+03  0.79304893122E+03  0.00000000000E+00 0.  1.
         23    2    1    2    0    0  0.10805397909E+03 -0.69348620108E+03  0.14935077509E+04  0.16527707907E+04  0.92125518476E+02 0.  0.
         13    1    3    3    0    0  0.78155751058E+02 -0.24555586154E+03  0.49804398624E+03  0.56076181645E+03  0.00000000000E+00 0.  1.
        -13    1    3    3    0    0  0.29898228037E+02 -0.44793033954E+03  0.99546376467E+03  0.10920089743E+04  0.00000000000E+00 0. -1.
         22    1    1    2    0    0 -0.10805397909E+03  0.69348620108E+03 -0.54079800027E+03  0.88603682236E+03  0.00000000000E+00 0.  1.
<mgrwt>
<rscale>  0 0.23532718E+04</rscale>
<asrwt>0</asrwt>
<pdfrwt beam="1">  1        1 0.26857826E+00 0.23532718E+04</pdfrwt>
<pdfrwt beam="2">  1       -1 0.12200753E+00 0.23532718E+04</pdfrwt>
<totfact> 0.23715740E+00</totfact>
</mgrwt>
</event>
<event>
 6    1  0.1378187E-005  0.2812092E+04  0.7818608E-02  0.8299524E-01
          2   -1    0    0  501    0  0.00000000000E+00  0.00000000000E+00  0.96226560615E+03  0.96226560615E+03  0.00000000000E+00 0. -1.
         -2   -1    0    0    0  501 -0.00000000000E+00 -0.00000000000E+00 -0.20544903551E+04  0.20544903551E+04  0.00000000000E+00 0.  1.
         23    2    1    2    0    0  0.94818952480E+03 -0.19656003866E+03  0.54530031071E+03  0.11143397227E+04  0.81861865009E+02 0.  0.
         13    1    3    3    0    0  0.53271077638E+03 -0.11741327838E+03  0.26101834362E+03  0.60472905083E+03  0.00000000000E+00 0. -1.
        -13    1    3    3    0    0  0.41547874842E+03 -0.79146760287E+02  0.28428196709E+03  0.50961067185E+03  0.00000000000E+00 0.  1.
         22    1    1    2    0    0 -0.94818952480E+03  0.19656003866E+03 -0.16375250597E+04  0.19024162386E+04  0.00000000000E+00 0.  1.
<mgrwt>
<rscale>  0 0.28120920E+04</rscale>
<asrwt>0</asrwt>
<pdfrwt beam="1">  1        2 0.14804086E+00 0.28120920E+04</pdfrwt>
<pdfrwt beam="2">  1       -2 0.31607544E+00 0.28120920E+04</pdfrwt>
<totfact> 0.58653065E-01</totfact>
</mgrwt>
</event>
<event>
 6    1  0.1001928E-005  0.1978955E+04  0.7818608E-02  0.8616523E-01
         -1   -1    0    0    0  501 -0.00000000000E+00  0.00000000000E+00  0.29684684203E+03  0.29684684203E+03  0.00000000000E+00 0. -1.
          1   -1    0    0  501    0  0.00000000000E+00 -0.00000000000E+00 -0.32982193261E+04  0.32982193261E+04  0.00000000000E+00 0.  1.
         23    2    1    2    0    0  0.13696677257E+03  0.32898430123E+03 -0.31766197078E+04  0.31979488596E+04  0.94728946666E+02 0.  0.
         13    1    3    3    0    0  0.14047089332E+03  0.26860548953E+03 -0.24187004839E+04  0.24376203584E+04  0.00000000000E+00 0.  1.
        -13    1    3    3    0    0 -0.35041207485E+01  0.60378811695E+02 -0.75791922394E+03  0.76032850123E+03  0.00000000000E+00 0. -1.
         22    1    1    2    0    0 -0.13696677257E+03 -0.32898430123E+03  0.17524722379E+03  0.39711730847E+03  0.00000000000E+00 0. -1.
<mgrwt>
<rscale>  0 0.19789553E+04</rscale>
<asrwt>0</asrwt>
<pdfrwt beam="1">  1        1 0.50741837E+00 0.19789553E+04</pdfrwt>
<pdfrwt beam="2">  1       -1 0.45668744E-01 0.19789553E+04</pdfrwt>
<totfact> 0.15914842E+00</totfact>
</mgrwt>
</event>
<event>
 6    1  0.1001928E-005  0.3076918E+04  0.7818608E-02  0.8222101E-01
         -1   -1    0    0    0  501 -0.00000000000E+00  0.00000000000E+00  0.12265504899E+04  0.12265504899E+04  0.00000000000E+00 0.  1.
          1   -1    0    0  501    0  0.00000000000E+00 -0.00000000000E+00 -0.19296849596E+04  0.19296849596E+04  0.00000000000E+00 0. -1.
         23    2    1    2    0    0 -0.63520610262E+03 -0.11368103050E+04 -0.11895572888E+04  0.17661161664E+04  0.91078579177E+02 0.  0.
         13    1    3    3    0    0 -0.94400480847E+02 -0.18652113672E+03 -0.23656979588E+03  0.31570057578E+03  0.00000000000E+00 0. -1.
        -13    1    3    3    0    0 -0.54080562177E+03 -0.95028916826E+03 -0.95298749291E+03  0.14504155906E+04  0.00000000000E+00 0.  1.
         22    1    1    2    0    0  0.63520610262E+03  0.11368103050E+04  0.48642281912E+03  0.13901192831E+04  0.00000000000E+00 0. -1.
<mgrwt>
<rscale>  0 0.30769180E+04</rscale>
<asrwt>0</asrwt>
<pdfrwt beam="1">  1        1 0.29687461E+00 0.30769180E+04</pdfrwt>
<pdfrwt beam="2">  1       -1 0.18870008E+00 0.30769180E+04</pdfrwt>
<totfact> 0.50750826E-01</totfact>
</mgrwt>
</event>
<event>
 6    1  0.1001928E-005  0.2087201E+04  0.7818608E-02  0.8566903E-01
          1   -1    0    0  501    0  0.00000000000E+00  0.00000000000E+00  0.12371934651E+04  0.12371934651E+04  0.00000000000E+00 0. -1.
         -1   -1    0    0    0  501 -0.00000000000E+00 -0.00000000000E+00 -0.88030015724E+03  0.88030015724E+03  0.00000000000E+00 0.  1.
         23    2    1    2    0    0  0.97654977913E+03  0.30619493258E+03 -0.18574187680E+02  0.10273648923E+04  0.87913671259E+02 0.  0.
         13    1    3    3    0    0  0.71678201105E+03  0.23940954703E+03 -0.49753075882E+02  0.75734321885E+03  0.00000000000E+00 0. -1.
        -13    1    3    3    0    0  0.25976776808E+03  0.66785385550E+02  0.31178888202E+02  0.27002167344E+03  0.00000000000E+00 0.  1.
         22    1    1    2    0    0 -0.97654977913E+03 -0.30619493258E+03  0.37546749554E+03  0.10901287300E+04  0.00000000000E+00 0. -1.
<mgrwt>
<rscale>  0 0.20872006E+04</rscale>
<asrwt>0</asrwt>
<pdfrwt beam="1">  1        1 0.19033746E+00 0.20872006E+04</pdfrwt>
<pdfrwt beam="2">  1       -1 0.13543079E+00 0.20872006E+04</pdfrwt>
<totfact> 0.42233131E+00</totfact>
</mgrwt>
</event>
<event>
 6    1  0.1001928E-005  0.1009958E+04  0.7818608E-02  0.9297690E-01
         -2   -1    0    0    0  501 -0.00000000000E+00  0.00000000000E+00  0.20577164101E+03  0.20577164101E+03  0.00000000000E+00 0.  1.
          2   -1    0    0  501    0  0.00000000000E+00 -0.00000000000E+00 -0.12392565384E+04  0.12392565384E+04  0.00000000000E+00 0. -1.
         23    2    1    2    0    0 -0.28108069940E+03  0.20158849586E+02 -0.11128764238E+04  0.11522556512E+04  0.98926297850E+02 0.  0.
         13    1    3    3    0    0 -0.16858806130E+03 -0.19723901615E+02 -0.78990969069E+03  0.80794076897E+03  0.00000000000E+00 0. -1.
        -13    1    3    3    0    0 -0.11249263810E+03  0.39882751202E+02 -0.32296673307E+03  0.34431488225E+03  0.00000000000E+00 0.  1.
         22    1    1    2    0    0  0.28108069940E+03 -0.20158849586E+02  0.79391526385E+02  0.29277252818E+03  0.00000000000E+00 0.  1.
<mgrwt>
<rscale>  0 0.10099581E+04</rscale>
<asrwt>0</asrwt>
<pdfrwt beam="1">  1        2 0.19065485E+00 0.10099581E+04</pdfrwt>
<pdfrwt beam="2">  1       -2 0.31657176E-01 0.10099581E+04</pdfrwt>
<totfact> 0.16580766E+02</totfact>
</mgrwt>
</event>
<event>
 6    1  0.1001928E-005  0.2096194E+04  0.7818608E-02  0.8562922E-01
          2   -1    0    0  501    0  0.00000000000E+00  0.00000000000E+00  0.52795192851E+03  0.52795192851E+03  0.00000000000E+00 0. -1.
         -2   -1    0    0    0  501 -0.00000000000E+00 -0.00000000000E+00 -0.20806963987E+04  0.20806963987E+04  0.00000000000E+00 0.  1.
         23    2    1    2    0    0 -0.10416577808E+04 -0.39896389384E+02 -0.88239843134E+03  0.13692910478E+04  0.98429303018E+02 0.  0.
         13    1    3    3    0    0 -0.93655503925E+03 -0.59347023057E+02 -0.81496430678E+03  0.12429095832E+04  0.00000000000E+00 0. -1.
        -13    1    3    3    0    0 -0.10510274156E+03  0.19450633674E+02 -0.67434124561E+02  0.12638146458E+03  0.00000000000E+00 0.  1.
         22    1    1    2    0    0  0.10416577808E+04  0.39896389384E+02 -0.67034603880E+03  0.12393572794E+04  0.00000000000E+00 0.  1.
<mgrwt>
<rscale>  0 0.20961943E+04</rscale>
<asrwt>0</asrwt>
<pdfrwt beam="1">  1        2 0.81223375E-01 0.20961943E+04</pdfrwt>
<pdfrwt beam="2">  1       -2 0.32010713E+00 0.20961943E+04</pdfrwt>
<totfact> 0.12750137E+00</totfact>
</mgrwt>
</event>
<event>
 6    1  0.1001928E-005  0.4145314E+04  0.7818608E-02  0.7975857E-01
         -3   -1    0    0    0  501 -0.00000000000E+00  0.00000000000E+00  0.15794751433E+04  0.15794751433E+04  0.00000000000E+00 0.  1.
          3   -1    0    0  501    0  0.00000000000E+00 -0.00000000000E+00 -0.27198323234E+04  0.27198323234E+04  0.00000000000E+00 0. -1.
         23    2    1    2    0    0 -0.48313818324E+03  0.15669481520E+04  0.74267234456E+03  0.18023995377E+04  0.91284537254E+02 0.  0.
         11    1    3    3    0    0 -0.31602308615E+03  0.10714918989E+04  0.46130947121E+03  0.12086239732E+04  0.00000000000E+00 0. -1.
        -11    1    3    3    0    0 -0.16711509709E+03  0.49545625308E+03  0.28136287335E+03  0.59377556441E+03  0.00000000000E+00 0.  1.
         22    1    1    2    0    0  0.48313818324E+03 -0.15669481520E+04 -0.18830295247E+04  0.24969079290E+04  0.00000000000E+00 0.  1.
<mgrwt>
<rscale>  0 0.41453142E+04</rscale>
<asrwt>0</asrwt>
<pdfrwt beam="1">  1        3 0.41843574E+00 0.41453142E+04</pdfrwt>
<pdfrwt beam="2">  1       -3 0.24299617E+00 0.41453142E+04</pdfrwt>
<totfact> 0.14343503E-03</totfact>
</mgrwt>
</event>
<event>
 6    1  0.1001928E-005  0.8910772E+03  0.7818608E-02  0.9436805E-01
         -1   -1    0    0    0  501 -0.00000000000E+00  0.00000000000E+00  0.43245772699E+03  0.43245772699E+03  0.00000000000E+00 0.  1.
          1   -1    0    0  501    0  0.00000000000E+00 -0.00000000000E+00 -0.45901509535E+03  0.45901509535E+03  0.00000000000E+00 0. -1.
         23    2    1    2    0    0 -0.11643969411E+03  0.57710042671E+01  0.41212013695E+03  0.43756814013E+03  0.89617872798E+02 0.  0.
         11    1    3    3    0    0 -0.14982920280E+01 -0.13697514362E+01  0.16412856151E+03  0.16414111551E+03  0.00000000000E+00 0.  1.
        -11    1    3    3    0    0 -0.11494140208E+03  0.71407557033E+01  0.24799157545E+03  0.27342702463E+03  0.00000000000E+00 0. -1.
         22    1    1    2    0    0  0.11643969411E+03 -0.57710042671E+01 -0.43867750532E+03  0.45390468220E+03  0.00000000000E+00 0. -1.
<mgrwt>
<rscale>  0 0.89107716E+03</rscale>
<asrwt>0</asrwt>
<pdfrwt beam="1">  1        1 0.70617707E-01 0.89107716E+03</pdfrwt>
<pdfrwt beam="2">  1       -1 0.66531958E-01 0.89107716E+03</pdfrwt>
<totfact> 0.11508674E+02</totfact>
</mgrwt>
</event>
<event>
 6    1  0.1001928E-005  0.1768963E+04  0.7818608E-02  0.8722981E-01
         -1   -1    0    0    0  501 -0.00000000000E+00  0.00000000000E+00  0.30023212184E+03  0.30023212184E+03  0.00000000000E+00 0.  1.
          1   -1    0    0  501    0  0.00000000000E+00 -0.00000000000E+00 -0.26056744788E+04  0.26056744788E+04  0.00000000000E+00 0. -1.
         23    2    1    2    0    0 -0.86166140697E+03  0.18608912688E+03 -0.12118460292E+04  0.15012562984E+04  0.90056269430E+02 0.  0.
         13    1    3    3    0    0 -0.43863252818E+03  0.80692389909E+02 -0.54009711298E+03  0.70043889670E+03  0.00000000000E+00 0.  1.
        -13    1    3    3    0    0 -0.42302887880E+03  0.10539673697E+03 -0.67174891622E+03  0.80081740172E+03  0.00000000000E+00 0. -1.
         22    1    1    2    0    0  0.86166140697E+03 -0.18608912688E+03 -0.10935963278E+04  0.14046503022E+04  0.00000000000E+00 0.  1.
<mgrwt>
<rscale>  0 0.17689626E+04</rscale>
<asrwt>0</asrwt>
<pdfrwt beam="1">  1        1 0.40087299E+00 0.17689626E+04</pdfrwt>
<pdfrwt beam="2">  1       -1 0.46189558E-01 0.17689626E+04</pdfrwt>
<totfact> 0.50527357E+00</totfact>
</mgrwt>
</event>
<event>
 6    1  0.1001928E-005  0.1644269E+04  0.7818608E-02  0.8793804E-01
         -1   -1    0    0    0  501 -0.00000000000E+00  0.00000000000E+00  0.37946793770E+03  0.37946793770E+03  0.00000000000E+00 0.  1.
          1   -1    0    0  501    0  0.00000000000E+00 -0.00000000000E+00 -0.17811918450E+04  0.17811918450E+04  0.00000000000E+00 0. -1.
         23    2    1    2    0    0 -0.24076942192E+03  0.57844675962E+03 -0.13973932359E+04  0.15340902949E+04  0.90302873829E+02 0.  0.
         13    1    3    3    0    0 -0.35213985817E+02  0.13570219578E+03 -0.23959959016E+03  0.27760236732E+03  0.00000000000E+00 0.  1.
        -13    1    3    3    0    0 -0.20555543611E+03  0.44274456384E+03 -0.11577936457E+04  0.12564879276E+04  0.00000000000E+00 0. -1.
         22    1    1    2    0    0  0.24076942192E+03 -0.57844675962E+03 -0.43306713850E+01  0.62656948774E+03  0.00000000000E+00 0.  1.
<mgrwt>
<rscale>  0 0.16442691E+04</rscale>
<asrwt>0</asrwt>
<pdfrwt beam="1">  1        1 0.27402952E+00 0.16442691E+04</pdfrwt>
<pdfrwt beam="2">  1       -1 0.58379681E-01 0.16442691E+04</pdfrwt>
<totfact> 0.11927077E+01</totfact>
</mgrwt>
</event>
<event>
 6    1  0.1001928E-005  0.6593549E+03  0.7818608E-02  0.9789382E-01
         -1   -1    0    0    0  501 -0.00000000000E+00  0.00000000000E+00  0.55907331484E+03  0.55907331484E+03  0.00000000000E+00 0.  1.
          1   -1    0    0  501    0  0.00000000000E+00 -0.00000000000E+00 -0.19440600427E+03  0.19440600427E+03  0.00000000000E+00 0. -1.
         23    2    1    2    0    0 -0.16325354010E+03 -0.67821794424E+02  0.49553471532E+03  0.53352979813E+03  0.88588245548E+02 0.  0.
         11    1    3    3    0    0 -0.14079779663E+02  0.83522822891E+01  0.13497253080E+03  0.13596170374E+03  0.00000000000E+00 0.  1.
        -11    1    3    3    0    0 -0.14917376043E+03 -0.76174076713E+02  0.36056218453E+03  0.39756809439E+03  0.00000000000E+00 0. -1.
         22    1    1    2    0    0  0.16325354010E+03  0.67821794424E+02 -0.13086740475E+03  0.21994952098E+03  0.00000000000E+00 0. -1.
<mgrwt>
<rscale>  0 0.65935486E+03</rscale>
<asrwt>0</asrwt>
<pdfrwt beam="1">  1        1 0.29908616E-01 0.65935486E+03</pdfrwt>
<pdfrwt beam="2">  1       -1 0.86011279E-01 0.65935486E+03</pdfrwt>
<totfact> 0.20924816E+02</totfact>
</mgrwt>
</event>
<event>
 6    1  0.1001928E-005  0.3136117E+04  0.7818608E-02  0.8205895E-01
          2   -1    0    0  501    0  0.00000000000E+00  0.00000000000E+00  0.95693894655E+03  0.95693894655E+03  0.00000000000E+00 0. -1.
         -2   -1    0    0    0  501 -0.00000000000E+00 -0.00000000000E+00 -0.25694512769E+04  0.25694512769E+04  0.00000000000E+00 0.  1.
         23    2    1    2    0    0  0.31297011731E+03  0.14511136833E+04 -0.24347572438E+03  0.15069986209E+04  0.89906611245E+02 0.  0.
         11    1    3    3    0    0  0.16180379954E+03  0.88294927511E+03 -0.11270096177E+03  0.90469961796E+03  0.00000000000E+00 0.  1.
        -11    1    3    3    0    0  0.15116631777E+03  0.56816440818E+03 -0.13077476261E+03  0.60229900289E+03  0.00000000000E+00 0. -1.
         22    1    1    2    0    0 -0.31297011731E+03 -0.14511136833E+04 -0.13690366060E+04  0.20193916026E+04  0.00000000000E+00 0.  1.
<mgrwt>
<rscale>  0 0.31361173E+04</rscale>
<asrwt>0</asrwt>
<pdfrwt beam="1">  1        2 0.14722138E+00 0.31361173E+04</pdfrwt>
<pdfrwt beam="2">  1       -2 0.39530020E+00 0.31361173E+04</pdfrwt>
<totfact> 0.18102329E-01</totfact>
</mgrwt>
</event>
<event>
 6    1  0.1001928E-005  0.7380762E+04  0.7818608E-02  0.7539393E-01
         -1   -1    0    0    0  501 -0.00000000000E+00  0.00000000000E+00  0.59347604881E+04  0.59347604881E+04  0.00000000000E+00 0.  1.
          1   -1    0    0  501    0  0.00000000000E+00 -0.00000000000E+00 -0.22947703503E+04  0.22947703503E+04  0.00000000000E+00 0. -1.
         23    2    1    2    0    0  0.35905609401E+04 -0.68815834416E+03  0.12638465079E+04  0.38692844783E+04  0.91458227573E+02 0.  0.
         13    1    3    3    0    0  0.29943818013E+04 -0.60786895504E+03  0.10622711045E+04  0.32348488277E+04  0.00000000000E+00 0. -1.
        -13    1    3    3    0    0  0.59617913882E+03 -0.80289389114E+02  0.20157540337E+03  0.63443565065E+03  0.00000000000E+00 0.  1.
         22    1    1    2    0    0 -0.35905609401E+04  0.68815834416E+03  0.23761436299E+04  0.43602463601E+04  0.00000000000E+00 0.  1.
<mgrwt>
<rscale>  0 0.73807621E+04</rscale>
<asrwt>0</asrwt>
<pdfrwt beam="1">  1        1 0.35304159E+00 0.73807621E+04</pdfrwt>
<pdfrwt beam="2">  1       -1 0.91304007E+00 0.73807621E+04</pdfrwt>
<totfact> 0.54407560E-06</totfact>
</mgrwt>
</event>
<event>
 6    1  0.1001928E-005  0.2340987E+04  0.7818608E-02  0.8461934E-01
          2   -1    0    0  501    0  0.00000000000E+00  0.00000000000E+00  0.16349467776E+04  0.16349467776E+04  0.00000000000E+00 0. -1.
         -2   -1    0    0    0  501 -0.00000000000E+00 -0.00000000000E+00 -0.83798125136E+03  0.83798125136E+03  0.00000000000E+00 0.  1.
         23    2    1    2    0    0  0.70340589254E+03 -0.46712653435E+03 -0.45458011227E+03  0.96317522336E+03  0.89868702360E+02 0.  0.
         11    1    3    3    0    0  0.55909702788E+03 -0.38362593819E+03 -0.32447511883E+03  0.75169305556E+03  0.00000000000E+00 0.  1.
        -11    1    3    3    0    0  0.14430886466E+03 -0.83500596161E+02 -0.13010499344E+03  0.21148216779E+03  0.00000000000E+00 0. -1.
         22    1    1    2    0    0 -0.70340589254E+03  0.46712653435E+03  0.12515456385E+04  0.15097528056E+04  0.00000000000E+00 0. -1.
<mgrwt>
<rscale>  0 0.23409868E+04</rscale>
<asrwt>0</asrwt>
<pdfrwt beam="1">  1        2 0.25153027E+00 0.23409868E+04</pdfrwt>
<pdfrwt beam="2">  1       -2 0.12892019E+00 0.23409868E+04</pdfrwt>
<totfact> 0.42736884E+00</totfact>
</mgrwt>
</event>
<event>
 6    1  0.1001928E-005  0.1641903E+04  0.7818608E-02  0.8795211E-01
          1   -1    0    0  501    0  0.00000000000E+00  0.00000000000E+00  0.17416488031E+04  0.17416488031E+04  0.00000000000E+00 0. -1.
         -1   -1    0    0    0  501 -0.00000000000E+00 -0.00000000000E+00 -0.38696724240E+03  0.38696724240E+03  0.00000000000E+00 0.  1.
         23    2    1    2    0    0 -0.13268337591E+03  0.40604939093E+03  0.15844072257E+04  0.16435852556E+04  0.92440518212E+02 0.  0.
         13    1    3    3    0    0 -0.37077651992E+02  0.29773520554E+02  0.21590620909E+03  0.22108076788E+03  0.00000000000E+00 0.  1.
        -13    1    3    3    0    0 -0.95605723919E+02  0.37627587037E+03  0.13685010166E+04  0.14225044877E+04  0.00000000000E+00 0. -1.
         22    1    1    2    0    0  0.13268337591E+03 -0.40604939093E+03 -0.22972566492E+03  0.48503078999E+03  0.00000000000E+00 0.  1.
<mgrwt>
<rscale>  0 0.16419026E+04</rscale>
<asrwt>0</asrwt>
<pdfrwt beam="1">  1        1 0.26794596E+00 0.16419026E+04</pdfrwt>
<pdfrwt beam="2">  1       -1 0.59533423E-01 0.16419026E+04</pdfrwt>
<totfact> 0.12210898E+01</totfact>
</mgrwt>
</event>
<event>
 6    1  0.1001928E-005  0.2406135E+04  0.7818608E-02  0.8437210E-01
          2   -1    0    0  501    0  0.00000000000E+00  0.00000000000E+00  0.33160713574E+04  0.33160713574E+04  0.00000000000E+00 0. -1.
         -2   -1    0    0    0  501 -0.00000000000E+00 -0.00000000000E+00 -0.43647177870E+03  0.43647177870E+03  0.00000000000E+00 0.  1.
         23    2    1    2    0    0 -0.66516536657E+03 -0.96641802807E+03  0.18489082556E+04  0.21908986908E+04  0.71878828609E+02 0.  0.
         11    1    3    3    0    0 -0.38338785635E+03 -0.61644147255E+03  0.11591749206E+04  0.13677254234E+04  0.00000000000E+00 0.  1.
        -11    1    3    3    0    0 -0.28177751022E+03 -0.34997655552E+03  0.68973333505E+03  0.82317326740E+03  0.00000000000E+00 0. -1.
         22    1    1    2    0    0  0.66516536657E+03  0.96641802807E+03  0.10306913231E+04  0.15616444452E+04  0.00000000000E+00 0.  1.
<mgrwt>
<rscale>  0 0.24061351E+04</rscale>
<asrwt>0</asrwt>
<pdfrwt beam="1">  1        2 0.51016481E+00 0.24061351E+04</pdfrwt>
<pdfrwt beam="2">  1       -2 0.67149507E-01 0.24061351E+04</pdfrwt>
<totfact> 0.19899480E+00</totfact>
</mgrwt>
</event>
<event>
 6    1  0.1001928E-005  0.4070531E+04  0.7818608E-02  0.7990467E-01
          2   -1    0    0  501    0  0.00000000000E+00  0.00000000000E+00  0.11557958943E+04  0.11557958943E+04  0.00000000000E+00 0. -1.
         -2   -1    0    0    0  501 -0.00000000000E+00 -0.00000000000E+00 -0.35839420917E+04  0.35839420917E+04  0.00000000000E+00 0.  1.
         23    2    1    2    0    0 -0.12604737042E+04 -0.66585636817E+03  0.47502647853E+03  0.15054575022E+04  0.92700990300E+02 0.  0.
         11    1    3    3    0    0 -0.65135759570E+03 -0.36129446424E+03  0.29419360919E+03  0.80084348474E+03  0.00000000000E+00 0.  1.
        -11    1    3    3    0    0 -0.60911610849E+03 -0.30456190393E+03  0.18083286935E+03  0.70461401744E+03  0.00000000000E+00 0. -1.
         22    1    1    2    0    0  0.12604737042E+04  0.66585636817E+03 -0.29031726759E+04  0.32342804838E+04  0.00000000000E+00 0.  1.
<mgrwt>
<rscale>  0 0.40705310E+04</rscale>
<asrwt>0</asrwt>
<pdfrwt beam="1">  1        2 0.17781475E+00 0.40705310E+04</pdfrwt>
<pdfrwt beam="2">  1       -2 0.55137571E+00 0.40705310E+04</pdfrwt>
<totfact> 0.13287856E-02</totfact>
</mgrwt>
</event>
<event>
 6    1  0.1001928E-005  0.3727503E+04  0.7818608E-02  0.8061894E-01
          2   -1    0    0  501    0  0.00000000000E+00  0.00000000000E+00  0.13715149471E+04  0.13715149471E+04  0.00000000000E+00 0. -1.
         -2   -1    0    0    0  501 -0.00000000000E+00 -0.00000000000E+00 -0.25326513726E+04  0.25326513726E+04  0.00000000000E+00 0.  1.
         23    2    1    2    0    0 -0.15005772815E+04 -0.10005396527E+04 -0.93580564592E+02  0.18083401603E+04  0.92331138049E+02 0.  0.
         13    1    3    3    0    0 -0.84854986383E+03 -0.61801036503E+03 -0.40715085110E+02  0.10505386242E+04  0.00000000000E+00 0. -1.
        -13    1    3    3    0    0 -0.65202741768E+03 -0.38252928764E+03 -0.52865479483E+02  0.75780153617E+03  0.00000000000E+00 0.  1.
         22    1    1    2    0    0  0.15005772815E+04  0.10005396527E+04 -0.10675558608E+04  0.20958261594E+04  0.00000000000E+00 0. -1.
<mgrwt>
<rscale>  0 0.37275028E+04</rscale>
<asrwt>0</asrwt>
<pdfrwt beam="1">  1        2 0.21100230E+00 0.37275028E+04</pdfrwt>
<pdfrwt beam="2">  1       -2 0.38963867E+00 0.37275028E+04</pdfrwt>
<totfact> 0.10502989E-01</totfact>
</mgrwt>
</event>
<event>
 6    1  0.1001928E-005  0.1167065E+04  0.7818608E-02  0.9142183E-01
          1   -1    0    0  501    0  0.00000000000E+00  0.00000000000E+00  0.16539200456E+04  0.16539200456E+04  0.00000000000E+00 0. -1.
         -1   -1    0    0    0  501 -0.00000000000E+00 -0.00000000000E+00 -0.20588055346E+03  0.20588055346E+03  0.00000000000E+00 0.  1.
         23    2    1    2    0    0 -0.56350609340E+03  0.99717379214E+02  0.87950839380E+03  0.10531344458E+04  0.89858072316E+02 0.  0.
         11    1    3    3    0    0 -0.27450750015E+03  0.87894951520E+02  0.48043602819E+03  0.56026660380E+03  0.00000000000E+00 0. -1.
        -11    1    3    3    0    0 -0.28899859325E+03  0.11822427694E+02  0.39907236560E+03  0.49286784201E+03  0.00000000000E+00 0.  1.
         22    1    1    2    0    0  0.56350609340E+03 -0.99717379214E+02  0.56853109834E+03  0.80666615325E+03  0.00000000000E+00 0.  1.
<mgrwt>
<rscale>  0 0.11670647E+04</rscale>
<asrwt>0</asrwt>
<pdfrwt beam="1">  1        1 0.25444923E+00 0.11670647E+04</pdfrwt>
<pdfrwt beam="2">  1       -1 0.31673932E-01 0.11670647E+04</pdfrwt>
<totfact> 0.47145069E+01</totfact>
</mgrwt>
</event>
<event>
 6    1  0.1001928E-005  0.1389621E+04  0.7818608E-02  0.8961366E-01
         -1   -1    0    0    0  501 -0.00000000000E+00  0.00000000000E+00  0.64267461933E+03  0.64267461933E+03  0.00000000000E+00 0.  1.
          1   -1    0    0  501    0  0.00000000000E+00 -0.00000000000E+00 -0.75117582772E+03  0.75117582772E+03  0.00000000000E+00 0. -1.
         23    2    1    2    0    0  0.34734047564E+03  0.39155523565E+03  0.39934096978E+03  0.66455997919E+03  0.90586131502E+02 0.  0.
         13    1    3    3    0    0  0.29777501943E+03  0.37430860547E+03  0.36738738281E+03  0.60311722192E+03  0.00000000000E+00 0. -1.
        -13    1    3    3    0    0  0.49565456206E+02  0.17246630181E+02  0.31953586970E+02  0.61442757277E+02  0.00000000000E+00 0.  1.
         22    1    1    2    0    0 -0.34734047564E+03 -0.39155523565E+03 -0.50784217817E+03  0.72929046786E+03  0.00000000000E+00 0. -1.
<mgrwt>
<rscale>  0 0.13896210E+04</rscale>
<asrwt>0</asrwt>
<pdfrwt beam="1">  1        1 0.11556551E+00 0.13896210E+04</pdfrwt>
<pdfrwt beam="2">  1       -1 0.98873018E-01 0.13896210E+04</pdfrwt>
<totfact> 0.23331177E+01</totfact>
</mgrwt>
</event>
<event>
 6    1  0.1001928E-005  0.1620359E+04  0.7818608E-02  0.8808138E-01
         -2   -1    0    0    0  501 -0.00000000000E+00  0.00000000000E+00  0.47173158662E+03  0.47173158662E+03  0.00000000000E+00 0.  1.
          2   -1    0    0  501    0  0.00000000000E+00 -0.00000000000E+00 -0.13914493989E+04  0.13914493989E+04  0.00000000000E+00 0. -1.
         23    2    1    2    0    0  0.20727448152E+03  0.21636938926E+03  0.40169084331E+03  0.50822738544E+03  0.84623391671E+02 0.  0.
         11    1    3    3    0    0  0.93381514351E+02  0.75840475440E+02  0.99866201120E+02  0.15634942617E+03  0.00000000000E+00 0. -1.
        -11    1    3    3    0    0  0.11389296717E+03  0.14052891382E+03  0.30182464219E+03  0.35187795927E+03  0.00000000000E+00 0.  1.
         22    1    1    2    0    0 -0.20727448152E+03 -0.21636938926E+03 -0.13214086556E+04  0.13549536001E+04  0.00000000000E+00 0. -1.
<mgrwt>
<rscale>  0 0.16203588E+04</rscale>
<asrwt>0</asrwt>
<pdfrwt beam="1">  1        2 0.21406914E+00 0.16203588E+04</pdfrwt>
<pdfrwt beam="2">  1       -2 0.72574091E-01 0.16203588E+04</pdfrwt>
<totfact> 0.24062008E+01</totfact>
</mgrwt>
</event>
<event>
 6    1  0.1001928E-005  0.1140472E+04  0.7818608E-02  0.9166619E-01
          1   -1    0    0  501    0  0.00000000000E+00  0.00000000000E+00  0.41389310191E+03  0.41389310191E+03  0.00000000000E+00 0. -1.
         -1   -1    0    0    0  501 -0.00000000000E+00 -0.00000000000E+00 -0.78563517159E+03  0.78563517159E+03  0.00000000000E+00 0.  1.
         23    2    1    2    0    0 -0.70439857203E+02 -0.15610221057E+03  0.38090840544E+03  0.42763941407E+03  0.91948798300E+02 0.  0.
         13    1    3    3    0    0 -0.29895631649E+02 -0.96799980195E+02  0.12012868267E+03  0.15714606377E+03  0.00000000000E+00 0.  1.
        -13    1    3    3    0    0 -0.40544225553E+02 -0.59302230373E+02  0.26077972277E+03  0.27049335031E+03  0.00000000000E+00 0. -1.
         22    1    1    2    0    0  0.70439857203E+02  0.15610221057E+03 -0.75265047512E+03  0.77188885943E+03  0.00000000000E+00 0.  1.
<mgrwt>
<rscale>  0 0.11404718E+04</rscale>
<asrwt>0</asrwt>
<pdfrwt beam="1">  1        1 0.63675862E-01 0.11404718E+04</pdfrwt>
<pdfrwt beam="2">  1       -1 0.12086695E+00 0.11404718E+04</pdfrwt>
<totfact> 0.34659375E+01</totfact>
</mgrwt>
</event>
<event>
 6    1  0.1001928E-005  0.3024384E+04  0.7818608E-02  0.8236802E-01
          2   -1    0    0  501    0  0.00000000000E+00  0.00000000000E+00  0.14216078808E+04  0.14216078808E+04  0.00000000000E+00 0. -1.
         -2   -1    0    0    0  501 -0.00000000000E+00 -0.00000000000E+00 -0.16085481067E+04  0.16085481067E+04  0.00000000000E+00 0.  1.
         23    2    1    2    0    0 -0.15604744839E+03  0.14696640156E+04  0.21959763402E+03  0.14973363123E+04  0.97620624521E+02 0.  0.
         11    1    3    3    0    0 -0.26448379756E+02  0.70751278758E+03  0.11095672979E+03  0.71664862888E+03  0.00000000000E+00 0.  1.
        -11    1    3    3    0    0 -0.12959906864E+03  0.76215122804E+03  0.10864090423E+03  0.78068768344E+03  0.00000000000E+00 0. -1.
         22    1    1    2    0    0  0.15604744839E+03 -0.14696640156E+04 -0.40653785997E+03  0.15328196752E+04  0.00000000000E+00 0. -1.
<mgrwt>
<rscale>  0 0.30243840E+04</rscale>
<asrwt>0</asrwt>
<pdfrwt beam="1">  1        2 0.21870890E+00 0.30243840E+04</pdfrwt>
<pdfrwt beam="2">  1       -2 0.24746894E+00 0.30243840E+04</pdfrwt>
<totfact> 0.80037757E-01</totfact>
</mgrwt>
</event>
<event>
 6    1  0.1001928E-005  0.1474535E+04  0.7818608E-02  0.8901565E-01
         -4   -1    0    0    0  501 -0.00000000000E+00  0.00000000000E+00  0.34271940269E+03  0.34271940269E+03  0.00000000000E+00 0. -1.
          4   -1    0    0  501    0  0.00000000000E+00 -0.00000000000E+00 -0.15860311038E+04  0.15860311038E+04  0.00000000000E+00 0.  1.
         23    2    1    2    0    0 -0.31342968132E+03 -0.63640379737E+03 -0.37394087054E+03  0.80667492993E+03  0.87434029287E+02 0.  0.
         13    1    3    3    0    0 -0.19787918843E+03 -0.34210320456E+03 -0.16857636779E+03  0.42966122418E+03  0.00000000000E+00 0. -1.
        -13    1    3    3    0    0 -0.11555049289E+03 -0.29430059281E+03 -0.20536450275E+03  0.37701370575E+03  0.00000000000E+00 0.  1.
         22    1    1    2    0    0  0.31342968132E+03  0.63640379737E+03 -0.86937083053E+03  0.11220755765E+04  0.00000000000E+00 0. -1.
<mgrwt>
<rscale>  0 0.14745354E+04</rscale>
<asrwt>0</asrwt>
<pdfrwt beam="1">  1        4 0.24400478E+00 0.14745354E+04</pdfrwt>
<pdfrwt beam="2">  1       -4 0.52726062E-01 0.14745354E+04</pdfrwt>
<totfact> 0.46102866E-01</totfact>
</mgrwt>
</event>
<event>
 6    1  0.1001928E-005  0.2073894E+04  0.7818608E-02  0.8572831E-01
          1   -1    0    0  501    0  0.00000000000E+00  0.00000000000E+00  0.11368453407E+04  0.11368453407E+04  0.00000000000E+00 0. -1.
         -1   -1    0    0    0  501 -0.00000000000E+00 -0.00000000000E+00 -0.94582718643E+03  0.94582718643E+03  0.00000000000E+00 0.  1.
         23    2    1    2    0    0 -0.15604257162E+03 -0.21838461726E+03  0.10995191614E+04  0.11353525150E+04  0.89676205478E+02 0.  0.
         13    1    3    3    0    0 -0.12202556951E+03 -0.12483381126E+03  0.55490163804E+03  0.58171259909E+03  0.00000000000E+00 0.  1.
        -13    1    3    3    0    0 -0.34017002110E+02 -0.93550806004E+02  0.54461752340E+03  0.55363991595E+03  0.00000000000E+00 0. -1.
         22    1    1    2    0    0  0.15604257162E+03  0.21838461726E+03 -0.90850100719E+03  0.94732001207E+03  0.00000000000E+00 0.  1.
<mgrwt>
<rscale>  0 0.20738941E+04</rscale>
<asrwt>0</asrwt>
<pdfrwt beam="1">  1        1 0.17489928E+00 0.20738941E+04</pdfrwt>
<pdfrwt beam="2">  1       -1 0.14551188E+00 0.20738941E+04</pdfrwt>
<totfact> 0.41513577E+00</totfact>
</mgrwt>
</event>
<event>
 6    1  0.1001928E-005  0.9779125E+03  0.7818608E-02  0.9333107E-01
          3   -1    0    0  501    0  0.00000000000E+00  0.00000000000E+00  0.50934692970E+03  0.50934692970E+03  0.00000000000E+00 0. -1.
         -3   -1    0    0    0  501 -0.00000000000E+00 -0.00000000000E+00 -0.46938182882E+03  0.46938182882E+03  0.00000000000E+00 0.  1.
         23    2    1    2    0    0 -0.12175707444E+03 -0.30946965302E+03  0.37294237094E+03  0.50812264541E+03  0.92229926865E+02 0.  0.
         11    1    3    3    0    0 -0.57901683165E+02 -0.16404121625E+03  0.12713548413E+03  0.21546590650E+03  0.00000000000E+00 0. -1.
        -11    1    3    3    0    0 -0.63855391280E+02 -0.14542843678E+03  0.24580688682E+03  0.29265673890E+03  0.00000000000E+00 0.  1.
         22    1    1    2    0    0  0.12175707444E+03  0.30946965302E+03 -0.33297727007E+03  0.47060611312E+03  0.00000000000E+00 0.  1.
<mgrwt>
<rscale>  0 0.97791246E+03</rscale>
<asrwt>0</asrwt>
<pdfrwt beam="1">  1        3 0.78361066E-01 0.97791246E+03</pdfrwt>
<pdfrwt beam="2">  1       -3 0.72212589E-01 0.97791246E+03</pdfrwt>
<totfact> 0.72767308E+00</totfact>
</mgrwt>
</event>
<event>
 6    1  0.1001928E-005  0.7482188E+03  0.7818608E-02  0.9638149E-01
          1   -1    0    0  501    0  0.00000000000E+00  0.00000000000E+00  0.10916590446E+04  0.10916590446E+04  0.00000000000E+00 0. -1.
         -1   -1    0    0    0  501 -0.00000000000E+00 -0.00000000000E+00 -0.12820654448E+03  0.12820654448E+03  0.00000000000E+00 0.  1.
         23    2    1    2    0    0  0.29589110446E+03  0.19403459673E+03  0.65737696252E+03  0.75201603513E+03  0.90458143996E+02 0.  0.
         11    1    3    3    0    0  0.12262094386E+03  0.36677559622E+02  0.28135122114E+03  0.30909488655E+03  0.00000000000E+00 0.  1.
        -11    1    3    3    0    0  0.17327016060E+03  0.15735703711E+03  0.37602574137E+03  0.44292114858E+03  0.00000000000E+00 0. -1.
         22    1    1    2    0    0 -0.29589110446E+03 -0.19403459673E+03  0.30607553764E+03  0.46784955399E+03  0.00000000000E+00 0. -1.
<mgrwt>
<rscale>  0 0.74821878E+03</rscale>
<asrwt>0</asrwt>
<pdfrwt beam="1">  1        1 0.16794754E+00 0.74821878E+03</pdfrwt>
<pdfrwt beam="2">  1       -1 0.19724084E-01 0.74821878E+03</pdfrwt>
<totfact> 0.27255795E+02</totfact>
</mgrwt>
</event>
<event>
 6    1  0.1001928E-005  0.1444731E+04  0.7818608E-02  0.8922062E-01
          2   -1    0    0  501    0  0.00000000000E+00  0.00000000000E+00  0.16249284897E+04  0.16249284897E+04  0.00000000000E+00 0. -1.
         -2   -1    0    0    0  501 -0.00000000000E+00 -0.00000000000E+00 -0.32112906523E+03  0.32112906523E+03  0.00000000000E+00 0.  1.
         23    2    1    2    0    0 -0.39922422672E+03  0.28766309217E+03 -0.50913134433E+02  0.50474698637E+03  0.10023639657E+03 0.  0.
         13    1    3    3    0    0 -0.14166299481E+03  0.53754684889E+02 -0.39740985865E+02  0.15664391531E+03  0.00000000000E+00 0. -1.
        -13    1    3    3    0    0 -0.25756123191E+03  0.23390840728E+03 -0.11172148568E+02  0.34810307106E+03  0.00000000000E+00 0.  1.
         22    1    1    2    0    0  0.39922422672E+03 -0.28766309217E+03  0.13547125589E+04  0.14413105685E+04  0.00000000000E+00 0. -1.
<mgrwt>
<rscale>  0 0.14447308E+04</rscale>
<asrwt>0</asrwt>
<pdfrwt beam="1">  1        2 0.24998899E+00 0.14447308E+04</pdfrwt>
<pdfrwt beam="2">  1       -2 0.49404473E-01 0.14447308E+04</pdfrwt>
<totfact> 0.40622526E+01</totfact>
</mgrwt>
</event>
<event>
 6    1  0.1078625E-005  0.2047032E+04  0.7818608E-02  0.8584942E-01
         -2   -1    0    0    0  501 -0.00000000000E+00  0.00000000000E+00  0.64651357822E+03  0.64651357822E+03  0.00000000000E+00 0.  1.
          2   -1    0    0  501    0  0.00000000000E+00 -0.00000000000E+00 -0.16203598497E+04  0.16203598497E+04  0.00000000000E+00 0. -1.
         23    2    1    2    0    0 -0.91296408751E+02 -0.52955086411E+03 -0.14499383625E+04  0.15489438833E+04  0.90259330922E+02 0.  0.
         13    1    3    3    0    0  0.15835654691E+02 -0.11738703971E+03 -0.34592071592E+03  0.36563865599E+03  0.00000000000E+00 0.  1.
        -13    1    3    3    0    0 -0.10713206344E+03 -0.41216382440E+03 -0.11040176466E+04  0.11833052273E+04  0.00000000000E+00 0. -1.
         22    1    1    2    0    0  0.91296408751E+02  0.52955086411E+03  0.47609209097E+03  0.71792954460E+03  0.00000000000E+00 0.  1.
<mgrwt>
<rscale>  0 0.20470317E+04</rscale>
<asrwt>0</asrwt>
<pdfrwt beam="1">  1        2 0.24928613E+00 0.20470317E+04</pdfrwt>
<pdfrwt beam="2">  1       -2 0.99463628E-01 0.20470317E+04</pdfrwt>
<totfact> 0.84118967E+00</totfact>
</mgrwt>
</event>
<event>
 6    1  0.1001928E-005  0.2690860E+04  0.7818608E-02  0.8337977E-01
         -2   -1    0    0    0  501 -0.00000000000E+00  0.00000000000E+00  0.59432087877E+03  0.59432087877E+03  0.00000000000E+00 0.  1.
          2   -1    0    0  501    0  0.00000000000E+00 -0.00000000000E+00 -0.30457987012E+04  0.30457987012E+04  0.00000000000E+00 0. -1.
         23    2    1    2    0    0 -0.11985214669E+04  0.57910788063E+03 -0.97662435318E+03  0.16534106431E+04  0.90288334085E+02 0.  0.
         13    1    3    3    0    0 -0.56655382430E+03  0.26731636006E+03 -0.51512557012E+03  0.81104600682E+03  0.00000000000E+00 0. -1.
        -13    1    3    3    0    0 -0.63196764265E+03  0.31179152057E+03 -0.46149878307E+03  0.84236463626E+03  0.00000000000E+00 0.  1.
         22    1    1    2    0    0  0.11985214669E+04 -0.57910788063E+03 -0.14748534692E+04  0.19867089369E+04  0.00000000000E+00 0. -1.
<mgrwt>
<rscale>  0 0.26908599E+04</rscale>
<asrwt>0</asrwt>
<pdfrwt beam="1">  1        2 0.46858442E+00 0.26908599E+04</pdfrwt>
<pdfrwt beam="2">  1       -2 0.91433980E-01 0.26908599E+04</pdfrwt>
<totfact> 0.14569765E+00</totfact>
</mgrwt>
</event>
<event>
 6    1  0.1001928E-005  0.2265334E+04  0.7818608E-02  0.8491716E-01
         -2   -1    0    0    0  501 -0.00000000000E+00  0.00000000000E+00  0.98892041309E+03  0.98892041309E+03  0.00000000000E+00 0.  1.
          2   -1    0    0  501    0  0.00000000000E+00 -0.00000000000E+00 -0.12973087224E+04  0.12973087224E+04  0.00000000000E+00 0. -1.
         23    2    1    2    0    0  0.72287917112E+03  0.74677289214E+03  0.29523982162E+03  0.10843177540E+04  0.91402357610E+02 0.  0.
         11    1    3    3    0    0  0.53628185423E+03  0.53182926613E+03  0.25322350634E+03  0.79659446373E+03  0.00000000000E+00 0. -1.
        -11    1    3    3    0    0  0.18659731689E+03  0.21494362601E+03  0.42016315275E+02  0.28772329030E+03  0.00000000000E+00 0.  1.
         22    1    1    2    0    0 -0.72287917112E+03 -0.74677289214E+03 -0.60362813097E+03  0.12019113815E+04  0.00000000000E+00 0. -1.
<mgrwt>
<rscale>  0 0.22653345E+04</rscale>
<asrwt>0</asrwt>
<pdfrwt beam="1">  1        2 0.19958596E+00 0.22653345E+04</pdfrwt>
<pdfrwt beam="2">  1       -2 0.15214160E+00 0.22653345E+04</pdfrwt>
<totfact> 0.43529140E+00</totfact>
</mgrwt>
</event>
<event>
 6    1  0.1001928E-005  0.5913575E+04  0.7818608E-02  0.7701211E-01
          2   -1    0    0  501    0  0.00000000000E+00  0.00000000000E+00  0.41183799715E+04  0.41183799715E+04  0.00000000000E+00 0. -1.
         -2   -1    0    0    0  501 -0.00000000000E+00 -0.00000000000E+00 -0.21228228890E+04  0.21228228890E+04  0.00000000000E+00 0.  1.
         23    2    1    2    0    0 -0.67442130860E+03  0.76335662058E+03 -0.19307581651E+04  0.21849103593E+04  0.91917107761E+02 0.  0.
         11    1    3    3    0    0 -0.45562516429E+03  0.50648522693E+03 -0.13801885766E+04  0.15391692832E+04  0.00000000000E+00 0. -1.
        -11    1    3    3    0    0 -0.21879614432E+03  0.25687139365E+03 -0.55056958845E+03  0.64574107611E+03  0.00000000000E+00 0.  1.
         22    1    1    2    0    0  0.67442130860E+03 -0.76335662058E+03  0.39263152476E+04  0.40562925012E+04  0.00000000000E+00 0. -1.
<mgrwt>
<rscale>  0 0.59135746E+04</rscale>
<asrwt>0</asrwt>
<pdfrwt beam="1">  1        2 0.63359692E+00 0.59135746E+04</pdfrwt>
<pdfrwt beam="2">  1       -2 0.32658814E+00 0.59135746E+04</pdfrwt>
<totfact> 0.40074074E-03</totfact>
</mgrwt>
</event>
<event>
 6    1  0.1001928E-005  0.1775974E+04  0.7818608E-02  0.8719181E-01
         -1   -1    0    0    0  501 -0.00000000000E+00  0.00000000000E+00  0.10312615468E+04  0.10312615468E+04  0.00000000000E+00 0.  1.
          1   -1    0    0  501    0  0.00000000000E+00 -0.00000000000E+00 -0.76461819785E+03  0.76461819785E+03  0.00000000000E+00 0. -1.
         23    2    1    2    0    0  0.36745043960E+03 -0.56271064397E+03 -0.44792316409E+03  0.81492694457E+03  0.10866310165E+03 0.  0.
         13    1    3    3    0    0  0.28480158888E+03 -0.34243531559E+03 -0.28565100921E+03  0.52912228214E+03  0.00000000000E+00 0. -1.
        -13    1    3    3    0    0  0.82648850714E+02 -0.22027532838E+03 -0.16227215488E+03  0.28580466243E+03  0.00000000000E+00 0.  1.
         22    1    1    2    0    0 -0.36745043960E+03  0.56271064397E+03  0.71456651300E+03  0.98095280003E+03  0.00000000000E+00 0.  1.
<mgrwt>
<rscale>  0 0.17759745E+04</rscale>
<asrwt>0</asrwt>
<pdfrwt beam="1">  1        1 0.11763357E+00 0.17759745E+04</pdfrwt>
<pdfrwt beam="2">  1       -1 0.15865562E+00 0.17759745E+04</pdfrwt>
<totfact> 0.67223566E+00</totfact>
</mgrwt>
</event>
<event>
 6    1  0.1001928E-005  0.2450481E+04  0.7818608E-02  0.8420842E-01
         -1   -1    0    0    0  501 -0.00000000000E+00  0.00000000000E+00  0.55953495411E+03  0.55953495411E+03  0.00000000000E+00 0. -1.
          1   -1    0    0  501    0  0.00000000000E+00 -0.00000000000E+00 -0.26829672253E+04  0.26829672253E+04  0.00000000000E+00 0.  1.
         23    2    1    2    0    0 -0.23247206584E+03 -0.41217725556E+03 -0.25561889274E+04  0.26012442945E+04  0.91851485022E+02 0.  0.
         11    1    3    3    0    0 -0.54211292320E+02 -0.18587697620E+03 -0.97930606581E+03  0.99826323433E+03  0.00000000000E+00 0.  1.
        -11    1    3    3    0    0 -0.17826077352E+03 -0.22630027937E+03 -0.15768828616E+04  0.16029810601E+04  0.00000000000E+00 0. -1.
         22    1    1    2    0    0  0.23247206584E+03  0.41217725556E+03  0.43275665629E+03  0.64125788491E+03  0.00000000000E+00 0. -1.
<mgrwt>
<rscale>  0 0.24504807E+04</rscale>
<asrwt>0</asrwt>
<pdfrwt beam="1">  1        1 0.41276418E+00 0.24504807E+04</pdfrwt>
<pdfrwt beam="2">  1       -1 0.86082302E-01 0.24504807E+04</pdfrwt>
<totfact> 0.11987265E+00</totfact>
</mgrwt>
</event>
<event>
 6    1  0.1001928E-005  0.2532216E+04  0.7818608E-02  0.8391597E-01
         -3   -1    0    0    0  501 -0.00000000000E+00  0.00000000000E+00  0.14481002053E+04  0.14481002053E+04  0.00000000000E+00 0.  1.
          3   -1    0    0  501    0  0.00000000000E+00 -0.00000000000E+00 -0.11069879804E+04  0.11069879804E+04  0.00000000000E+00 0. -1.
         23    2    1    2    0    0 -0.11908369463E+04 -0.40218629973E+03  0.31777043839E+02  0.12606637164E+04  0.91742972809E+02 0.  0.
         13    1    3    3    0    0 -0.43439061077E+03 -0.10548879494E+03 -0.87566704796E+01  0.44710151852E+03  0.00000000000E+00 0. -1.
        -13    1    3    3    0    0 -0.75644633553E+03 -0.29669750479E+03  0.40533714319E+02  0.81356219792E+03  0.00000000000E+00 0.  1.
         22    1    1    2    0    0  0.11908369463E+04  0.40218629973E+03  0.30933518104E+03  0.12944244692E+04  0.00000000000E+00 0. -1.
<mgrwt>
<rscale>  0 0.25322160E+04</rscale>
<asrwt>0</asrwt>
<pdfrwt beam="1">  1        3 0.17030584E+00 0.25322160E+04</pdfrwt>
<pdfrwt beam="2">  1       -3 0.22278465E+00 0.25322160E+04</pdfrwt>
<totfact> 0.56678627E-02</totfact>
</mgrwt>
</event>
<event>
 6    1  0.1001928E-005  0.3077901E+04  0.7818608E-02  0.8221829E-01
          2   -1    0    0  501    0  0.00000000000E+00  0.00000000000E+00  0.22558684298E+04  0.22558684298E+04  0.00000000000E+00 0. -1.
         -2   -1    0    0    0  501 -0.00000000000E+00 -0.00000000000E+00 -0.10498698355E+04  0.10498698355E+04  0.00000000000E+00 0.  1.
         23    2    1    2    0    0 -0.97623493275E+03  0.90583827826E+03 -0.22210822868E+03  0.13530307275E+04  0.88218217740E+02 0.  0.
         13    1    3    3    0    0 -0.36344771356E+03  0.28885150682E+03 -0.10018531175E+03  0.47493844883E+03  0.00000000000E+00 0.  1.
        -13    1    3    3    0    0 -0.61278721919E+03  0.61698677143E+03 -0.12192291692E+03  0.87809227864E+03  0.00000000000E+00 0. -1.
         22    1    1    2    0    0  0.97623493275E+03 -0.90583827826E+03  0.14281068230E+04  0.19527075378E+04  0.00000000000E+00 0. -1.
<mgrwt>
<rscale>  0 0.30779007E+04</rscale>
<asrwt>0</asrwt>
<pdfrwt beam="1">  1        2 0.34705668E+00 0.30779007E+04</pdfrwt>
<pdfrwt beam="2">  1       -2 0.16151844E+00 0.30779007E+04</pdfrwt>
<totfact> 0.10026516E+00</totfact>
</mgrwt>
</event>
<event>
 6    1  0.1001928E-005  0.1175297E+04  0.7818608E-02  0.9134758E-01
         -1   -1    0    0    0  501 -0.00000000000E+00  0.00000000000E+00  0.70252664404E+03  0.70252664404E+03  0.00000000000E+00 0.  1.
          1   -1    0    0  501    0  0.00000000000E+00 -0.00000000000E+00 -0.49155507727E+03  0.49155507727E+03  0.00000000000E+00 0. -1.
         23    2    1    2    0    0  0.48885689510E+03 -0.27836457129E+03 -0.56613580039E+02  0.57112930802E+03  0.80719827783E+02 0.  0.
         11    1    3    3    0    0  0.26431184717E+03 -0.12316815793E+03 -0.61992097616E+02  0.29811770804E+03  0.00000000000E+00 0. -1.
        -11    1    3    3    0    0  0.22454504793E+03 -0.15519641337E+03  0.53785175776E+01  0.27301159998E+03  0.00000000000E+00 0.  1.
         22    1    1    2    0    0 -0.48885689510E+03  0.27836457129E+03  0.26758514681E+03  0.62295241330E+03  0.00000000000E+00 0.  1.
<mgrwt>
<rscale>  0 0.11752966E+04</rscale>
<asrwt>0</asrwt>
<pdfrwt beam="1">  1        1 0.75623858E-01 0.11752966E+04</pdfrwt>
<pdfrwt beam="2">  1       -1 0.10808102E+00 0.11752966E+04</pdfrwt>
<totfact> 0.35810350E+01</totfact>
</mgrwt>
</event>
<event>
 6    1  0.1001928E-005  0.3626676E+04  0.7818608E-02  0.8084409E-01
          1   -1    0    0  501    0  0.00000000000E+00  0.00000000000E+00  0.23532533724E+04  0.23532533724E+04  0.00000000000E+00 0. -1.
         -1   -1    0    0    0  501 -0.00000000000E+00 -0.00000000000E+00 -0.13972970959E+04  0.13972970959E+04  0.00000000000E+00 0.  1.
         23    2    1    2    0    0 -0.99557798162E+03  0.24582786394E+03  0.20234471605E+04  0.22702992587E+04  0.91178158045E+02 0.  0.
         13    1    3    3    0    0 -0.83985160236E+03  0.18649273251E+03  0.17509065862E+04  0.19508470280E+04  0.00000000000E+00 0. -1.
        -13    1    3    3    0    0 -0.15572637927E+03  0.59335131429E+02  0.27254057427E+03  0.31945223062E+03  0.00000000000E+00 0.  1.
         22    1    1    2    0    0  0.99557798162E+03 -0.24582786394E+03 -0.10674908840E+04  0.14802512096E+04  0.00000000000E+00 0.  1.
<mgrwt>
<rscale>  0 0.36266757E+04</rscale>
<asrwt>0</asrwt>
<pdfrwt beam="1">  1        1 0.36203898E+00 0.36266757E+04</pdfrwt>
<pdfrwt beam="2">  1       -1 0.21496878E+00 0.36266757E+04</pdfrwt>
<totfact> 0.16431488E-01</totfact>
</mgrwt>
</event>
<event>
 6    1  0.1001928E-005  0.6067809E+04  0.7818608E-02  0.7682051E-01
         -2   -1    0    0    0  501 -0.00000000000E+00  0.00000000000E+00  0.24213562638E+04  0.24213562638E+04  0.00000000000E+00 0.  1.
          2   -1    0    0  501    0  0.00000000000E+00 -0.00000000000E+00 -0.38014135414E+04  0.38014135414E+04  0.00000000000E+00 0. -1.
         23    2    1    2    0    0  0.67653109905E+03 -0.25507063061E+04  0.84351968808E+03  0.27719595366E+04  0.91854343639E+02 0.  0.
         11    1    3    3    0    0  0.20827303995E+03 -0.70547316433E+03  0.27279064435E+03  0.78452838088E+03  0.00000000000E+00 0. -1.
        -11    1    3    3    0    0  0.46825805909E+03 -0.18452331418E+04  0.57072904373E+03  0.19874311557E+04  0.00000000000E+00 0.  1.
         22    1    1    2    0    0 -0.67653109905E+03  0.25507063061E+04 -0.22235769656E+04  0.34508102686E+04  0.00000000000E+00 0. -1.
<mgrwt>
<rscale>  0 0.60678090E+04</rscale>
<asrwt>0</asrwt>
<pdfrwt beam="1">  1        2 0.58483285E+00 0.60678090E+04</pdfrwt>
<pdfrwt beam="2">  1       -2 0.37251635E+00 0.60678090E+04</pdfrwt>
<totfact> 0.36570946E-03</totfact>
</mgrwt>
</event>
<event>
 6    1  0.1001928E-005  0.1180784E+04  0.7818608E-02  0.9129844E-01
          1   -1    0    0  501    0  0.00000000000E+00  0.00000000000E+00  0.62254302223E+03  0.62254302223E+03  0.00000000000E+00 0. -1.
         -1   -1    0    0    0  501 -0.00000000000E+00 -0.00000000000E+00 -0.55990170160E+03  0.55990170160E+03  0.00000000000E+00 0.  1.
         23    2    1    2    0    0  0.23486069811E+03 -0.48262878775E+03  0.26917842841E+03  0.60733806313E+03  0.91172376964E+02 0.  0.
         11    1    3    3    0    0  0.21885843499E+03 -0.36494686567E+03  0.21573390642E+03  0.47710203071E+03  0.00000000000E+00 0. -1.
        -11    1    3    3    0    0  0.16002263122E+02 -0.11768192208E+03  0.53444521993E+02  0.13023603242E+03  0.00000000000E+00 0.  1.
         22    1    1    2    0    0 -0.23486069811E+03  0.48262878775E+03 -0.20653710778E+03  0.57510666069E+03  0.00000000000E+00 0.  1.
<mgrwt>
<rscale>  0 0.11807843E+04</rscale>
<asrwt>0</asrwt>
<pdfrwt beam="1">  1        1 0.95775850E-01 0.11807843E+04</pdfrwt>
<pdfrwt beam="2">  1       -1 0.86138723E-01 0.11807843E+04</pdfrwt>
<totfact> 0.42806611E+01</totfact>
</mgrwt>
</event>
<event>
 6    1  0.1001928E-005  0.3197937E+04  0.7818608E-02  0.8189362E-01
         -1   -1    0    0    0  501 -0.00000000000E+00  0.00000000000E+00  0.25031983432E+04  0.25031983432E+04  0.00000000000E+00 0.  1.
          1   -1    0    0  501    0  0.00000000000E+00 -0.00000000000E+00 -0.10213734451E+04  0.10213734451E+04  0.00000000000E+00 0. -1.
         23    2    1    2    0    0  0.12835532026E+04  0.94984073770E+03  0.80005163519E+03  0.17883341799E+04  0.91379805915E+02 0.  0.
         11    1    3    3    0    0  0.59823577339E+03  0.42041256718E+03  0.31955559814E+03  0.79796525458E+03  0.00000000000E+00 0.  1.
        -11    1    3    3    0    0  0.68531742923E+03  0.52942817052E+03  0.48049603704E+03  0.99036892528E+03  0.00000000000E+00 0. -1.
         22    1    1    2    0    0 -0.12835532026E+04 -0.94984073770E+03  0.68177326288E+03  0.17362376084E+04  0.00000000000E+00 0.  1.
<mgrwt>
<rscale>  0 0.31979370E+04</rscale>
<asrwt>0</asrwt>
<pdfrwt beam="1">  1        1 0.15713438E+00 0.31979370E+04</pdfrwt>
<pdfrwt beam="2">  1       -1 0.38510744E+00 0.31979370E+04</pdfrwt>
<totfact> 0.11001846E-01</totfact>
</mgrwt>
</event>
<event>
 6    1  0.1001928E-005  0.3206173E+04  0.7818608E-02  0.8187189E-01
          1   -1    0    0  501    0  0.00000000000E+00  0.00000000000E+00  0.11956973158E+04  0.11956973158E+04  0.00000000000E+00 0. -1.
         -1   -1    0    0    0  501 -0.00000000000E+00 -0.00000000000E+00 -0.21492781983E+04  0.21492781983E+04  0.00000000000E+00 0.  1.
         23    2    1    2    0    0  0.14624322708E+04  0.65273929334E+03 -0.44709755434E+03  0.16653023038E+04  0.92513826019E+02 0.  0.
         11    1    3    3    0    0  0.88488651696E+03  0.44419750028E+03 -0.27597160453E+03  0.10278598609E+04  0.00000000000E+00 0. -1.
        -11    1    3    3    0    0  0.57754575386E+03  0.20854179306E+03 -0.17112594981E+03  0.63744244285E+03  0.00000000000E+00 0.  1.
         22    1    1    2    0    0 -0.14624322708E+04 -0.65273929334E+03 -0.50648332818E+03  0.16796732103E+04  0.00000000000E+00 0. -1.
<mgrwt>
<rscale>  0 0.32061729E+04</rscale>
<asrwt>0</asrwt>
<pdfrwt beam="1">  1        1 0.18395344E+00 0.32061729E+04</pdfrwt>
<pdfrwt beam="2">  1       -1 0.33065818E+00 0.32061729E+04</pdfrwt>
<totfact> 0.18754620E-01</totfact>
</mgrwt>
</event>
<event>
 6    1  0.1001928E-005  0.1475518E+04  0.7818608E-02  0.8900899E-01
          2   -1    0    0  501    0  0.00000000000E+00  0.00000000000E+00  0.77149492491E+03  0.77149492491E+03  0.00000000000E+00 0. -1.
         -2   -1    0    0    0  501 -0.00000000000E+00 -0.00000000000E+00 -0.70549806765E+03  0.70549806765E+03  0.00000000000E+00 0.  1.
         23    2    1    2    0    0 -0.29226783075E+03 -0.37806346915E+03 -0.52570987367E+03  0.71642128194E+03  0.92391072885E+02 0.  0.
         13    1    3    3    0    0 -0.19772387255E+03 -0.18954083742E+03 -0.32819803775E+03  0.42747445632E+03  0.00000000000E+00 0.  1.
        -13    1    3    3    0    0 -0.94543958197E+02 -0.18852263173E+03 -0.19751183591E+03  0.28894682561E+03  0.00000000000E+00 0. -1.
         22    1    1    2    0    0  0.29226783075E+03  0.37806346915E+03  0.59170673092E+03  0.76057171063E+03  0.00000000000E+00 0. -1.
<mgrwt>
<rscale>  0 0.14755178E+04</rscale>
<asrwt>0</asrwt>
<pdfrwt beam="1">  1        2 0.11869153E+00 0.14755178E+04</pdfrwt>
<pdfrwt beam="2">  1       -2 0.10853816E+00 0.14755178E+04</pdfrwt>
<totfact> 0.23743292E+01</totfact>
</mgrwt>
</event>
<event>
 6    1  0.1001928E-005  0.1359327E+04  0.7818608E-02  0.8983798E-01
         -2   -1    0    0    0  501 -0.00000000000E+00  0.00000000000E+00  0.46134340809E+03  0.46134340809E+03  0.00000000000E+00 0.  1.
          2   -1    0    0  501    0  0.00000000000E+00 -0.00000000000E+00 -0.10012980055E+04  0.10012980055E+04  0.00000000000E+00 0. -1.
         23    2    1    2    0    0  0.64951031396E+03 -0.13008975390E+03 -0.13625387342E+03  0.68690868479E+03  0.12038036056E+03 0.  0.
         13    1    3    3    0    0  0.56910223927E+03 -0.15332607549E+03 -0.12432878517E+03  0.60236524716E+03  0.00000000000E+00 0. -1.
        -13    1    3    3    0    0  0.80408074693E+02  0.23236321586E+02 -0.11925088249E+02  0.84543437631E+02  0.00000000000E+00 0.  1.
         22    1    1    2    0    0 -0.64951031396E+03  0.13008975390E+03 -0.40370072403E+03  0.77573272884E+03  0.00000000000E+00 0. -1.
<mgrwt>
<rscale>  0 0.13593266E+04</rscale>
<asrwt>0</asrwt>
<pdfrwt beam="1">  1        2 0.15404585E+00 0.13593266E+04</pdfrwt>
<pdfrwt beam="2">  1       -2 0.70975909E-01 0.13593266E+04</pdfrwt>
<totfact> 0.44266346E+01</totfact>
</mgrwt>
</event>
<event>
 6    1  0.1001928E-005  0.2637687E+04  0.7818608E-02  0.8355511E-01
         -2   -1    0    0    0  501 -0.00000000000E+00  0.00000000000E+00  0.94445353929E+03  0.94445353929E+03  0.00000000000E+00 0.  1.
          2   -1    0    0  501    0  0.00000000000E+00 -0.00000000000E+00 -0.18416444188E+04  0.18416444188E+04  0.00000000000E+00 0. -1.
         23    2    1    2    0    0  0.51135214302E+03 -0.52188744070E+03 -0.16067655509E+04  0.17675972320E+04  0.94111231266E+02 0.  0.
         13    1    3    3    0    0  0.19133513241E+03 -0.23517727078E+03 -0.75493229847E+03  0.81353565187E+03  0.00000000000E+00 0.  1.
        -13    1    3    3    0    0  0.32001701061E+03 -0.28671016992E+03 -0.85183325247E+03  0.95406158010E+03  0.00000000000E+00 0. -1.
         22    1    1    2    0    0 -0.51135214302E+03  0.52188744070E+03  0.70957467138E+03  0.10185007262E+04  0.00000000000E+00 0.  1.
<mgrwt>
<rscale>  0 0.26376866E+04</rscale>
<asrwt>0</asrwt>
<pdfrwt beam="1">  1        2 0.28332991E+00 0.26376866E+04</pdfrwt>
<pdfrwt beam="2">  1       -2 0.14530055E+00 0.26376866E+04</pdfrwt>
<totfact> 0.23514966E+00</totfact>
</mgrwt>
</event>
<event>
 6    1  0.1001928E-005  0.2990791E+04  0.7818608E-02  0.8246366E-01
          2   -1    0    0  501    0  0.00000000000E+00  0.00000000000E+00  0.10652721417E+04  0.10652721417E+04  0.00000000000E+00 0. -1.
         -2   -1    0    0    0  501 -0.00000000000E+00 -0.00000000000E+00 -0.20991884557E+04  0.20991884557E+04  0.00000000000E+00 0.  1.
         23    2    1    2    0    0  0.13895286064E+04  0.15537543212E+03 -0.10740857090E+04  0.17656951228E+04  0.95330390475E+02 0.  0.
         11    1    3    3    0    0  0.27107196838E+03 -0.65149652536E+01 -0.19698723345E+03  0.33515134933E+03  0.00000000000E+00 0. -1.
        -11    1    3    3    0    0  0.11184566380E+04  0.16189039738E+03 -0.87709847557E+03  0.14305437734E+04  0.00000000000E+00 0.  1.
         22    1    1    2    0    0 -0.13895286064E+04 -0.15537543212E+03  0.40169395036E+02  0.13987654747E+04  0.00000000000E+00 0. -1.
<mgrwt>
<rscale>  0 0.29907905E+04</rscale>
<asrwt>0</asrwt>
<pdfrwt beam="1">  1        2 0.16388802E+00 0.29907905E+04</pdfrwt>
<pdfrwt beam="2">  1       -2 0.32295207E+00 0.29907905E+04</pdfrwt>
<totfact> 0.45026653E-01</totfact>
</mgrwt>
</event>
<event>
 6    1  0.1001928E-005  0.4745892E+04  0.7818608E-02  0.7868948E-01
          2   -1    0    0  501    0  0.00000000000E+00  0.00000000000E+00  0.29245247225E+04  0.29245247225E+04  0.00000000000E+00 0. -1.
         -2   -1    0    0    0  501 -0.00000000000E+00 -0.00000000000E+00 -0.19253977513E+04  0.19253977513E+04  0.00000000000E+00 0.  1.
         23    2    1    2    0    0  0.23532189787E+04 -0.29833319160E+03  0.49319389128E+03  0.24245131193E+04  0.91549966727E+02 0.  0.
         11    1    3    3    0    0  0.10820856339E+04 -0.13330770958E+03  0.27314898213E+03  0.11239620238E+04  0.00000000000E+00 0.  1.
        -11    1    3    3    0    0  0.12711333448E+04 -0.16502548203E+03  0.22004490916E+03  0.13005510955E+04  0.00000000000E+00 0. -1.
         22    1    1    2    0    0 -0.23532189787E+04  0.29833319160E+03  0.50593307993E+03  0.24254093544E+04  0.00000000000E+00 0.  1.
<mgrwt>
<rscale>  0 0.47458923E+04</rscale>
<asrwt>0</asrwt>
<pdfrwt beam="1">  1        2 0.44992688E+00 0.47458923E+04</pdfrwt>
<pdfrwt beam="2">  1       -2 0.29621504E+00 0.47458923E+04</pdfrwt>
<totfact> 0.48301003E-02</totfact>
</mgrwt>
</event>
<event>
 6    1  0.1001928E-005  0.1069077E+04  0.7818608E-02  0.9235867E-01
         -2   -1    0    0    0  501 -0.00000000000E+00  0.00000000000E+00  0.81207957629E+03  0.81207957629E+03  0.00000000000E+00 0.  1.
          2   -1    0    0  501    0  0.00000000000E+00 -0.00000000000E+00 -0.35185117656E+03  0.35185117656E+03  0.00000000000E+00 0. -1.
         23    2    1    2    0    0 -0.45529014498E+03 -0.27240414957E+03  0.21995092359E+03  0.58149929563E+03  0.90938909183E+02 0.  0.
         13    1    3    3    0    0 -0.44011794900E+03 -0.27956732842E+03  0.21096088436E+03  0.56246439432E+03  0.00000000000E+00 0.  1.
        -13    1    3    3    0    0 -0.15172195984E+02  0.71631788509E+01  0.89900392310E+01  0.19034901303E+02  0.00000000000E+00 0. -1.
         22    1    1    2    0    0  0.45529014498E+03  0.27240414957E+03  0.24027747614E+03  0.58243145722E+03  0.00000000000E+00 0. -1.
<mgrwt>
<rscale>  0 0.10690765E+04</rscale>
<asrwt>0</asrwt>
<pdfrwt beam="1">  1        2 0.54130951E-01 0.10690765E+04</pdfrwt>
<pdfrwt beam="2">  1       -2 0.12493532E+00 0.10690765E+04</pdfrwt>
<totfact> 0.43844270E+01</totfact>
</mgrwt>
</event>
<event>
 6    1  0.1684105E-005  0.2998553E+04  0.7818608E-02  0.8244144E-01
          1   -1    0    0  501    0  0.00000000000E+00  0.00000000000E+00  0.11288552724E+04  0.11288552724E+04  0.00000000000E+00 0.  1.
         -1   -1    0    0    0  501 -0.00000000000E+00 -0.00000000000E+00 -0.19912475169E+04  0.19912475169E+04  0.00000000000E+00 0. -1.
         23    2    1    2    0    0  0.52848162546E+03  0.12342052474E+04  0.25931053282E+03  0.13705964185E+04  0.93472824841E+02 0.  0.
         11    1    3    3    0    0  0.19189683745E+03  0.45607708448E+03  0.49910124246E+02  0.49731451186E+03  0.00000000000E+00 0.  1.
        -11    1    3    3    0    0  0.33658478802E+03  0.77812816288E+03  0.20940040857E+03  0.87328190666E+03  0.00000000000E+00 0. -1.
         22    1    1    2    0    0 -0.52848162546E+03 -0.12342052474E+04 -0.11217027773E+04  0.17495063709E+04  0.00000000000E+00 0.  1.
<mgrwt>
<rscale>  0 0.29985532E+04</rscale>
<asrwt>0</asrwt>
<pdfrwt beam="1">  1        1 0.17367004E+00 0.29985532E+04</pdfrwt>
<pdfrwt beam="2">  1       -1 0.30634577E+00 0.29985532E+04</pdfrwt>
<totfact> 0.30832698E-01</totfact>
</mgrwt>
</event>
<event>
 6    1  0.1001928E-005  0.2732758E+04  0.7818608E-02  0.8324454E-01
          1   -1    0    0  501    0  0.00000000000E+00  0.00000000000E+00  0.14659893896E+04  0.14659893896E+04  0.00000000000E+00 0. -1.
         -1   -1    0    0    0  501 -0.00000000000E+00 -0.00000000000E+00 -0.12735365303E+04  0.12735365303E+04  0.00000000000E+00 0.  1.
         23    2    1    2    0    0  0.78444517646E+03  0.19723892431E+03 -0.10057822604E+04  0.12938341027E+04  0.90284560101E+02 0.  0.
         13    1    3    3    0    0  0.12897811797E+03  0.55741155433E+02 -0.21727214258E+03  0.25874623720E+03  0.00000000000E+00 0. -1.
        -13    1    3    3    0    0  0.65546705849E+03  0.14149776888E+03 -0.78851011783E+03  0.10350878655E+04  0.00000000000E+00 0.  1.
         22    1    1    2    0    0 -0.78444517646E+03 -0.19723892431E+03  0.11982351197E+04  0.14456918172E+04  0.00000000000E+00 0. -1.
<mgrwt>
<rscale>  0 0.27327576E+04</rscale>
<asrwt>0</asrwt>
<pdfrwt beam="1">  1        1 0.22553683E+00 0.27327576E+04</pdfrwt>
<pdfrwt beam="2">  1       -1 0.19592870E+00 0.27327576E+04</pdfrwt>
<totfact> 0.96605736E-01</totfact>
</mgrwt>
</event>
<event>
 6    1  0.1001928E-005  0.2388630E+04  0.7818608E-02  0.8443772E-01
         -1   -1    0    0    0  501 -0.00000000000E+00  0.00000000000E+00  0.13628989234E+04  0.13628989234E+04  0.00000000000E+00 0.  1.
          1   -1    0    0  501    0  0.00000000000E+00 -0.00000000000E+00 -0.10465844748E+04  0.10465844748E+04  0.00000000000E+00 0. -1.
         23    2    1    2    0    0 -0.30606828938E+03  0.75723889376E+03 -0.71815276271E+03  0.10914504125E+04  0.91826316670E+02 0.  0.
         11    1    3    3    0    0 -0.15978335839E+03  0.29469760810E+03 -0.32665979356E+03  0.46806412228E+03  0.00000000000E+00 0.  1.
        -11    1    3    3    0    0 -0.14628493099E+03  0.46254128566E+03 -0.39149296915E+03  0.62338629025E+03  0.00000000000E+00 0. -1.
         22    1    1    2    0    0  0.30606828938E+03 -0.75723889376E+03  0.10344672113E+04  0.13180329857E+04  0.00000000000E+00 0.  1.
<mgrwt>
<rscale>  0 0.23886304E+04</rscale>
<asrwt>0</asrwt>
<pdfrwt beam="1">  1        1 0.16101300E+00 0.23886304E+04</pdfrwt>
<pdfrwt beam="2">  1       -1 0.20967676E+00 0.23886304E+04</pdfrwt>
<totfact> 0.16136831E+00</totfact>
</mgrwt>
</event>
<event>
 6    1  0.1001928E-005  0.2359837E+04  0.7818608E-02  0.8454695E-01
         -2   -1    0    0    0  501 -0.00000000000E+00  0.00000000000E+00  0.77078725384E+03  0.77078725384E+03  0.00000000000E+00 0.  1.
          2   -1    0    0  501    0  0.00000000000E+00 -0.00000000000E+00 -0.18062149404E+04  0.18062149404E+04  0.00000000000E+00 0. -1.
         23    2    1    2    0    0 -0.29445998711E+03  0.14751210254E+03 -0.17537485840E+04  0.17867798103E+04  0.92095007819E+02 0.  0.
         13    1    3    3    0    0 -0.29185001438E+03  0.13557394308E+03 -0.15708389710E+04  0.16034624404E+04  0.00000000000E+00 0.  1.
        -13    1    3    3    0    0 -0.26099727316E+01  0.11938159457E+02 -0.18290961293E+03  0.18331736991E+03  0.00000000000E+00 0. -1.
         22    1    1    2    0    0  0.29445998711E+03 -0.14751210254E+03  0.71832089740E+03  0.79022238392E+03  0.00000000000E+00 0.  1.
<mgrwt>
<rscale>  0 0.23598368E+04</rscale>
<asrwt>0</asrwt>
<pdfrwt beam="1">  1        2 0.27787922E+00 0.23598368E+04</pdfrwt>
<pdfrwt beam="2">  1       -2 0.11858265E+00 0.23598368E+04</pdfrwt>
<totfact> 0.42242244E+00</totfact>
</mgrwt>
</event>
<event>
 6    1  0.1001928E-005  0.2338539E+04  0.7818608E-02  0.8462879E-01
         -1   -1    0    0    0  501 -0.00000000000E+00  0.00000000000E+00  0.67187483813E+03  0.67187483813E+03  0.00000000000E+00 0.  1.
          1   -1    0    0  501    0  0.00000000000E+00 -0.00000000000E+00 -0.20348904545E+04  0.20348904545E+04  0.00000000000E+00 0. -1.
         23    2    1    2    0    0 -0.27247837339E+03 -0.65785867847E+02 -0.19943587568E+04  0.20159929673E+04  0.90490601695E+02 0.  0.
         13    1    3    3    0    0 -0.15478724572E+03  0.91024519210E+01 -0.10494663427E+04  0.10608588740E+04  0.00000000000E+00 0.  1.
        -13    1    3    3    0    0 -0.11769112766E+03 -0.74888319768E+02 -0.94489241411E+03  0.95513409332E+03  0.00000000000E+00 0. -1.
         22    1    1    2    0    0  0.27247837339E+03  0.65785867847E+02  0.63134314047E+03  0.69077232529E+03  0.00000000000E+00 0.  1.
<mgrwt>
<rscale>  0 0.23385395E+04</rscale>
<asrwt>0</asrwt>
<pdfrwt beam="1">  1        1 0.31306006E+00 0.23385395E+04</pdfrwt>
<pdfrwt beam="2">  1       -1 0.10336536E+00 0.23385395E+04</pdfrwt>
<totfact> 0.22442871E+00</totfact>
</mgrwt>
</event>
<event>
 6    1  0.1001928E-005  0.1830265E+04  0.7818608E-02  0.8690368E-01
          2   -1    0    0  501    0  0.00000000000E+00  0.00000000000E+00  0.15000179170E+04  0.15000179170E+04  0.00000000000E+00 0. -1.
         -2   -1    0    0    0  501 -0.00000000000E+00 -0.00000000000E+00 -0.55830518778E+03  0.55830518778E+03  0.00000000000E+00 0.  1.
         23    2    1    2    0    0  0.23896484305E+03  0.87285753624E+03  0.33725151291E+03  0.97004104719E+03  0.90865700267E+02 0.  0.
         11    1    3    3    0    0  0.18459063940E+03  0.75981981990E+03  0.31323107257E+03  0.84232628339E+03  0.00000000000E+00 0. -1.
        -11    1    3    3    0    0  0.54374203648E+02  0.11303771634E+03  0.24020440341E+02  0.12771476380E+03  0.00000000000E+00 0.  1.
         22    1    1    2    0    0 -0.23896484305E+03 -0.87285753624E+03  0.60446121627E+03  0.10882820575E+04  0.00000000000E+00 0.  1.
<mgrwt>
<rscale>  0 0.18302653E+04</rscale>
<asrwt>0</asrwt>
<pdfrwt beam="1">  1        2 0.23077199E+00 0.18302653E+04</pdfrwt>
<pdfrwt beam="2">  1       -2 0.85893106E-01 0.18302653E+04</pdfrwt>
<totfact> 0.14065031E+01</totfact>
</mgrwt>
</event>
<event>
 6    1  0.1001928E-005  0.2874479E+04  0.7818608E-02  0.8280512E-01
         -1   -1    0    0    0  501 -0.00000000000E+00  0.00000000000E+00  0.15968329783E+04  0.15968329783E+04  0.00000000000E+00 0.  1.
          1   -1    0    0  501    0  0.00000000000E+00 -0.00000000000E+00 -0.12935962026E+04  0.12935962026E+04  0.00000000000E+00 0. -1.
         23    2    1    2    0    0 -0.47729552888E+01  0.73516903319E+03  0.13919026285E+04  0.15767741167E+04  0.91254586334E+02 0.  0.
         13    1    3    3    0    0 -0.32078453939E+02  0.55007690089E+03  0.10953545956E+04  0.12261383748E+04  0.00000000000E+00 0. -1.
        -13    1    3    3    0    0  0.27305498650E+02  0.18509213230E+03  0.29654803293E+03  0.35063574195E+03  0.00000000000E+00 0.  1.
         22    1    1    2    0    0  0.47729552888E+01 -0.73516903319E+03 -0.10886658528E+04  0.13136550641E+04  0.00000000000E+00 0. -1.
<mgrwt>
<rscale>  0 0.28744788E+04</rscale>
<asrwt>0</asrwt>
<pdfrwt beam="1">  1        1 0.19901480E+00 0.28744788E+04</pdfrwt>
<pdfrwt beam="2">  1       -1 0.24566661E+00 0.28744788E+04</pdfrwt>
<totfact> 0.58524707E-01</totfact>
</mgrwt>
</event>
<event>
 6    1  0.1001928E-005  0.8548383E+03  0.7818608E-02  0.9483866E-01
          2   -1    0    0  501    0  0.00000000000E+00  0.00000000000E+00  0.15898925108E+03  0.15898925108E+03  0.00000000000E+00 0. -1.
         -2   -1    0    0    0  501 -0.00000000000E+00 -0.00000000000E+00 -0.11490533716E+04  0.11490533716E+04  0.00000000000E+00 0.  1.
         23    2    1    2    0    0  0.56158946703E+01 -0.34040073989E+03 -0.11859233029E+03  0.37243197548E+03  0.93473170276E+02 0.  0.
         13    1    3    3    0    0  0.37549827349E+02 -0.70078953678E+02 -0.40633239828E+02  0.89286670122E+02  0.00000000000E+00 0.  1.
        -13    1    3    3    0    0 -0.31933932679E+02 -0.27032178622E+03 -0.77959090462E+02  0.28314530536E+03  0.00000000000E+00 0. -1.
         22    1    1    2    0    0 -0.56158946703E+01  0.34040073989E+03 -0.87147179018E+03  0.93561064716E+03  0.00000000000E+00 0.  1.
<mgrwt>
<rscale>  0 0.85483831E+03</rscale>
<asrwt>0</asrwt>
<pdfrwt beam="1">  1        2 0.24459886E-01 0.85483831E+03</pdfrwt>
<pdfrwt beam="2">  1       -2 0.17677744E+00 0.85483831E+03</pdfrwt>
<totfact> 0.43229015E+01</totfact>
</mgrwt>
</event>
<event>
 6    1  0.1001928E-005  0.1917998E+04  0.7818608E-02  0.8645949E-01
          1   -1    0    0  501    0  0.00000000000E+00  0.00000000000E+00  0.97971288711E+03  0.97971288711E+03  0.00000000000E+00 0. -1.
         -1   -1    0    0    0  501 -0.00000000000E+00 -0.00000000000E+00 -0.93872343405E+03  0.93872343405E+03  0.00000000000E+00 0.  1.
         23    2    1    2    0    0 -0.17483333541E+03 -0.44298923424E+03 -0.80952111221E+03  0.94366743652E+03  0.91529464212E+02 0.  0.
         13    1    3    3    0    0 -0.78451061703E+02 -0.26503918019E+03 -0.53994470911E+03  0.60658109516E+03  0.00000000000E+00 0. -1.
        -13    1    3    3    0    0 -0.96382273706E+02 -0.17795005405E+03 -0.26957640310E+03  0.33708634136E+03  0.00000000000E+00 0.  1.
         22    1    1    2    0    0  0.17483333541E+03  0.44298923424E+03  0.85051056527E+03  0.97476888464E+03  0.00000000000E+00 0. -1.
<mgrwt>
<rscale>  0 0.19179984E+04</rscale>
<asrwt>0</asrwt>
<pdfrwt beam="1">  1        1 0.15072506E+00 0.19179984E+04</pdfrwt>
<pdfrwt beam="2">  1       -1 0.14441899E+00 0.19179984E+04</pdfrwt>
<totfact> 0.56634908E+00</totfact>
</mgrwt>
</event>
<event>
 6    1  0.1001928E-005  0.3427360E+04  0.7818608E-02  0.8131224E-01
         -2   -1    0    0    0  501 -0.00000000000E+00  0.00000000000E+00  0.85040269921E+03  0.85040269921E+03  0.00000000000E+00 0.  1.
          2   -1    0    0  501    0  0.00000000000E+00 -0.00000000000E+00 -0.34533042913E+04  0.34533042913E+04  0.00000000000E+00 0. -1.
         23    2    1    2    0    0 -0.14483554143E+04  0.77231521612E+03 -0.68911724974E+03  0.17824424847E+04  0.89523339340E+02 0.  0.
         11    1    3    3    0    0 -0.66163416740E+03  0.40247027358E+03 -0.33415615003E+03  0.84344675302E+03  0.00000000000E+00 0. -1.
        -11    1    3    3    0    0 -0.78672124689E+03  0.36984494255E+03 -0.35496109972E+03  0.93899573170E+03  0.00000000000E+00 0.  1.
         22    1    1    2    0    0  0.14483554143E+04 -0.77231521612E+03 -0.19137843423E+04  0.25212645058E+04  0.00000000000E+00 0. -1.
<mgrwt>
<rscale>  0 0.34273601E+04</rscale>
<asrwt>0</asrwt>
<pdfrwt beam="1">  1        2 0.53127758E+00 0.34273601E+04</pdfrwt>
<pdfrwt beam="2">  1       -2 0.13083118E+00 0.34273601E+04</pdfrwt>
<totfact> 0.30904983E-01</totfact>
</mgrwt>
</event>
<event>
 6    1  0.1695562E-005  0.4495466E+04  0.7818608E-02  0.7911431E-01
         -1   -1    0    0    0  501 -0.00000000000E+00  0.00000000000E+00  0.17833782371E+04  0.17833782371E+04  0.00000000000E+00 0.  1.
          1   -1    0    0  501    0  0.00000000000E+00 -0.00000000000E+00 -0.28329966796E+04  0.28329966796E+04  0.00000000000E+00 0. -1.
         23    2    1    2    0    0 -0.20132014159E+04  0.37189638368E+03  0.42571948890E+03  0.20929033253E+04  0.87865719867E+02 0.  0.
         13    1    3    3    0    0 -0.13021937148E+04  0.28219294982E+03  0.28588906601E+03  0.13627449834E+04  0.00000000000E+00 0. -1.
        -13    1    3    3    0    0 -0.71100770107E+03  0.89703433862E+02  0.13983042289E+03  0.73015834186E+03  0.00000000000E+00 0.  1.
         22    1    1    2    0    0  0.20132014159E+04 -0.37189638368E+03 -0.14753379314E+04  0.25234715915E+04  0.00000000000E+00 0. -1.
<mgrwt>
<rscale>  0 0.44954664E+04</rscale>
<asrwt>0</asrwt>
<pdfrwt beam="1">  1        1 0.43584564E+00 0.44954664E+04</pdfrwt>
<pdfrwt beam="2">  1       -1 0.27436588E+00 0.44954664E+04</pdfrwt>
<totfact> 0.28721156E-02</totfact>
</mgrwt>
</event>
<event>
 6    1  0.1001928E-005  0.1508228E+04  0.7818608E-02  0.8879000E-01
          2   -1    0    0  501    0  0.00000000000E+00  0.00000000000E+00  0.19290970048E+04  0.19290970048E+04  0.00000000000E+00 0. -1.
         -2   -1    0    0    0  501 -0.00000000000E+00 -0.00000000000E+00 -0.29479474225E+03  0.29479474225E+03  0.00000000000E+00 0.  1.
         23    2    1    2    0    0 -0.62199646860E+03 -0.42142791906E+03  0.84970852144E+03  0.11375821979E+04  0.87221486718E+02 0.  0.
         13    1    3    3    0    0 -0.43398053951E+03 -0.24422531045E+03  0.55526252922E+03  0.74585627790E+03  0.00000000000E+00 0. -1.
        -13    1    3    3    0    0 -0.18801592909E+03 -0.17720260861E+03  0.29444599222E+03  0.39172592003E+03  0.00000000000E+00 0.  1.
         22    1    1    2    0    0  0.62199646860E+03  0.42142791906E+03  0.78459374113E+03  0.10863095491E+04  0.00000000000E+00 0.  1.
<mgrwt>
<rscale>  0 0.15082276E+04</rscale>
<asrwt>0</asrwt>
<pdfrwt beam="1">  1        2 0.29678415E+00 0.15082276E+04</pdfrwt>
<pdfrwt beam="2">  1       -2 0.45353038E-01 0.15082276E+04</pdfrwt>
<totfact> 0.32575901E+01</totfact>
</mgrwt>
</event>
<event>
 6    1  0.1001928E-005  0.3102464E+04  0.7818608E-02  0.8215062E-01
          2   -1    0    0  501    0  0.00000000000E+00  0.00000000000E+00  0.32359898079E+04  0.32359898079E+04  0.00000000000E+00 0. -1.
         -2   -1    0    0    0  501 -0.00000000000E+00 -0.00000000000E+00 -0.74361181697E+03  0.74361181697E+03  0.00000000000E+00 0.  1.
         23    2    1    2    0    0 -0.10604841684E+03 -0.72595487636E+03 -0.50361182127E+03  0.89509004213E+03  0.96460187568E+02 0.  0.
         11    1    3    3    0    0 -0.69512847871E+02 -0.50815042748E+03 -0.29703881016E+03  0.59268958799E+03  0.00000000000E+00 0.  1.
        -11    1    3    3    0    0 -0.36535568966E+02 -0.21780444888E+03 -0.20657301110E+03  0.30240045414E+03  0.00000000000E+00 0. -1.
         22    1    1    2    0    0  0.10604841684E+03  0.72595487636E+03  0.29959898122E+04  0.30845115828E+04  0.00000000000E+00 0. -1.
<mgrwt>
<rscale>  0 0.31024637E+04</rscale>
<asrwt>0</asrwt>
<pdfrwt beam="1">  1        2 0.49784458E+00 0.31024637E+04</pdfrwt>
<pdfrwt beam="2">  1       -2 0.11440182E+00 0.31024637E+04</pdfrwt>
<totfact> 0.62206608E-01</totfact>
</mgrwt>
</event>
<event>
 6    1  0.1001928E-005  0.7757423E+03  0.7818608E-02  0.9595808E-01
         -3   -1    0    0    0  501 -0.00000000000E+00  0.00000000000E+00  0.74189793354E+03  0.74189793354E+03  0.00000000000E+00 0.  1.
          3   -1    0    0  501    0  0.00000000000E+00 -0.00000000000E+00 -0.20278266858E+03  0.20278266858E+03  0.00000000000E+00 0. -1.
         23    2    1    2    0    0  0.59137893700E+01  0.35695333858E+03  0.10649049581E+03  0.38377521820E+03  0.92154943323E+02 0.  0.
         13    1    3    3    0    0 -0.25823923105E+02  0.29151082251E+03  0.10534005112E+03  0.31103369755E+03  0.00000000000E+00 0.  1.
        -13    1    3    3    0    0  0.31737712475E+02  0.65442516077E+02  0.11504446880E+01  0.72741520651E+02  0.00000000000E+00 0. -1.
         22    1    1    2    0    0 -0.59137893700E+01 -0.35695333858E+03  0.43262476915E+03  0.56090538392E+03  0.00000000000E+00 0.  1.
<mgrwt>
<rscale>  0 0.77574234E+03</rscale>
<asrwt>0</asrwt>
<pdfrwt beam="1">  1        3 0.31197334E-01 0.77574234E+03</pdfrwt>
<pdfrwt beam="2">  1       -3 0.11413814E+00 0.77574234E+03</pdfrwt>
<totfact> 0.16931937E+01</totfact>
</mgrwt>
</event>
<event>
 6    1  0.1001928E-005  0.3483181E+04  0.7818608E-02  0.8117787E-01
          1   -1    0    0  501    0  0.00000000000E+00  0.00000000000E+00  0.21464385640E+04  0.21464385640E+04  0.00000000000E+00 0. -1.
         -1   -1    0    0    0  501 -0.00000000000E+00 -0.00000000000E+00 -0.14131027572E+04  0.14131027572E+04  0.00000000000E+00 0.  1.
         23    2    1    2    0    0  0.92539509992E+03  0.14200311329E+04  0.77119511603E+03  0.18641717931E+04  0.86891068907E+02 0.  0.
         13    1    3    3    0    0  0.26640452144E+03  0.41478287607E+03  0.18150824067E+03  0.52532032585E+03  0.00000000000E+00 0.  1.
        -13    1    3    3    0    0  0.65899057848E+03  0.10052482568E+04  0.58968687536E+03  0.13388514673E+04  0.00000000000E+00 0. -1.
         22    1    1    2    0    0 -0.92539509992E+03 -0.14200311329E+04 -0.37859309248E+02  0.16953695280E+04  0.00000000000E+00 0. -1.
<mgrwt>
<rscale>  0 0.34831814E+04</rscale>
<asrwt>0</asrwt>
<pdfrwt beam="1">  1        1 0.33022132E+00 0.34831814E+04</pdfrwt>
<pdfrwt beam="2">  1       -1 0.21740042E+00 0.34831814E+04</pdfrwt>
<totfact> 0.22180286E-01</totfact>
</mgrwt>
</event>
<event>
 6    1  0.1001928E-005  0.8164909E+03  0.7818608E-02  0.9536449E-01
         -1   -1    0    0    0  501 -0.00000000000E+00  0.00000000000E+00  0.35485393107E+03  0.35485393107E+03  0.00000000000E+00 0. -1.
          1   -1    0    0  501    0  0.00000000000E+00 -0.00000000000E+00 -0.46967025272E+03  0.46967025272E+03  0.00000000000E+00 0.  1.
         23    2    1    2    0    0  0.40002677513E+03 -0.11965545400E+02 -0.10697716481E+03  0.42424172417E+03  0.91500446106E+02 0.  0.
         11    1    3    3    0    0  0.23204672015E+03  0.21369039689E+02 -0.97862472558E+02  0.25274370363E+03  0.00000000000E+00 0. -1.
        -11    1    3    3    0    0  0.16798005498E+03 -0.33334585089E+02 -0.91146922570E+01  0.17149802054E+03  0.00000000000E+00 0.  1.
         22    1    1    2    0    0 -0.40002677513E+03  0.11965545400E+02 -0.78391568255E+01  0.40028245962E+03  0.00000000000E+00 0.  1.
<mgrwt>
<rscale>  0 0.81649087E+03</rscale>
<asrwt>0</asrwt>
<pdfrwt beam="1">  1        1 0.72256962E-01 0.81649087E+03</pdfrwt>
<pdfrwt beam="2">  1       -1 0.54592912E-01 0.81649087E+03</pdfrwt>
<totfact> 0.16558437E+02</totfact>
</mgrwt>
</event>
<event>
 6    1  0.1001928E-005  0.1079629E+04  0.7818608E-02  0.9225277E-01
         -1   -1    0    0    0  501 -0.00000000000E+00  0.00000000000E+00  0.51113301017E+03  0.51113301017E+03  0.00000000000E+00 0.  1.
          1   -1    0    0  501    0  0.00000000000E+00 -0.00000000000E+00 -0.57010551483E+03  0.57010551483E+03  0.00000000000E+00 0. -1.
         23    2    1    2    0    0  0.23399222283E+03 -0.34909881986E+03  0.30339714222E+03  0.52632041631E+03  0.91329121034E+02 0.  0.
         13    1    3    3    0    0  0.95608636303E+02 -0.10445430443E+03  0.14932717574E+03  0.20579193003E+03  0.00000000000E+00 0.  1.
        -13    1    3    3    0    0  0.13838358653E+03 -0.24464451543E+03  0.15406996648E+03  0.32052848628E+03  0.00000000000E+00 0. -1.
         22    1    1    2    0    0 -0.23399222283E+03  0.34909881986E+03 -0.36236964688E+03  0.55491810869E+03  0.00000000000E+00 0. -1.
<mgrwt>
<rscale>  0 0.10796291E+04</rscale>
<asrwt>0</asrwt>
<pdfrwt beam="1">  1        1 0.87708541E-01 0.10796291E+04</pdfrwt>
<pdfrwt beam="2">  1       -1 0.78635847E-01 0.10796291E+04</pdfrwt>
<totfact> 0.59542796E+01</totfact>
</mgrwt>
</event>
<event>
 6    1  0.1001928E-005  0.2609426E+04  0.7818608E-02  0.8365007E-01
          2   -1    0    0  501    0  0.00000000000E+00  0.00000000000E+00  0.11569889790E+04  0.11569889790E+04  0.00000000000E+00 0. -1.
         -2   -1    0    0    0  501 -0.00000000000E+00 -0.00000000000E+00 -0.14712980548E+04  0.14712980548E+04  0.00000000000E+00 0.  1.
         23    2    1    2    0    0 -0.59768379721E+02  0.90639300679E+03  0.78369120185E+03  0.12032518932E+04  0.92318344712E+02 0.  0.
         11    1    3    3    0    0 -0.25531424720E+02  0.61126145134E+02  0.44126420571E+02  0.79595227619E+02  0.00000000000E+00 0. -1.
        -11    1    3    3    0    0 -0.34236955001E+02  0.84526686166E+03  0.73956478128E+03  0.11236566656E+04  0.00000000000E+00 0.  1.
         22    1    1    2    0    0  0.59768379721E+02 -0.90639300679E+03 -0.10980002776E+04  0.14250351405E+04  0.00000000000E+00 0.  1.
<mgrwt>
<rscale>  0 0.26094257E+04</rscale>
<asrwt>0</asrwt>
<pdfrwt beam="1">  1        2 0.17799831E+00 0.26094257E+04</pdfrwt>
<pdfrwt beam="2">  1       -2 0.22635355E+00 0.26094257E+04</pdfrwt>
<totfact> 0.16013861E+00</totfact>
</mgrwt>
</event>
<event>
 6    1  0.1001928E-005  0.1747686E+04  0.7818608E-02  0.8734625E-01
         -2   -1    0    0    0  501 -0.00000000000E+00  0.00000000000E+00  0.68238585954E+03  0.68238585954E+03  0.00000000000E+00 0.  1.
          2   -1    0    0  501    0  0.00000000000E+00 -0.00000000000E+00 -0.11190177878E+04  0.11190177878E+04  0.00000000000E+00 0. -1.
         23    2    1    2    0    0  0.49759896555E+03 -0.23071712754E+03 -0.91662360364E+03  0.10725503480E+04  0.96593451099E+02 0.  0.
         13    1    3    3    0    0  0.27988490831E+03 -0.77566589014E+02 -0.46051326277E+03  0.54444889826E+03  0.00000000000E+00 0. -1.
        -13    1    3    3    0    0  0.21771405723E+03 -0.15315053852E+03 -0.45611034087E+03  0.52810144974E+03  0.00000000000E+00 0.  1.
         22    1    1    2    0    0 -0.49759896555E+03  0.23071712754E+03  0.47999167540E+03  0.72885329931E+03  0.00000000000E+00 0.  1.
<mgrwt>
<rscale>  0 0.17476864E+04</rscale>
<asrwt>0</asrwt>
<pdfrwt beam="1">  1        2 0.17215658E+00 0.17476864E+04</pdfrwt>
<pdfrwt beam="2">  1       -2 0.10498244E+00 0.17476864E+04</pdfrwt>
<totfact> 0.14786292E+01</totfact>
</mgrwt>
</event>
<event>
 6    1  0.1001928E-005  0.3529375E+04  0.7818608E-02  0.8106864E-01
         -1   -1    0    0    0  501 -0.00000000000E+00  0.00000000000E+00  0.12455491726E+04  0.12455491726E+04  0.00000000000E+00 0.  1.
          1   -1    0    0  501    0  0.00000000000E+00 -0.00000000000E+00 -0.25001994722E+04  0.25001994722E+04  0.00000000000E+00 0. -1.
         23    2    1    2    0    0  0.68424896864E+03 -0.12306456578E+04  0.49907332031E+03  0.14966973068E+04  0.91341463271E+02 0.  0.
         11    1    3    3    0    0  0.46992820583E+03 -0.75577587642E+03  0.30691617017E+03  0.94139642528E+03  0.00000000000E+00 0. -1.
        -11    1    3    3    0    0  0.21432076280E+03 -0.47486978141E+03  0.19215715014E+03  0.55530088152E+03  0.00000000000E+00 0.  1.
         22    1    1    2    0    0 -0.68424896864E+03  0.12306456578E+04 -0.17537236199E+04  0.22490513381E+04  0.00000000000E+00 0. -1.
<mgrwt>
<rscale>  0 0.35293747E+04</rscale>
<asrwt>0</asrwt>
<pdfrwt beam="1">  1        1 0.38464607E+00 0.35293747E+04</pdfrwt>
<pdfrwt beam="2">  1       -1 0.19162295E+00 0.35293747E+04</pdfrwt>
<totfact> 0.18968935E-01</totfact>
</mgrwt>
</event>
<event>
 6    1  0.1001928E-005  0.1454569E+04  0.7818608E-02  0.8915239E-01
         -2   -1    0    0    0  501 -0.00000000000E+00  0.00000000000E+00  0.32986465920E+03  0.32986465920E+03  0.00000000000E+00 0.  1.
          2   -1    0    0  501    0  0.00000000000E+00 -0.00000000000E+00 -0.16035144226E+04  0.16035144226E+04  0.00000000000E+00 0. -1.
         23    2    1    2    0    0 -0.13104251308E+03  0.70271332390E+03 -0.79528739611E+03  0.10732577472E+04  0.91771420500E+02 0.  0.
         13    1    3    3    0    0 -0.55033151208E+02  0.51044976219E+03 -0.58557153711E+03  0.77876930636E+03  0.00000000000E+00 0.  1.
        -13    1    3    3    0    0 -0.76009361875E+02  0.19226356171E+03 -0.20971585900E+03  0.29448844081E+03  0.00000000000E+00 0. -1.
         22    1    1    2    0    0  0.13104251308E+03 -0.70271332390E+03 -0.47836236726E+03  0.86012133460E+03  0.00000000000E+00 0.  1.
<mgrwt>
<rscale>  0 0.14545690E+04</rscale>
<asrwt>0</asrwt>
<pdfrwt beam="1">  1        2 0.24669453E+00 0.14545690E+04</pdfrwt>
<pdfrwt beam="2">  1       -2 0.50748409E-01 0.14545690E+04</pdfrwt>
<totfact> 0.39500947E+01</totfact>
</mgrwt>
</event>
<event>
 6    1  0.1001928E-005  0.7506651E+03  0.7818608E-02  0.9634307E-01
         -2   -1    0    0    0  501 -0.00000000000E+00  0.00000000000E+00  0.26697274136E+03  0.26697274136E+03  0.00000000000E+00 0.  1.
          2   -1    0    0  501    0  0.00000000000E+00 -0.00000000000E+00 -0.52767386925E+03  0.52767386925E+03  0.00000000000E+00 0. -1.
         23    2    1    2    0    0 -0.27566005561E+03 -0.18930233386E+03  0.34793934089E+02  0.34839424758E+03  0.91346012674E+02 0.  0.
         13    1    3    3    0    0 -0.11314942597E+03 -0.12905037772E+03  0.34553710271E+02  0.17507356020E+03  0.00000000000E+00 0. -1.
        -13    1    3    3    0    0 -0.16251062964E+03 -0.60251956134E+02  0.24022381778E+00  0.17332068738E+03  0.00000000000E+00 0.  1.
         22    1    1    2    0    0  0.27566005561E+03  0.18930233386E+03 -0.29549506197E+03  0.44625236303E+03  0.00000000000E+00 0. -1.
<mgrwt>
<rscale>  0 0.75066514E+03</rscale>
<asrwt>0</asrwt>
<pdfrwt beam="1">  1        2 0.81180595E-01 0.75066514E+03</pdfrwt>
<pdfrwt beam="2">  1       -2 0.41072730E-01 0.75066514E+03</pdfrwt>
<totfact> 0.32698754E+02</totfact>
</mgrwt>
</event>
<event>
 6    1  0.1001928E-005  0.1158660E+04  0.7818608E-02  0.9149831E-01
          2   -1    0    0  501    0  0.00000000000E+00  0.00000000000E+00  0.82407579602E+03  0.82407579602E+03  0.00000000000E+00 0. -1.
         -2   -1    0    0    0  501 -0.00000000000E+00 -0.00000000000E+00 -0.40727242458E+03  0.40727242458E+03  0.00000000000E+00 0.  1.
         23    2    1    2    0    0  0.34120563226E+03 -0.46654129987E+03  0.20096395293E+03  0.61436465311E+03  0.54546756456E+02 0.  0.
         13    1    3    3    0    0  0.21722207973E+03 -0.30432588432E+03  0.10251182546E+03  0.38769620858E+03  0.00000000000E+00 0.  1.
        -13    1    3    3    0    0  0.12398355253E+03 -0.16221541555E+03  0.98452127471E+02  0.22666844453E+03  0.00000000000E+00 0. -1.
         22    1    1    2    0    0 -0.34120563226E+03  0.46654129987E+03  0.21583941851E+03  0.61698356749E+03  0.00000000000E+00 0.  1.
<mgrwt>
<rscale>  0 0.11586602E+04</rscale>
<asrwt>0</asrwt>
<pdfrwt beam="1">  1        2 0.12678089E+00 0.11586602E+04</pdfrwt>
<pdfrwt beam="2">  1       -2 0.62657296E-01 0.11586602E+04</pdfrwt>
<totfact> 0.77380413E+01</totfact>
</mgrwt>
</event>
<event>
 6    1  0.1001928E-005  0.2393922E+04  0.7818608E-02  0.8441783E-01
         -1   -1    0    0    0  501 -0.00000000000E+00  0.00000000000E+00  0.11054559421E+04  0.11054559421E+04  0.00000000000E+00 0.  1.
          1   -1    0    0  501    0  0.00000000000E+00 -0.00000000000E+00 -0.12960400620E+04  0.12960400620E+04  0.00000000000E+00 0. -1.
         23    2    1    2    0    0 -0.87554997422E+03 -0.15675648036E+03  0.70538723363E+03  0.11389885714E+04  0.92538990796E+02 0.  0.
         13    1    3    3    0    0 -0.36315987179E+03 -0.44538888353E+02  0.23839147848E+03  0.43669131211E+03  0.00000000000E+00 0. -1.
        -13    1    3    3    0    0 -0.51239010242E+03 -0.11221759201E+03  0.46699575515E+03  0.70229725925E+03  0.00000000000E+00 0.  1.
         22    1    1    2    0    0  0.87554997422E+03  0.15675648036E+03 -0.89597135353E+03  0.12625074328E+04  0.00000000000E+00 0. -1.
<mgrwt>
<rscale>  0 0.23939216E+04</rscale>
<asrwt>0</asrwt>
<pdfrwt beam="1">  1        1 0.19939078E+00 0.23939216E+04</pdfrwt>
<pdfrwt beam="2">  1       -1 0.17007014E+00 0.23939216E+04</pdfrwt>
<totfact> 0.20064484E+00</totfact>
</mgrwt>
</event>
<event>
 6    1  0.1001928E-005  0.4570973E+04  0.7818608E-02  0.7898328E-01
          2   -1    0    0  501    0  0.00000000000E+00  0.00000000000E+00  0.40750521451E+04  0.40750521451E+04  0.00000000000E+00 0. -1.
         -2   -1    0    0    0  501 -0.00000000000E+00 -0.00000000000E+00 -0.12818112553E+04  0.12818112553E+04  0.00000000000E+00 0.  1.
         23    2    1    2    0    0 -0.83144159565E+02 -0.21096185426E+04  0.24201212683E+04  0.32128900800E+04  0.90952546742E+02 0.  0.
         11    1    3    3    0    0 -0.46779550220E+02 -0.12901810435E+04  0.14122723825E+04  0.19134442071E+04  0.00000000000E+00 0. -1.
        -11    1    3    3    0    0 -0.36364609345E+02 -0.81943749913E+03  0.10078488859E+04  0.12994458729E+04  0.00000000000E+00 0.  1.
         22    1    1    2    0    0  0.83144159565E+02  0.21096185426E+04  0.37311962150E+03  0.21439733204E+04  0.00000000000E+00 0.  1.
<mgrwt>
<rscale>  0 0.45709726E+04</rscale>
<asrwt>0</asrwt>
<pdfrwt beam="1">  1        2 0.62693109E+00 0.45709726E+04</pdfrwt>
<pdfrwt beam="2">  1       -2 0.19720173E+00 0.45709726E+04</pdfrwt>
<totfact> 0.30890976E-02</totfact>
</mgrwt>
</event>
<event>
 6    1  0.1001928E-005  0.3998938E+04  0.7818608E-02  0.8004761E-01
          1   -1    0    0  501    0  0.00000000000E+00  0.00000000000E+00  0.20669412383E+04  0.20669412383E+04  0.00000000000E+00 0. -1.
         -1   -1    0    0    0  501 -0.00000000000E+00 -0.00000000000E+00 -0.19341997124E+04  0.19341997124E+04  0.00000000000E+00 0.  1.
         23    2    1    2    0    0  0.12948344238E+04 -0.11049237569E+04 -0.98122743836E+03  0.19668401994E+04  0.90556006547E+02 0.  0.
         11    1    3    3    0    0  0.10392902757E+04 -0.86325134733E+03 -0.74103259338E+03  0.15409271463E+04  0.00000000000E+00 0.  1.
        -11    1    3    3    0    0  0.25554414818E+03 -0.24167240954E+03 -0.24019484498E+03  0.42591305305E+03  0.00000000000E+00 0. -1.
         22    1    1    2    0    0 -0.12948344238E+04  0.11049237569E+04  0.11139689642E+04  0.20343007514E+04  0.00000000000E+00 0. -1.
<mgrwt>
<rscale>  0 0.39989384E+04</rscale>
<asrwt>0</asrwt>
<pdfrwt beam="1">  1        1 0.31799096E+00 0.39989384E+04</pdfrwt>
<pdfrwt beam="2">  1       -1 0.29756919E+00 0.39989384E+04</pdfrwt>
<totfact> 0.71937709E-02</totfact>
</mgrwt>
</event>
<event>
 6    1  0.1001928E-005  0.1501811E+04  0.7818608E-02  0.8883249E-01
         -1   -1    0    0    0  501 -0.00000000000E+00  0.00000000000E+00  0.12890353413E+04  0.12890353413E+04  0.00000000000E+00 0.  1.
          1   -1    0    0  501    0  0.00000000000E+00 -0.00000000000E+00 -0.43742719674E+03  0.43742719674E+03  0.00000000000E+00 0. -1.
         23    2    1    2    0    0 -0.74994470366E+02 -0.70213345599E+03  0.14334160902E+03  0.72633402331E+03  0.91644617612E+02 0.  0.
         11    1    3    3    0    0 -0.53381317487E+02 -0.32114641087E+03  0.10845548025E+03  0.34314308017E+03  0.00000000000E+00 0.  1.
        -11    1    3    3    0    0 -0.21613152879E+02 -0.38098704511E+03  0.34886128774E+02  0.38319094314E+03  0.00000000000E+00 0. -1.
         22    1    1    2    0    0  0.74994470366E+02  0.70213345599E+03  0.70826653553E+03  0.10001285147E+04  0.00000000000E+00 0.  1.
<mgrwt>
<rscale>  0 0.15018111E+04</rscale>
<asrwt>0</asrwt>
<pdfrwt beam="1">  1        1 0.67296492E-01 0.15018111E+04</pdfrwt>
<pdfrwt beam="2">  1       -1 0.19831313E+00 0.15018111E+04</pdfrwt>
<totfact> 0.79548570E+00</totfact>
</mgrwt>
</event>
<event>
 6    1  0.1001928E-005  0.3928811E+04  0.7818608E-02  0.8019064E-01
          2   -1    0    0  501    0  0.00000000000E+00  0.00000000000E+00  0.24830669993E+04  0.24830669993E+04  0.00000000000E+00 0. -1.
         -2   -1    0    0    0  501 -0.00000000000E+00 -0.00000000000E+00 -0.15540813648E+04  0.15540813648E+04  0.00000000000E+00 0.  1.
         23    2    1    2    0    0 -0.19322106058E+04  0.98359191814E+02  0.12152561332E+03  0.19406980208E+04  0.91804017718E+02 0.  0.
         11    1    3    3    0    0 -0.53495130803E+03  0.19955337808E+02  0.74195059259E+02  0.54044058349E+03  0.00000000000E+00 0.  1.
        -11    1    3    3    0    0 -0.13972592978E+04  0.78403854006E+02  0.47330554056E+02  0.14002574374E+04  0.00000000000E+00 0. -1.
         22    1    1    2    0    0  0.19322106058E+04 -0.98359191814E+02  0.80746002121E+03  0.20964503432E+04  0.00000000000E+00 0.  1.
<mgrwt>
<rscale>  0 0.39288106E+04</rscale>
<asrwt>0</asrwt>
<pdfrwt beam="1">  1        2 0.38201031E+00 0.39288106E+04</pdfrwt>
<pdfrwt beam="2">  1       -2 0.23908944E+00 0.39288106E+04</pdfrwt>
<totfact> 0.21201004E-01</totfact>
</mgrwt>
</event>
<event>
 6    1  0.1001928E-005  0.2150702E+04  0.7818608E-02  0.8539232E-01
         -2   -1    0    0    0  501 -0.00000000000E+00  0.00000000000E+00  0.53138486443E+03  0.53138486443E+03  0.00000000000E+00 0.  1.
          2   -1    0    0  501    0  0.00000000000E+00 -0.00000000000E+00 -0.21761620379E+04  0.21761620379E+04  0.00000000000E+00 0. -1.
         23    2    1    2    0    0  0.36531386929E+02 -0.46804756939E+03  0.39102077270E+03  0.61831825351E+03  0.94958667289E+02 0.  0.
         13    1    3    3    0    0  0.62365831431E+02 -0.34246532779E+03  0.25581132818E+03  0.43198545496E+03  0.00000000000E+00 0.  1.
        -13    1    3    3    0    0 -0.25834444502E+02 -0.12558224160E+03  0.13520944452E+03  0.18633279855E+03  0.00000000000E+00 0. -1.
         22    1    1    2    0    0 -0.36531386929E+02  0.46804756939E+03 -0.20357979462E+04  0.20892286488E+04  0.00000000000E+00 0. -1.
<mgrwt>
<rscale>  0 0.21507018E+04</rscale>
<asrwt>0</asrwt>
<pdfrwt beam="1">  1        2 0.33479416E+00 0.21507018E+04</pdfrwt>
<pdfrwt beam="2">  1       -2 0.81751517E-01 0.21507018E+04</pdfrwt>
<totfact> 0.64333158E+00</totfact>
</mgrwt>
</event>
<event>
 6    1  0.1001928E-005  0.2246698E+04  0.7818608E-02  0.8499239E-01
          2   -1    0    0  501    0  0.00000000000E+00  0.00000000000E+00  0.27741455187E+04  0.27741455187E+04  0.00000000000E+00 0. -1.
         -2   -1    0    0    0  501 -0.00000000000E+00 -0.00000000000E+00 -0.45488351893E+03  0.45488351893E+03  0.00000000000E+00 0.  1.
         23    2    1    2    0    0  0.96105380452E+03  0.57587489554E+03  0.10897088825E+04  0.15655816598E+04  0.91236914416E+02 0.  0.
         11    1    3    3    0    0  0.69558263119E+03  0.39045732587E+03  0.82225273740E+03  0.11455966499E+04  0.00000000000E+00 0. -1.
        -11    1    3    3    0    0  0.26547117334E+03  0.18541756967E+03  0.26745614506E+03  0.41998500990E+03  0.00000000000E+00 0.  1.
         22    1    1    2    0    0 -0.96105380452E+03 -0.57587489554E+03  0.12295531173E+04  0.16634473778E+04  0.00000000000E+00 0. -1.
<mgrwt>
<rscale>  0 0.22466981E+04</rscale>
<asrwt>0</asrwt>
<pdfrwt beam="1">  1        2 0.42679161E+00 0.22466981E+04</pdfrwt>
<pdfrwt beam="2">  1       -2 0.69982081E-01 0.22466981E+04</pdfrwt>
<totfact> 0.40616058E+00</totfact>
</mgrwt>
</event>
<event>
 6    1  0.1001928E-005  0.3736761E+04  0.7818608E-02  0.8059864E-01
          1   -1    0    0  501    0  0.00000000000E+00  0.00000000000E+00  0.14531081499E+04  0.14531081499E+04  0.00000000000E+00 0. -1.
         -1   -1    0    0    0  501 -0.00000000000E+00 -0.00000000000E+00 -0.24023297905E+04  0.24023297905E+04  0.00000000000E+00 0.  1.
         23    2    1    2    0    0 -0.72893254229E+02  0.16146462967E+04  0.48983240067E+03  0.16913509219E+04  0.91302083700E+02 0.  0.
         13    1    3    3    0    0 -0.13178481693E+02  0.34624479879E+03  0.66358046740E+02  0.35279246511E+03  0.00000000000E+00 0. -1.
        -13    1    3    3    0    0 -0.59714772535E+02  0.12684014979E+04  0.42347435393E+03  0.13385584568E+04  0.00000000000E+00 0.  1.
         22    1    1    2    0    0  0.72893254229E+02 -0.16146462967E+04 -0.14390540412E+04  0.21640870185E+04  0.00000000000E+00 0.  1.
<mgrwt>
<rscale>  0 0.37367606E+04</rscale>
<asrwt>0</asrwt>
<pdfrwt beam="1">  1        1 0.22355510E+00 0.37367606E+04</pdfrwt>
<pdfrwt beam="2">  1       -1 0.36958920E+00 0.37367606E+04</pdfrwt>
<totfact> 0.64823916E-02</totfact>
</mgrwt>
</event>
<event>
 6    1  0.1109681E-005  0.2987852E+04  0.7818608E-02  0.8247208E-01
         -1   -1    0    0    0  501 -0.00000000000E+00  0.00000000000E+00  0.19578315242E+04  0.19578315242E+04  0.00000000000E+00 0.  1.
          1   -1    0    0  501    0  0.00000000000E+00 -0.00000000000E+00 -0.11399425455E+04  0.11399425455E+04  0.00000000000E+00 0. -1.
         23    2    1    2    0    0 -0.78961498300E+03  0.12515858646E+04  0.20817128814E+03  0.14972383281E+04  0.91805925517E+02 0.  0.
         11    1    3    3    0    0 -0.38216261428E+03  0.65755610521E+03  0.14388926176E+03  0.77403644288E+03  0.00000000000E+00 0. -1.
        -11    1    3    3    0    0 -0.40745236871E+03  0.59402975939E+03  0.64282026383E+02  0.72320188518E+03  0.00000000000E+00 0.  1.
         22    1    1    2    0    0  0.78961498300E+03 -0.12515858646E+04  0.60971769054E+03  0.16005357416E+04  0.00000000000E+00 0.  1.
<mgrwt>
<rscale>  0 0.29878524E+04</rscale>
<asrwt>0</asrwt>
<pdfrwt beam="1">  1        1 0.17537578E+00 0.29878524E+04</pdfrwt>
<pdfrwt beam="2">  1       -1 0.30120485E+00 0.29878524E+04</pdfrwt>
<totfact> 0.32698890E-01</totfact>
</mgrwt>
</event>
<event>
 6    1  0.1001928E-005  0.3779020E+04  0.7818608E-02  0.8050672E-01
          2   -1    0    0  501    0  0.00000000000E+00  0.00000000000E+00  0.15271207134E+04  0.15271207134E+04  0.00000000000E+00 0. -1.
         -2   -1    0    0    0  501 -0.00000000000E+00 -0.00000000000E+00 -0.23378949685E+04  0.23378949685E+04  0.00000000000E+00 0.  1.
         23    2    1    2    0    0 -0.10027261307E+04 -0.52978117906E+03  0.11386941654E+04  0.16096764805E+04  0.91138239277E+02 0.  0.
         13    1    3    3    0    0 -0.36444087215E+02 -0.19907558657E+02  0.20405797450E+02  0.46269633175E+02  0.00000000000E+00 0. -1.
        -13    1    3    3    0    0 -0.96628204352E+03 -0.50987362040E+03  0.11182883680E+04  0.15634068473E+04  0.00000000000E+00 0.  1.
         22    1    1    2    0    0  0.10027261307E+04  0.52978117906E+03 -0.19494684204E+04  0.22553392014E+04  0.00000000000E+00 0.  1.
<mgrwt>
<rscale>  0 0.37790199E+04</rscale>
<asrwt>0</asrwt>
<pdfrwt beam="1">  1        2 0.23494165E+00 0.37790199E+04</pdfrwt>
<pdfrwt beam="2">  1       -2 0.35967615E+00 0.37790199E+04</pdfrwt>
<totfact> 0.13292854E-01</totfact>
</mgrwt>
</event>
<event>
 6    1  0.1001928E-005  0.1692343E+04  0.7818608E-02  0.8765744E-01
         -1   -1    0    0    0  501 -0.00000000000E+00  0.00000000000E+00  0.32981057702E+03  0.32981057702E+03  0.00000000000E+00 0.  1.
          1   -1    0    0  501    0  0.00000000000E+00 -0.00000000000E+00 -0.21709616640E+04  0.21709616640E+04  0.00000000000E+00 0. -1.
         23    2    1    2    0    0 -0.83291149065E+02  0.79683154725E+03 -0.13140767726E+04  0.15417700183E+04  0.91537397204E+02 0.  0.
         11    1    3    3    0    0 -0.16946637043E+02  0.56259330676E+03 -0.90702966212E+03  0.10674742270E+04  0.00000000000E+00 0.  1.
        -11    1    3    3    0    0 -0.66344512021E+02  0.23423824049E+03 -0.40704711043E+03  0.47429579135E+03  0.00000000000E+00 0. -1.
         22    1    1    2    0    0  0.83291149065E+02 -0.79683154725E+03 -0.52707431445E+03  0.95900222271E+03  0.00000000000E+00 0.  1.
<mgrwt>
<rscale>  0 0.16923429E+04</rscale>
<asrwt>0</asrwt>
<pdfrwt beam="1">  1        1 0.33399409E+00 0.16923429E+04</pdfrwt>
<pdfrwt beam="2">  1       -1 0.50740090E-01 0.16923429E+04</pdfrwt>
<totfact> 0.84790161E+00</totfact>
</mgrwt>
</event>
<event>
 6    1  0.1001928E-005  0.1377424E+04  0.7818608E-02  0.8970324E-01
          1   -1    0    0  501    0  0.00000000000E+00  0.00000000000E+00  0.10105640475E+04  0.10105640475E+04  0.00000000000E+00 0. -1.
         -1   -1    0    0    0  501 -0.00000000000E+00 -0.00000000000E+00 -0.46936566559E+03  0.46936566559E+03  0.00000000000E+00 0.  1.
         23    2    1    2    0    0  0.53638512071E+03 -0.62183974197E+02 -0.17996257314E+03  0.57901408582E+03  0.10627765275E+03 0.  0.
         13    1    3    3    0    0  0.35883617470E+03 -0.99288658827E+01 -0.15948020825E+03  0.39280519278E+03  0.00000000000E+00 0. -1.
        -13    1    3    3    0    0  0.17754894601E+03 -0.52255108315E+02 -0.20482364894E+02  0.18620889303E+03  0.00000000000E+00 0.  1.
         22    1    1    2    0    0 -0.53638512071E+03  0.62183974197E+02  0.72116095501E+03  0.90091562724E+03  0.00000000000E+00 0. -1.
<mgrwt>
<rscale>  0 0.13774238E+04</rscale>
<asrwt>0</asrwt>
<pdfrwt beam="1">  1        1 0.15547139E+00 0.13774238E+04</pdfrwt>
<pdfrwt beam="2">  1       -1 0.72210102E-01 0.13774238E+04</pdfrwt>
<totfact> 0.28063899E+01</totfact>
</mgrwt>
</event>
<event>
 6    1  0.1001928E-005  0.1938532E+04  0.7818608E-02  0.8635911E-01
          1   -1    0    0  501    0  0.00000000000E+00  0.00000000000E+00  0.53822574402E+03  0.53822574402E+03  0.00000000000E+00 0. -1.
         -1   -1    0    0    0  501 -0.00000000000E+00 -0.00000000000E+00 -0.17455062301E+04  0.17455062301E+04  0.00000000000E+00 0.  1.
         23    2    1    2    0    0 -0.89412119669E+03  0.35026516659E+03 -0.46900736981E+03  0.10724576057E+04  0.89771943750E+02 0.  0.
         11    1    3    3    0    0 -0.31434446756E+03  0.16562449450E+03 -0.19258076917E+03  0.40414263586E+03  0.00000000000E+00 0. -1.
        -11    1    3    3    0    0 -0.57977672913E+03  0.18464067208E+03 -0.27642660064E+03  0.66831496988E+03  0.00000000000E+00 0.  1.
         22    1    1    2    0    0  0.89412119669E+03 -0.35026516659E+03 -0.73827311629E+03  0.12112743684E+04  0.00000000000E+00 0.  1.
<mgrwt>
<rscale>  0 0.19385318E+04</rscale>
<asrwt>0</asrwt>
<pdfrwt beam="1">  1        1 0.82803959E-01 0.19385318E+04</pdfrwt>
<pdfrwt beam="2">  1       -1 0.26853943E+00 0.19385318E+04</pdfrwt>
<totfact> 0.19700661E+00</totfact>
</mgrwt>
</event>
<event>
 6    1  0.1001928E-005  0.2355993E+04  0.7818608E-02  0.8456165E-01
         -2   -1    0    0    0  501 -0.00000000000E+00  0.00000000000E+00  0.84850728879E+03  0.84850728879E+03  0.00000000000E+00 0. -1.
          2   -1    0    0  501    0  0.00000000000E+00 -0.00000000000E+00 -0.16354315459E+04  0.16354315459E+04  0.00000000000E+00 0.  1.
         23    2    1    2    0    0 -0.67724605119E+03  0.92836482183E+03 -0.65627087153E+03  0.13273949473E+04  0.10374214645E+03 0.  0.
         11    1    3    3    0    0 -0.56938395580E+03  0.78214589502E+03 -0.50700665457E+03  0.10922481577E+04  0.00000000000E+00 0. -1.
        -11    1    3    3    0    0 -0.10786209539E+03  0.14621892681E+03 -0.14926421696E+03  0.23514678957E+03  0.00000000000E+00 0.  1.
         22    1    1    2    0    0  0.67724605119E+03 -0.92836482183E+03 -0.13065338552E+03  0.11565438874E+04  0.00000000000E+00 0. -1.
<mgrwt>
<rscale>  0 0.23559929E+04</rscale>
<asrwt>0</asrwt>
<pdfrwt beam="1">  1        2 0.25160485E+00 0.23559929E+04</pdfrwt>
<pdfrwt beam="2">  1       -2 0.13053958E+00 0.23559929E+04</pdfrwt>
<totfact> 0.41330071E+00</totfact>
</mgrwt>
</event>
<event>
 6    1  0.1001928E-005  0.1734495E+04  0.7818608E-02  0.8741931E-01
         -2   -1    0    0    0  501 -0.00000000000E+00  0.00000000000E+00  0.30988252957E+03  0.30988252957E+03  0.00000000000E+00 0.  1.
          2   -1    0    0  501    0  0.00000000000E+00 -0.00000000000E+00 -0.24271076367E+04  0.24271076367E+04  0.00000000000E+00 0. -1.
         23    2    1    2    0    0 -0.44630262541E+03 -0.57419329753E+03 -0.32279936774E+03  0.80079603588E+03  0.90503496552E+02 0.  0.
         13    1    3    3    0    0 -0.30563899641E+03 -0.34105788263E+03 -0.23475441291E+03  0.51463123672E+03  0.00000000000E+00 0. -1.
        -13    1    3    3    0    0 -0.14066362901E+03 -0.23313541490E+03 -0.88044954827E+02  0.28616479916E+03  0.00000000000E+00 0.  1.
         22    1    1    2    0    0  0.44630262541E+03  0.57419329753E+03 -0.17944257394E+04  0.19361941304E+04  0.00000000000E+00 0. -1.
<mgrwt>
<rscale>  0 0.17344950E+04</rscale>
<asrwt>0</asrwt>
<pdfrwt beam="1">  1        2 0.37340118E+00 0.17344950E+04</pdfrwt>
<pdfrwt beam="2">  1       -2 0.47674235E-01 0.17344950E+04</pdfrwt>
<totfact> 0.15192855E+01</totfact>
</mgrwt>
</event>
<event>
 6    1  0.1001928E-005  0.1722064E+04  0.7818608E-02  0.8748879E-01
         -1   -1    0    0    0  501 -0.00000000000E+00  0.00000000000E+00  0.46957308177E+03  0.46957308177E+03  0.00000000000E+00 0.  1.
          1   -1    0    0  501    0  0.00000000000E+00 -0.00000000000E+00 -0.15788309037E+04  0.15788309037E+04  0.00000000000E+00 0. -1.
         23    2    1    2    0    0 -0.37408541224E+03  0.42770481982E+03 -0.13218353215E+04  0.14417240848E+04  0.91915237703E+02 0.  0.
         11    1    3    3    0    0 -0.74443716970E+02  0.91608929066E+02 -0.37765654279E+03  0.39567477452E+03  0.00000000000E+00 0. -1.
        -11    1    3    3    0    0 -0.29964169527E+03  0.33609589075E+03 -0.94417877872E+03  0.10460493103E+04  0.00000000000E+00 0.  1.
         22    1    1    2    0    0  0.37408541224E+03 -0.42770481982E+03  0.21257749959E+03  0.60667990067E+03  0.00000000000E+00 0.  1.
<mgrwt>
<rscale>  0 0.17220645E+04</rscale>
<asrwt>0</asrwt>
<pdfrwt beam="1">  1        1 0.24289706E+00 0.17220645E+04</pdfrwt>
<pdfrwt beam="2">  1       -1 0.72242014E-01 0.17220645E+04</pdfrwt>
<totfact> 0.10595058E+01</totfact>
</mgrwt>
</event>
<event>
 6    1  0.1001928E-005  0.3304759E+04  0.7818608E-02  0.8161686E-01
          2   -1    0    0  501    0  0.00000000000E+00  0.00000000000E+00  0.16815057419E+04  0.16815057419E+04  0.00000000000E+00 0. -1.
         -2   -1    0    0    0  501 -0.00000000000E+00 -0.00000000000E+00 -0.16237575817E+04  0.16237575817E+04  0.00000000000E+00 0.  1.
         23    2    1    2    0    0 -0.13171471038E+04  0.26539282982E+03 -0.93087319237E+03  0.16371260314E+04  0.91361343768E+02 0.  0.
         11    1    3    3    0    0 -0.91862871160E+03  0.18703701022E+03 -0.59767117479E+03  0.11117879232E+04  0.00000000000E+00 0. -1.
        -11    1    3    3    0    0 -0.39851839221E+03  0.78355819600E+02 -0.33320201758E+03  0.52533810819E+03  0.00000000000E+00 0.  1.
         22    1    1    2    0    0  0.13171471038E+04 -0.26539282982E+03  0.98862135254E+03  0.16681372923E+04  0.00000000000E+00 0.  1.
<mgrwt>
<rscale>  0 0.33047588E+04</rscale>
<asrwt>0</asrwt>
<pdfrwt beam="1">  1        2 0.25869319E+00 0.33047588E+04</pdfrwt>
<pdfrwt beam="2">  1       -2 0.24980886E+00 0.33047588E+04</pdfrwt>
<totfact> 0.54026392E-01</totfact>
</mgrwt>
</event>
<event>
 6    1  0.1001928E-005  0.3019310E+04  0.7818608E-02  0.8238238E-01
         -1   -1    0    0    0  501 -0.00000000000E+00  0.00000000000E+00  0.20552851710E+04  0.20552851710E+04  0.00000000000E+00 0.  1.
          1   -1    0    0  501    0  0.00000000000E+00 -0.00000000000E+00 -0.11088766584E+04  0.11088766584E+04  0.00000000000E+00 0. -1.
         23    2    1    2    0    0  0.12057264232E+04 -0.90592693832E+03  0.45413767467E+03  0.15777159894E+04  0.92015708830E+02 0.  0.
         11    1    3    3    0    0  0.35868385224E+03 -0.21988893793E+03  0.13826199566E+03  0.44285621856E+03  0.00000000000E+00 0.  1.
        -11    1    3    3    0    0  0.84704257093E+03 -0.68603800039E+03  0.31587567902E+03  0.11348597709E+04  0.00000000000E+00 0. -1.
         22    1    1    2    0    0 -0.12057264232E+04  0.90592693832E+03  0.49227083798E+03  0.15864458399E+04  0.00000000000E+00 0.  1.
<mgrwt>
<rscale>  0 0.30193097E+04</rscale>
<asrwt>0</asrwt>
<pdfrwt beam="1">  1        1 0.17059641E+00 0.30193097E+04</pdfrwt>
<pdfrwt beam="2">  1       -1 0.31619772E+00 0.30193097E+04</pdfrwt>
<totfact> 0.27484485E-01</totfact>
</mgrwt>
</event>
<event>
 6    1  0.1001928E-005  0.2254060E+04  0.7818608E-02  0.8496258E-01
         -2   -1    0    0    0  501 -0.00000000000E+00  0.00000000000E+00  0.12671737832E+04  0.12671737832E+04  0.00000000000E+00 0.  1.
          2   -1    0    0  501    0  0.00000000000E+00 -0.00000000000E+00 -0.10023852660E+04  0.10023852660E+04  0.00000000000E+00 0. -1.
         23    2    1    2    0    0  0.97047007856E+03  0.52182736830E+03  0.36187727498E+03  0.11634206299E+04  0.92067498241E+02 0.  0.
         11    1    3    3    0    0  0.22666559007E+03  0.16574761405E+03  0.10301672099E+03  0.29910199947E+03  0.00000000000E+00 0. -1.
        -11    1    3    3    0    0  0.74380448849E+03  0.35607975425E+03  0.25886055398E+03  0.86431863042E+03  0.00000000000E+00 0.  1.
         22    1    1    2    0    0 -0.97047007856E+03 -0.52182736830E+03 -0.97088757761E+02  0.11061384193E+04  0.00000000000E+00 0. -1.
<mgrwt>
<rscale>  0 0.22540597E+04</rscale>
<asrwt>0</asrwt>
<pdfrwt beam="1">  1        2 0.15421312E+00 0.22540597E+04</pdfrwt>
<pdfrwt beam="2">  1       -2 0.19494981E+00 0.22540597E+04</pdfrwt>
<totfact> 0.32798870E+00</totfact>
</mgrwt>
</event>
<event>
 6    1  0.1001928E-005  0.2251448E+04  0.7818608E-02  0.8497314E-01
         -1   -1    0    0    0  501 -0.00000000000E+00  0.00000000000E+00  0.75789009088E+03  0.75789009088E+03  0.00000000000E+00 0.  1.
          1   -1    0    0  501    0  0.00000000000E+00 -0.00000000000E+00 -0.16720817866E+04  0.16720817866E+04  0.00000000000E+00 0. -1.
         23    2    1    2    0    0 -0.42838960672E+03 -0.34830056202E+02 -0.15787077565E+04  0.16385728739E+04  0.88724825397E+02 0.  0.
         13    1    3    3    0    0 -0.18591422061E+03 -0.27774354110E+02 -0.85045385130E+03  0.87098063432E+03  0.00000000000E+00 0. -1.
        -13    1    3    3    0    0 -0.24247538611E+03 -0.70557020917E+01 -0.72825390518E+03  0.76759223954E+03  0.00000000000E+00 0.  1.
         22    1    1    2    0    0  0.42838960672E+03  0.34830056202E+02  0.66451606075E+03  0.79139900363E+03  0.00000000000E+00 0.  1.
<mgrwt>
<rscale>  0 0.22514477E+04</rscale>
<asrwt>0</asrwt>
<pdfrwt beam="1">  1        1 0.25724335E+00 0.22514477E+04</pdfrwt>
<pdfrwt beam="2">  1       -1 0.11659848E+00 0.22514477E+04</pdfrwt>
<totfact> 0.30010327E+00</totfact>
</mgrwt>
</event>
<event>
 6    1  0.1001928E-005  0.3059221E+04  0.7818608E-02  0.8227019E-01
         -1   -1    0    0    0  501 -0.00000000000E+00  0.00000000000E+00  0.20725262671E+04  0.20725262671E+04  0.00000000000E+00 0.  1.
          1   -1    0    0  501    0  0.00000000000E+00 -0.00000000000E+00 -0.11289157495E+04  0.11289157495E+04  0.00000000000E+00 0. -1.
         23    2    1    2    0    0 -0.53262654538E+03 -0.14249213018E+04  0.62556777552E+03  0.16473368275E+04  0.91059476732E+02 0.  0.
         13    1    3    3    0    0 -0.18438777661E+03 -0.38100187989E+03  0.16213635721E+03  0.45326535603E+03  0.00000000000E+00 0. -1.
        -13    1    3    3    0    0 -0.34823876877E+03 -0.10439194219E+04  0.46343141830E+03  0.11940714715E+04  0.00000000000E+00 0.  1.
         22    1    1    2    0    0  0.53262654538E+03  0.14249213018E+04  0.31804274208E+03  0.15541051892E+04  0.00000000000E+00 0. -1.
<mgrwt>
<rscale>  0 0.30592205E+04</rscale>
<asrwt>0</asrwt>
<pdfrwt beam="1">  1        1 0.17367935E+00 0.30592205E+04</pdfrwt>
<pdfrwt beam="2">  1       -1 0.31885019E+00 0.30592205E+04</pdfrwt>
<totfact> 0.25426378E-01</totfact>
</mgrwt>
</event>
<event>
 6    1  0.1001928E-005  0.3159220E+04  0.7818608E-02  0.8199671E-01
          3   -1    0    0  501    0  0.00000000000E+00  0.00000000000E+00  0.12636670886E+04  0.12636670886E+04  0.00000000000E+00 0. -1.
         -3   -1    0    0    0  501 -0.00000000000E+00 -0.00000000000E+00 -0.19745446782E+04  0.19745446782E+04  0.00000000000E+00 0.  1.
         23    2    1    2    0    0  0.29799817356E+03  0.75983273153E+03 -0.17404779738E+04  0.19243527018E+04  0.87869517555E+02 0.  0.
         13    1    3    3    0    0  0.15610447748E+03  0.50983946939E+03 -0.11527912444E+04  0.12701309168E+04  0.00000000000E+00 0.  1.
        -13    1    3    3    0    0  0.14189369608E+03  0.24999326215E+03 -0.58768672938E+03  0.65422178502E+03  0.00000000000E+00 0. -1.
         22    1    1    2    0    0 -0.29799817356E+03 -0.75983273153E+03  0.10296003843E+04  0.13138590650E+04  0.00000000000E+00 0. -1.
<mgrwt>
<rscale>  0 0.31592196E+04</rscale>
<asrwt>0</asrwt>
<pdfrwt beam="1">  1        3 0.19441032E+00 0.31592196E+04</pdfrwt>
<pdfrwt beam="2">  1       -3 0.30377610E+00 0.31592196E+04</pdfrwt>
<totfact> 0.12661932E-02</totfact>
</mgrwt>
</event>
<event>
 6    1  0.1001928E-005  0.9734056E+03  0.7818608E-02  0.9338204E-01
         -1   -1    0    0    0  501 -0.00000000000E+00  0.00000000000E+00  0.14518316282E+03  0.14518316282E+03  0.00000000000E+00 0.  1.
          1   -1    0    0  501    0  0.00000000000E+00 -0.00000000000E+00 -0.16315915731E+04  0.16315915731E+04  0.00000000000E+00 0. -1.
         23    2    1    2    0    0  0.10818675200E+03  0.55626953053E+02 -0.16019027403E+04  0.16090318628E+04  0.89957850682E+02 0.  0.
         11    1    3    3    0    0  0.59269294352E+02 -0.85592015169E+01 -0.40404080855E+03  0.40845450684E+03  0.00000000000E+00 0. -1.
        -11    1    3    3    0    0  0.48917457645E+02  0.64186154570E+02 -0.11978619317E+04  0.12005773559E+04  0.00000000000E+00 0.  1.
         22    1    1    2    0    0 -0.10818675200E+03 -0.55626953053E+02  0.11549433003E+03  0.16774287312E+03  0.00000000000E+00 0.  1.
<mgrwt>
<rscale>  0 0.97340562E+03</rscale>
<asrwt>0</asrwt>
<pdfrwt beam="1">  1        1 0.25101409E+00 0.97340562E+03</pdfrwt>
<pdfrwt beam="2">  1       -1 0.22335871E-01 0.97340562E+03</pdfrwt>
<totfact> 0.90604697E+01</totfact>
</mgrwt>
</event>
<event>
 6    1  0.1001928E-005  0.3226452E+04  0.7818608E-02  0.8181866E-01
          2   -1    0    0  501    0  0.00000000000E+00  0.00000000000E+00  0.19404644954E+04  0.19404644954E+04  0.00000000000E+00 0. -1.
         -2   -1    0    0    0  501 -0.00000000000E+00 -0.00000000000E+00 -0.13411727289E+04  0.13411727289E+04  0.00000000000E+00 0.  1.
         23    2    1    2    0    0  0.88439346568E+03  0.22087784142E+03  0.16516133924E+04  0.18894017459E+04  0.10522992110E+03 0.  0.
         13    1    3    3    0    0  0.17894926653E+03  0.88334040372E+02  0.34098732770E+03  0.39509252123E+03  0.00000000000E+00 0. -1.
        -13    1    3    3    0    0  0.70544419915E+03  0.13254380105E+03  0.13106260647E+04  0.14943092246E+04  0.00000000000E+00 0.  1.
         22    1    1    2    0    0 -0.88439346568E+03 -0.22087784142E+03 -0.10523216259E+04  0.13922354784E+04  0.00000000000E+00 0.  1.
<mgrwt>
<rscale>  0 0.32264520E+04</rscale>
<asrwt>0</asrwt>
<pdfrwt beam="1">  1        2 0.29853300E+00 0.32264520E+04</pdfrwt>
<pdfrwt beam="2">  1       -2 0.20633427E+00 0.32264520E+04</pdfrwt>
<totfact> 0.73267582E-01</totfact>
</mgrwt>
</event>
<event>
 6    1  0.1001928E-005  0.2220538E+04  0.7818608E-02  0.8509928E-01
         -1   -1    0    0    0  501 -0.00000000000E+00  0.00000000000E+00  0.11636418996E+04  0.11636418996E+04  0.00000000000E+00 0.  1.
          1   -1    0    0  501    0  0.00000000000E+00 -0.00000000000E+00 -0.10593437647E+04  0.10593437647E+04  0.00000000000E+00 0. -1.
         23    2    1    2    0    0  0.71932025734E+03  0.37914055011E+03  0.80622665841E+03  0.11488009310E+04  0.92590306787E+02 0.  0.
         13    1    3    3    0    0  0.40095829163E+03  0.16518480960E+03  0.45811689453E+03  0.63081269962E+03  0.00000000000E+00 0.  1.
        -13    1    3    3    0    0  0.31836196571E+03  0.21395574051E+03  0.34810976388E+03  0.51798823135E+03  0.00000000000E+00 0. -1.
         22    1    1    2    0    0 -0.71932025734E+03 -0.37914055011E+03 -0.70192852351E+03  0.10741847334E+04  0.00000000000E+00 0. -1.
<mgrwt>
<rscale>  0 0.22205376E+04</rscale>
<asrwt>0</asrwt>
<pdfrwt beam="1">  1        1 0.16297596E+00 0.22205376E+04</pdfrwt>
<pdfrwt beam="2">  1       -1 0.17902183E+00 0.22205376E+04</pdfrwt>
<totfact> 0.26205079E+00</totfact>
</mgrwt>
</event>
<event>
 6    1  0.1001928E-005  0.3071204E+04  0.7818608E-02  0.8223685E-01
         -1   -1    0    0    0  501 -0.00000000000E+00  0.00000000000E+00  0.11144502883E+04  0.11144502883E+04  0.00000000000E+00 0.  1.
          1   -1    0    0  501    0  0.00000000000E+00 -0.00000000000E+00 -0.21159077829E+04  0.21159077829E+04  0.00000000000E+00 0. -1.
         23    2    1    2    0    0 -0.42416434213E+03 -0.67120078443E+03  0.87971759486E+03  0.11884850097E+04  0.90375270208E+02 0.  0.
         13    1    3    3    0    0 -0.57432268358E+02 -0.44008660159E+02  0.71792284378E+02  0.10192820863E+03  0.00000000000E+00 0. -1.
        -13    1    3    3    0    0 -0.36673207378E+03 -0.62719212427E+03  0.80792531048E+03  0.10865568011E+04  0.00000000000E+00 0.  1.
         22    1    1    2    0    0  0.42416434213E+03  0.67120078443E+03 -0.18811750894E+04  0.20418730615E+04  0.00000000000E+00 0. -1.
<mgrwt>
<rscale>  0 0.30712043E+04</rscale>
<asrwt>0</asrwt>
<pdfrwt beam="1">  1        1 0.32552427E+00 0.30712043E+04</pdfrwt>
<pdfrwt beam="2">  1       -1 0.17145389E+00 0.30712043E+04</pdfrwt>
<totfact> 0.50479700E-01</totfact>
</mgrwt>
</event>
<event>
 6    1  0.1001928E-005  0.7520135E+03  0.7818608E-02  0.9632197E-01
          2   -1    0    0  501    0  0.00000000000E+00  0.00000000000E+00  0.41378835091E+03  0.41378835091E+03  0.00000000000E+00 0. -1.
         -2   -1    0    0    0  501 -0.00000000000E+00 -0.00000000000E+00 -0.34167488689E+03  0.34167488689E+03  0.00000000000E+00 0.  1.
         23    2    1    2    0    0  0.35783834894E+03  0.42093691196E+02  0.12299113870E+03  0.39158317433E+03  0.91599123398E+02 0.  0.
         13    1    3    3    0    0  0.16027034792E+03  0.27349254908E+02  0.10298308041E+03  0.19245799806E+03  0.00000000000E+00 0. -1.
        -13    1    3    3    0    0  0.19756800102E+03  0.14744436289E+02  0.20008058297E+02  0.19912517627E+03  0.00000000000E+00 0.  1.
         22    1    1    2    0    0 -0.35783834894E+03 -0.42093691196E+02 -0.50877674679E+02  0.36388006347E+03  0.00000000000E+00 0. -1.
<mgrwt>
<rscale>  0 0.75201353E+03</rscale>
<asrwt>0</asrwt>
<pdfrwt beam="1">  1        2 0.63659746E-01 0.75201353E+03</pdfrwt>
<pdfrwt beam="2">  1       -2 0.52565367E-01 0.75201353E+03</pdfrwt>
<totfact> 0.26355234E+02</totfact>
</mgrwt>
</event>
<event>
 6    1  0.1001928E-005  0.4075904E+04  0.7818608E-02  0.7989407E-01
          1   -1    0    0  501    0  0.00000000000E+00  0.00000000000E+00  0.35474165421E+04  0.35474165421E+04  0.00000000000E+00 0. -1.
         -1   -1    0    0    0  501 -0.00000000000E+00 -0.00000000000E+00 -0.11707811998E+04  0.11707811998E+04  0.00000000000E+00 0.  1.
         23    2    1    2    0    0  0.10658285390E+04  0.70054689210E+03 -0.64942199940E+03  0.14343312012E+04  0.93811719445E+02 0.  0.
         13    1    3    3    0    0  0.22316974518E+03  0.17542663822E+03 -0.17947942628E+03  0.33584535878E+03  0.00000000000E+00 0. -1.
        -13    1    3    3    0    0  0.84265879383E+03  0.52512025388E+03 -0.46994257312E+03  0.10984858424E+04  0.00000000000E+00 0.  1.
         22    1    1    2    0    0 -0.10658285390E+04 -0.70054689210E+03  0.30260573416E+04  0.32838665407E+04  0.00000000000E+00 0. -1.
<mgrwt>
<rscale>  0 0.40759041E+04</rscale>
<asrwt>0</asrwt>
<pdfrwt beam="1">  1        1 0.54575638E+00 0.40759041E+04</pdfrwt>
<pdfrwt beam="2">  1       -1 0.18012019E+00 0.40759041E+04</pdfrwt>
<totfact> 0.36961507E-02</totfact>
</mgrwt>
</event>
<event>
 6    1  0.1001928E-005  0.1366280E+04  0.7818608E-02  0.8978595E-01
         -4   -1    0    0    0  501 -0.00000000000E+00  0.00000000000E+00  0.10819593575E+04  0.10819593575E+04  0.00000000000E+00 0.  1.
          4   -1    0    0  501    0  0.00000000000E+00 -0.00000000000E+00 -0.43132890002E+03  0.43132890002E+03  0.00000000000E+00 0. -1.
         23    2    1    2    0    0  0.43720306526E+03 -0.25631881071E+03 -0.17547891976E+03  0.54411203197E+03  0.91756193548E+02 0.  0.
         13    1    3    3    0    0  0.42472480775E+03 -0.23133614237E+03 -0.17954600991E+03  0.51589179366E+03  0.00000000000E+00 0. -1.
        -13    1    3    3    0    0  0.12478257502E+02 -0.24982668344E+02  0.40670901506E+01  0.28220238308E+02  0.00000000000E+00 0.  1.
         22    1    1    2    0    0 -0.43720306526E+03  0.25631881071E+03  0.82610937723E+03  0.96917622554E+03  0.00000000000E+00 0.  1.
<mgrwt>
<rscale>  0 0.13662801E+04</rscale>
<asrwt>0</asrwt>
<pdfrwt beam="1">  1        4 0.66358293E-01 0.13662801E+04</pdfrwt>
<pdfrwt beam="2">  1       -4 0.16645528E+00 0.13662801E+04</pdfrwt>
<totfact> 0.92094072E-01</totfact>
</mgrwt>
</event>
<event>
 6    1  0.1001928E-005  0.1457025E+04  0.7818608E-02  0.8913545E-01
         -2   -1    0    0    0  501 -0.00000000000E+00  0.00000000000E+00  0.33506704400E+03  0.33506704400E+03  0.00000000000E+00 0.  1.
          2   -1    0    0  501    0  0.00000000000E+00 -0.00000000000E+00 -0.15839522939E+04  0.15839522939E+04  0.00000000000E+00 0. -1.
         23    2    1    2    0    0 -0.92866833371E+02  0.71985337111E+03 -0.63608104308E+03  0.96910243598E+03  0.88018824322E+02 0.  0.
         11    1    3    3    0    0 -0.97985395828E+02  0.58821488016E+03 -0.48498395240E+03  0.76863991382E+03  0.00000000000E+00 0.  1.
        -11    1    3    3    0    0  0.51185624569E+01  0.13163849095E+03 -0.15109709067E+03  0.20046252216E+03  0.00000000000E+00 0. -1.
         22    1    1    2    0    0  0.92866833371E+02 -0.71985337111E+03 -0.61280420682E+03  0.94991690191E+03  0.00000000000E+00 0.  1.
<mgrwt>
<rscale>  0 0.14570247E+04</rscale>
<asrwt>0</asrwt>
<pdfrwt beam="1">  1        2 0.24368497E+00 0.14570247E+04</pdfrwt>
<pdfrwt beam="2">  1       -2 0.51548775E-01 0.14570247E+04</pdfrwt>
<totfact> 0.39223020E+01</totfact>
</mgrwt>
</event>
<event>
 6    1  0.1001928E-005  0.3535490E+04  0.7818608E-02  0.8105430E-01
          2   -1    0    0  501    0  0.00000000000E+00  0.00000000000E+00  0.27671420004E+04  0.27671420004E+04  0.00000000000E+00 0. -1.
         -2   -1    0    0    0  501 -0.00000000000E+00 -0.00000000000E+00 -0.11292959912E+04  0.11292959912E+04  0.00000000000E+00 0.  1.
         23    2    1    2    0    0 -0.16823277068E+04  0.26067626890E+03  0.13393364537E+04  0.21680611273E+04  0.92131892540E+02 0.  0.
         13    1    3    3    0    0 -0.82984638641E+02  0.28084001703E+02  0.87053352132E+02  0.12350484816E+03  0.00000000000E+00 0. -1.
        -13    1    3    3    0    0 -0.15993430681E+04  0.23259226719E+03  0.12522831015E+04  0.20445562792E+04  0.00000000000E+00 0.  1.
         22    1    1    2    0    0  0.16823277068E+04 -0.26067626890E+03  0.29850955549E+03  0.17283768643E+04  0.00000000000E+00 0.  1.
<mgrwt>
<rscale>  0 0.35354900E+04</rscale>
<asrwt>0</asrwt>
<pdfrwt beam="1">  1        2 0.42571415E+00 0.35354900E+04</pdfrwt>
<pdfrwt beam="2">  1       -2 0.17373785E+00 0.35354900E+04</pdfrwt>
<totfact> 0.39757090E-01</totfact>
</mgrwt>
</event>
<event>
 6    1  0.1001928E-005  0.1174998E+04  0.7818608E-02  0.9135027E-01
          1   -1    0    0  501    0  0.00000000000E+00  0.00000000000E+00  0.36257322614E+03  0.36257322614E+03  0.00000000000E+00 0. -1.
         -1   -1    0    0    0  501 -0.00000000000E+00 -0.00000000000E+00 -0.95195929235E+03  0.95195929235E+03  0.00000000000E+00 0.  1.
         23    2    1    2    0    0  0.31760896243E+03  0.15071207774E+03  0.22615144723E+03  0.42644974125E+03  0.84411618494E+02 0.  0.
         13    1    3    3    0    0  0.17197612735E+03  0.12403112058E+03  0.15179384782E+03  0.26076978254E+03  0.00000000000E+00 0.  1.
        -13    1    3    3    0    0  0.14563283508E+03  0.26680957160E+02  0.74357599418E+02  0.16567995872E+03  0.00000000000E+00 0. -1.
         22    1    1    2    0    0 -0.31760896243E+03 -0.15071207774E+03 -0.81553751345E+03  0.88808277724E+03  0.00000000000E+00 0.  1.
<mgrwt>
<rscale>  0 0.11749978E+04</rscale>
<asrwt>0</asrwt>
<pdfrwt beam="1">  1        1 0.55780496E-01 0.11749978E+04</pdfrwt>
<pdfrwt beam="2">  1       -1 0.14645528E+00 0.11749978E+04</pdfrwt>
<totfact> 0.25217791E+01</totfact>
</mgrwt>
</event>
<event>
 6    1  0.1001928E-005  0.1483232E+04  0.7818608E-02  0.8895681E-01
          2   -1    0    0  501    0  0.00000000000E+00  0.00000000000E+00  0.27001208266E+04  0.27001208266E+04  0.00000000000E+00 0.  1.
         -2   -1    0    0    0  501 -0.00000000000E+00 -0.00000000000E+00 -0.20369252023E+03  0.20369252023E+03  0.00000000000E+00 0. -1.
         23    2    1    2    0    0 -0.50840300512E+03 -0.42281521253E+03  0.18984883600E+04  0.20123098420E+04  0.88806124832E+02 0.  0.
         13    1    3    3    0    0 -0.14670368913E+03 -0.98498144824E+02  0.61789694041E+03  0.64266669893E+03  0.00000000000E+00 0. -1.
        -13    1    3    3    0    0 -0.36169931599E+03 -0.32431706771E+03  0.12805914196E+04  0.13696431431E+04  0.00000000000E+00 0.  1.
         22    1    1    2    0    0  0.50840300512E+03  0.42281521253E+03  0.59793994635E+03  0.89150350476E+03  0.00000000000E+00 0. -1.
<mgrwt>
<rscale>  0 0.14832322E+04</rscale>
<asrwt>0</asrwt>
<pdfrwt beam="1">  1        2 0.41540318E+00 0.14832322E+04</pdfrwt>
<pdfrwt beam="2">  1       -2 0.31337313E-01 0.14832322E+04</pdfrwt>
<totfact> 0.24381547E+01</totfact>
</mgrwt>
</event>
<event>
 6    1  0.1001928E-005  0.1718982E+04  0.7818608E-02  0.8750611E-01
         -2   -1    0    0    0  501 -0.00000000000E+00  0.00000000000E+00  0.27544813549E+03  0.27544813549E+03  0.00000000000E+00 0.  1.
          2   -1    0    0  501    0  0.00000000000E+00 -0.00000000000E+00 -0.26819027722E+04  0.26819027722E+04  0.00000000000E+00 0. -1.
         23    2    1    2    0    0 -0.11760806223E+03 -0.68356047824E+03 -0.34068386496E+03  0.77824662723E+03  0.92280730567E+02 0.  0.
         11    1    3    3    0    0  0.31250479463E+01 -0.20014082205E+03 -0.76597645306E+02  0.21432058660E+03  0.00000000000E+00 0. -1.
        -11    1    3    3    0    0 -0.12073311017E+03 -0.48341965619E+03 -0.26408621965E+03  0.56392604063E+03  0.00000000000E+00 0.  1.
         22    1    1    2    0    0  0.11760806223E+03  0.68356047824E+03 -0.20657707717E+04  0.21791042804E+04  0.00000000000E+00 0. -1.
<mgrwt>
<rscale>  0 0.17189824E+04</rscale>
<asrwt>0</asrwt>
<pdfrwt beam="1">  1        2 0.41260043E+00 0.17189824E+04</pdfrwt>
<pdfrwt beam="2">  1       -2 0.42376636E-01 0.17189824E+04</pdfrwt>
<totfact> 0.13686285E+01</totfact>
</mgrwt>
</event>
<event>
 6    1  0.1001928E-005  0.4769467E+04  0.7818608E-02  0.7865088E-01
         -1   -1    0    0    0  501 -0.00000000000E+00  0.00000000000E+00  0.15075801263E+04  0.15075801263E+04  0.00000000000E+00 0.  1.
          1   -1    0    0  501    0  0.00000000000E+00 -0.00000000000E+00 -0.37722393776E+04  0.37722393776E+04  0.00000000000E+00 0. -1.
         23    2    1    2    0    0  0.11038674630E+04 -0.11934155899E+04 -0.30629485518E+04  0.34687342068E+04  0.87744060753E+02 0.  0.
         13    1    3    3    0    0  0.79663148575E+03 -0.81071371005E+03 -0.20939065068E+04  0.23825034949E+04  0.00000000000E+00 0. -1.
        -13    1    3    3    0    0  0.30723597730E+03 -0.38270187984E+03 -0.96904204502E+03  0.10862307120E+04  0.00000000000E+00 0.  1.
         22    1    1    2    0    0 -0.11038674630E+04  0.11934155899E+04  0.79828930055E+03  0.18110852972E+04  0.00000000000E+00 0.  1.
<mgrwt>
<rscale>  0 0.47694667E+04</rscale>
<asrwt>0</asrwt>
<pdfrwt beam="1">  1        1 0.58034451E+00 0.47694667E+04</pdfrwt>
<pdfrwt beam="2">  1       -1 0.23193541E+00 0.47694667E+04</pdfrwt>
<totfact> 0.10107882E-02</totfact>
</mgrwt>
</event>
<event>
 6    1  0.1001928E-005  0.2925054E+04  0.7818608E-02  0.8265462E-01
          1   -1    0    0  501    0  0.00000000000E+00  0.00000000000E+00  0.18985658032E+04  0.18985658032E+04  0.00000000000E+00 0. -1.
         -1   -1    0    0    0  501 -0.00000000000E+00 -0.00000000000E+00 -0.11266322741E+04  0.11266322741E+04  0.00000000000E+00 0.  1.
         23    2    1    2    0    0  0.26197580227E+03  0.31791441764E+03 -0.10634178244E+04  0.11441835934E+04  0.92723935770E+02 0.  0.
         11    1    3    3    0    0  0.15932240565E+03  0.13101719264E+03 -0.58814319542E+03  0.62326683855E+03  0.00000000000E+00 0.  1.
        -11    1    3    3    0    0  0.10265339662E+03  0.18689722500E+03 -0.47527462893E+03  0.52091675483E+03  0.00000000000E+00 0. -1.
         22    1    1    2    0    0 -0.26197580227E+03 -0.31791441764E+03  0.18353513535E+04  0.18810144839E+04  0.00000000000E+00 0. -1.
<mgrwt>
<rscale>  0 0.29250542E+04</rscale>
<asrwt>0</asrwt>
<pdfrwt beam="1">  1        1 0.29208705E+00 0.29250542E+04</pdfrwt>
<pdfrwt beam="2">  1       -1 0.17332804E+00 0.29250542E+04</pdfrwt>
<totfact> 0.69577980E-01</totfact>
</mgrwt>
</event>
<event>
 6    1  0.1001928E-005  0.1897423E+04  0.7818608E-02  0.8656140E-01
         -1   -1    0    0    0  501 -0.00000000000E+00  0.00000000000E+00  0.85992268821E+03  0.85992268821E+03  0.00000000000E+00 0.  1.
          1   -1    0    0  501    0  0.00000000000E+00 -0.00000000000E+00 -0.10466678545E+04  0.10466678545E+04  0.00000000000E+00 0. -1.
         23    2    1    2    0    0  0.76167256648E+03 -0.53740324954E+03 -0.25808565637E+03  0.97169118091E+03  0.92888071892E+02 0.  0.
         13    1    3    3    0    0  0.30174848301E+03 -0.17786698471E+03 -0.13294848411E+03  0.37465198608E+03  0.00000000000E+00 0.  1.
        -13    1    3    3    0    0  0.45992408347E+03 -0.35953626483E+03 -0.12513717225E+03  0.59703919483E+03  0.00000000000E+00 0. -1.
         22    1    1    2    0    0 -0.76167256648E+03  0.53740324954E+03  0.71340490093E+02  0.93489936178E+03  0.00000000000E+00 0.  1.
<mgrwt>
<rscale>  0 0.18974229E+04</rscale>
<asrwt>0</asrwt>
<pdfrwt beam="1">  1        1 0.16102582E+00 0.18974229E+04</pdfrwt>
<pdfrwt beam="2">  1       -1 0.13229580E+00 0.18974229E+04</pdfrwt>
<totfact> 0.63205311E+00</totfact>
</mgrwt>
</event>
<event>
 6    1  0.1001928E-005  0.3593121E+04  0.7818608E-02  0.8092069E-01
         -2   -1    0    0    0  501 -0.00000000000E+00  0.00000000000E+00  0.16825805027E+04  0.16825805027E+04  0.00000000000E+00 0.  1.
          2   -1    0    0  501    0  0.00000000000E+00 -0.00000000000E+00 -0.19182619860E+04  0.19182619860E+04  0.00000000000E+00 0. -1.
         23    2    1    2    0    0  0.90689439737E+03  0.10541685986E+04  0.10202646979E+04  0.17270416209E+04  0.89464095397E+02 0.  0.
         11    1    3    3    0    0  0.20085648754E+03  0.28060359500E+03  0.22426214796E+03  0.41155220462E+03  0.00000000000E+00 0.  1.
        -11    1    3    3    0    0  0.70603790982E+03  0.77356500356E+03  0.79600254996E+03  0.13154894163E+04  0.00000000000E+00 0. -1.
         22    1    1    2    0    0 -0.90689439737E+03 -0.10541685986E+04 -0.12559461813E+04  0.18738008679E+04  0.00000000000E+00 0. -1.
<mgrwt>
<rscale>  0 0.35931213E+04</rscale>
<asrwt>0</asrwt>
<pdfrwt beam="1">  1        2 0.29511723E+00 0.35931213E+04</pdfrwt>
<pdfrwt beam="2">  1       -2 0.25885854E+00 0.35931213E+04</pdfrwt>
<totfact> 0.34301127E-01</totfact>
</mgrwt>
</event>
<event>
 6    1  0.1001928E-005  0.2468202E+04  0.7818608E-02  0.8414402E-01
          2   -1    0    0  501    0  0.00000000000E+00  0.00000000000E+00  0.11800841368E+04  0.11800841368E+04  0.00000000000E+00 0. -1.
         -2   -1    0    0    0  501 -0.00000000000E+00 -0.00000000000E+00 -0.12905899298E+04  0.12905899298E+04  0.00000000000E+00 0.  1.
         23    2    1    2    0    0  0.11687149452E+04  0.94704559661E+02  0.32445486293E+03  0.12200524816E+04  0.91616172263E+02 0.  0.
         11    1    3    3    0    0  0.15060129558E+03  0.12755524007E+02  0.10592996798E+02  0.15151127088E+03  0.00000000000E+00 0. -1.
        -11    1    3    3    0    0  0.10181136496E+04  0.81949035654E+02  0.31386186613E+03  0.10685412107E+04  0.00000000000E+00 0.  1.
         22    1    1    2    0    0 -0.11687149452E+04 -0.94704559661E+02 -0.43496065595E+03  0.12506215850E+04  0.00000000000E+00 0.  1.
<mgrwt>
<rscale>  0 0.24682015E+04</rscale>
<asrwt>0</asrwt>
<pdfrwt beam="1">  1        2 0.18155141E+00 0.24682015E+04</pdfrwt>
<pdfrwt beam="2">  1       -2 0.19855230E+00 0.24682015E+04</pdfrwt>
<totfact> 0.23667805E+00</totfact>
</mgrwt>
</event>
<event>
 6    1  0.1001928E-005  0.1987588E+04  0.7818608E-02  0.8612446E-01
          2   -1    0    0  501    0  0.00000000000E+00  0.00000000000E+00  0.87920341810E+03  0.87920341810E+03  0.00000000000E+00 0. -1.
         -2   -1    0    0    0  501 -0.00000000000E+00 -0.00000000000E+00 -0.11233193574E+04  0.11233193574E+04  0.00000000000E+00 0.  1.
         23    2    1    2    0    0 -0.60884740426E+03 -0.78272989302E+03 -0.11713066380E+03  0.10027795548E+04  0.92119466384E+02 0.  0.
         11    1    3    3    0    0 -0.52207740765E+02 -0.95871670232E+02  0.98700417027E+01  0.10961041498E+03  0.00000000000E+00 0.  1.
        -11    1    3    3    0    0 -0.55663966349E+03 -0.68685822279E+03 -0.12700070550E+03  0.89316913985E+03  0.00000000000E+00 0. -1.
         22    1    1    2    0    0  0.60884740426E+03  0.78272989302E+03 -0.12698527552E+03  0.99974322068E+03  0.00000000000E+00 0. -1.
<mgrwt>
<rscale>  0 0.19875877E+04</rscale>
<asrwt>0</asrwt>
<pdfrwt beam="1">  1        2 0.13526207E+00 0.19875877E+04</pdfrwt>
<pdfrwt beam="2">  1       -2 0.17281836E+00 0.19875877E+04</pdfrwt>
<totfact> 0.57328172E+00</totfact>
</mgrwt>
</event>
<event>
 6    1  0.1001928E-005  0.5129002E+04  0.7818608E-02  0.7808910E-01
          2   -1    0    0  501    0  0.00000000000E+00  0.00000000000E+00  0.20957684485E+04  0.20957684485E+04  0.00000000000E+00 0. -1.
         -2   -1    0    0    0  501 -0.00000000000E+00 -0.00000000000E+00 -0.31380686547E+04  0.31380686547E+04  0.00000000000E+00 0.  1.
         23    2    1    2    0    0  0.19180551318E+04  0.15350806502E+04  0.22660833018E+03  0.24687806905E+04  0.90103670579E+02 0.  0.
         13    1    3    3    0    0  0.10706484050E+04  0.85889606003E+03  0.17149257270E+03  0.13832570808E+04  0.00000000000E+00 0.  1.
        -13    1    3    3    0    0  0.84740672682E+03  0.67618459019E+03  0.55115757474E+02  0.10855236098E+04  0.00000000000E+00 0. -1.
         22    1    1    2    0    0 -0.19180551318E+04 -0.15350806502E+04 -0.12689085364E+04  0.27650564126E+04  0.00000000000E+00 0.  1.
<mgrwt>
<rscale>  0 0.51290020E+04</rscale>
<asrwt>0</asrwt>
<pdfrwt beam="1">  1        2 0.32242592E+00 0.51290020E+04</pdfrwt>
<pdfrwt beam="2">  1       -2 0.48277979E+00 0.51290020E+04</pdfrwt>
<totfact> 0.90746585E-03</totfact>
</mgrwt>
</event>
<event>
 6    1  0.1001928E-005  0.2801797E+04  0.7818608E-02  0.8302711E-01
         -1   -1    0    0    0  501 -0.00000000000E+00  0.00000000000E+00  0.97453833403E+03  0.97453833403E+03  0.00000000000E+00 0.  1.
          1   -1    0    0  501    0  0.00000000000E+00 -0.00000000000E+00 -0.20137909565E+04  0.20137909565E+04  0.00000000000E+00 0. -1.
         23    2    1    2    0    0  0.11887729822E+03 -0.13942522475E+04 -0.49980270255E+03  0.14886368694E+04  0.90365069092E+02 0.  0.
         11    1    3    3    0    0  0.92588926181E+02 -0.69070188226E+03 -0.28072257836E+03  0.75129685572E+03  0.00000000000E+00 0. -1.
        -11    1    3    3    0    0  0.26288372034E+02 -0.70355036527E+03 -0.21908012419E+03  0.73734001370E+03  0.00000000000E+00 0.  1.
         22    1    1    2    0    0 -0.11887729822E+03  0.13942522475E+04 -0.53944991989E+03  0.14996924211E+04  0.00000000000E+00 0.  1.
<mgrwt>
<rscale>  0 0.28017969E+04</rscale>
<asrwt>0</asrwt>
<pdfrwt beam="1">  1        1 0.30981399E+00 0.28017969E+04</pdfrwt>
<pdfrwt beam="2">  1       -1 0.14992898E+00 0.28017969E+04</pdfrwt>
<totfact> 0.88181726E-01</totfact>
</mgrwt>
</event>
<event>
 6    1  0.1001928E-005  0.1499903E+04  0.7818608E-02  0.8884518E-01
         -2   -1    0    0    0  501 -0.00000000000E+00  0.00000000000E+00  0.23935859265E+04  0.23935859265E+04  0.00000000000E+00 0.  1.
          2   -1    0    0  501    0  0.00000000000E+00 -0.00000000000E+00 -0.23497255337E+03  0.23497255337E+03  0.00000000000E+00 0. -1.
         23    2    1    2    0    0 -0.62450765573E+03  0.37582340546E+03  0.79283765890E+03  0.10804640558E+04  0.86936634582E+02 0.  0.
         13    1    3    3    0    0 -0.43965330716E+03  0.29291347242E+03  0.61635116783E+03  0.81177712145E+03  0.00000000000E+00 0.  1.
        -13    1    3    3    0    0 -0.18485434857E+03  0.82909933038E+02  0.17648649107E+03  0.26868693439E+03  0.00000000000E+00 0. -1.
         22    1    1    2    0    0  0.62450765573E+03 -0.37582340546E+03  0.13657757142E+04  0.15480944240E+04  0.00000000000E+00 0.  1.
<mgrwt>
<rscale>  0 0.14999027E+04</rscale>
<asrwt>0</asrwt>
<pdfrwt beam="1">  1        2 0.36149625E-01 0.14999027E+04</pdfrwt>
<pdfrwt beam="2">  1       -2 0.36824397E+00 0.14999027E+04</pdfrwt>
<totfact> 0.16746633E+00</totfact>
</mgrwt>
</event>
<event>
 6    1  0.1001928E-005  0.1964466E+04  0.7818608E-02  0.8623416E-01
         -1   -1    0    0    0  501 -0.00000000000E+00  0.00000000000E+00  0.10714733276E+04  0.10714733276E+04  0.00000000000E+00 0.  1.
          1   -1    0    0  501    0  0.00000000000E+00 -0.00000000000E+00 -0.90042535260E+03  0.90042535260E+03  0.00000000000E+00 0. -1.
         23    2    1    2    0    0  0.61609245766E+03  0.50925216126E+03  0.65549456232E+03  0.10372350102E+04  0.85297509076E+02 0.  0.
         11    1    3    3    0    0  0.43731741647E+03  0.39477189511E+03  0.51647372632E+03  0.78347717382E+03  0.00000000000E+00 0.  1.
        -11    1    3    3    0    0  0.17877504120E+03  0.11448026615E+03  0.13902083599E+03  0.25375783639E+03  0.00000000000E+00 0. -1.
         22    1    1    2    0    0 -0.61609245766E+03 -0.50925216126E+03 -0.48444658727E+03  0.93466367002E+03  0.00000000000E+00 0.  1.
<mgrwt>
<rscale>  0 0.19644661E+04</rscale>
<asrwt>0</asrwt>
<pdfrwt beam="1">  1        1 0.13852698E+00 0.19644661E+04</pdfrwt>
<pdfrwt beam="2">  1       -1 0.16484205E+00 0.19644661E+04</pdfrwt>
<totfact> 0.45462275E+00</totfact>
</mgrwt>
</event>
<event>
 6    1  0.1001928E-005  0.2885382E+04  0.7818608E-02  0.8277240E-01
         -1   -1    0    0    0  501 -0.00000000000E+00  0.00000000000E+00  0.22073844559E+04  0.22073844559E+04  0.00000000000E+00 0.  1.
          1   -1    0    0  501    0  0.00000000000E+00 -0.00000000000E+00 -0.94290668092E+03  0.94290668092E+03  0.00000000000E+00 0. -1.
         23    2    1    2    0    0  0.42596683656E+03 -0.12658840402E+04  0.39630084846E+02  0.13380654298E+04  0.70273761757E+02 0.  0.
         13    1    3    3    0    0  0.24014098509E+03 -0.71199591479E+03 -0.12584303644E+02  0.75150797741E+03  0.00000000000E+00 0.  1.
        -13    1    3    3    0    0  0.18582585146E+03 -0.55388812544E+03  0.52214388490E+02  0.58655745238E+03  0.00000000000E+00 0. -1.
         22    1    1    2    0    0 -0.42596683656E+03  0.12658840402E+04  0.12248476901E+04  0.18122257070E+04  0.00000000000E+00 0.  1.
<mgrwt>
<rscale>  0 0.28853822E+04</rscale>
<asrwt>0</asrwt>
<pdfrwt beam="1">  1        1 0.14506257E+00 0.28853822E+04</pdfrwt>
<pdfrwt beam="2">  1       -1 0.33959761E+00 0.28853822E+04</pdfrwt>
<totfact> 0.26270220E-01</totfact>
</mgrwt>
</event>
<event>
 6    1  0.1001928E-005  0.2280726E+04  0.7818608E-02  0.8485559E-01
         -1   -1    0    0    0  501 -0.00000000000E+00  0.00000000000E+00  0.82682169156E+03  0.82682169156E+03  0.00000000000E+00 0.  1.
          1   -1    0    0  501    0  0.00000000000E+00 -0.00000000000E+00 -0.15728035530E+04  0.15728035530E+04  0.00000000000E+00 0. -1.
         23    2    1    2    0    0  0.21765918981E+03 -0.10718991986E+04 -0.40342006644E+02  0.10979835813E+04  0.87161071123E+02 0.  0.
         13    1    3    3    0    0  0.17289997546E+03 -0.97839150397E+03 -0.34462532128E+02  0.99414888356E+03  0.00000000000E+00 0. -1.
        -13    1    3    3    0    0  0.44759214352E+02 -0.93507694654E+02 -0.58794745160E+01  0.10383469771E+03  0.00000000000E+00 0.  1.
         22    1    1    2    0    0 -0.21765918981E+03  0.10718991986E+04 -0.70563985482E+03  0.13016416633E+04  0.00000000000E+00 0. -1.
<mgrwt>
<rscale>  0 0.22807263E+04</rscale>
<asrwt>0</asrwt>
<pdfrwt beam="1">  1        1 0.24196978E+00 0.22807263E+04</pdfrwt>
<pdfrwt beam="2">  1       -1 0.12720334E+00 0.22807263E+04</pdfrwt>
<totfact> 0.28255955E+00</totfact>
</mgrwt>
</event>
<event>
 6    1  0.1001928E-005  0.1608934E+04  0.7818608E-02  0.8815078E-01
          2   -1    0    0  501    0  0.00000000000E+00  0.00000000000E+00  0.14400931399E+04  0.14400931399E+04  0.00000000000E+00 0. -1.
         -2   -1    0    0    0  501 -0.00000000000E+00 -0.00000000000E+00 -0.44939243419E+03  0.44939243419E+03  0.00000000000E+00 0.  1.
         23    2    1    2    0    0  0.49806862893E+03 -0.62697004885E+03  0.54710554946E+03  0.97409469370E+03  0.91499665341E+02 0.  0.
         13    1    3    3    0    0  0.21433943714E+03 -0.31803282418E+03  0.21971979881E+03  0.44199893842E+03  0.00000000000E+00 0. -1.
        -13    1    3    3    0    0  0.28372919180E+03 -0.30893722467E+03  0.32738575065E+03  0.53209575528E+03  0.00000000000E+00 0.  1.
         22    1    1    2    0    0 -0.49806862893E+03  0.62697004885E+03  0.44359515627E+03  0.91539088042E+03  0.00000000000E+00 0.  1.
<mgrwt>
<rscale>  0 0.16089338E+04</rscale>
<asrwt>0</asrwt>
<pdfrwt beam="1">  1        2 0.22155279E+00 0.16089338E+04</pdfrwt>
<pdfrwt beam="2">  1       -2 0.69137299E-01 0.16089338E+04</pdfrwt>
<totfact> 0.25123067E+01</totfact>
</mgrwt>
</event>
<event>
 6    1  0.1001928E-005  0.1990112E+04  0.7818608E-02  0.8611257E-01
          2   -1    0    0  501    0  0.00000000000E+00  0.00000000000E+00  0.21610058885E+04  0.21610058885E+04  0.00000000000E+00 0. -1.
         -2   -1    0    0    0  501 -0.00000000000E+00 -0.00000000000E+00 -0.45818329086E+03  0.45818329086E+03  0.00000000000E+00 0.  1.
         23    2    1    2    0    0  0.75446167016E+03 -0.57168156313E+03  0.45663021600E+03  0.10542522243E+04  0.83092579981E+02 0.  0.
         11    1    3    3    0    0  0.43949188351E+03 -0.38289583662E+03  0.27181848074E+03  0.64315443234E+03  0.00000000000E+00 0.  1.
        -11    1    3    3    0    0  0.31496978664E+03 -0.18878572652E+03  0.18481173526E+03  0.41109779192E+03  0.00000000000E+00 0. -1.
         22    1    1    2    0    0 -0.75446167016E+03  0.57168156313E+03  0.12461923817E+04  0.15649369551E+04  0.00000000000E+00 0. -1.
<mgrwt>
<rscale>  0 0.19901123E+04</rscale>
<asrwt>0</asrwt>
<pdfrwt beam="1">  1        2 0.33246244E+00 0.19901123E+04</pdfrwt>
<pdfrwt beam="2">  1       -2 0.70489738E-01 0.19901123E+04</pdfrwt>
<totfact> 0.92452428E+00</totfact>
</mgrwt>
</event>
<event>
 6    1  0.1001928E-005  0.2218414E+04  0.7818608E-02  0.8510803E-01
         -1   -1    0    0    0  501 -0.00000000000E+00  0.00000000000E+00  0.15634833445E+04  0.15634833445E+04  0.00000000000E+00 0.  1.
          1   -1    0    0  501    0  0.00000000000E+00 -0.00000000000E+00 -0.78692260733E+03  0.78692260733E+03  0.00000000000E+00 0. -1.
         23    2    1    2    0    0 -0.51782016867E+03  0.15766332934E+03  0.14123123917E+04  0.15154355220E+04  0.94462039425E+02 0.  0.
         11    1    3    3    0    0 -0.38885917350E+03  0.15954141704E+03  0.10639532643E+04  0.11439674249E+04  0.00000000000E+00 0.  1.
        -11    1    3    3    0    0 -0.12896099516E+03 -0.18780877001E+01  0.34835912739E+03  0.37146809704E+03  0.00000000000E+00 0. -1.
         22    1    1    2    0    0  0.51782016867E+03 -0.15766332934E+03 -0.63575165455E+03  0.83497042987E+03  0.00000000000E+00 0. -1.
<mgrwt>
<rscale>  0 0.22184142E+04</rscale>
<asrwt>0</asrwt>
<pdfrwt beam="1">  1        1 0.12106502E+00 0.22184142E+04</pdfrwt>
<pdfrwt beam="2">  1       -1 0.24053590E+00 0.22184142E+04</pdfrwt>
<totfact> 0.16616703E+00</totfact>
</mgrwt>
</event>
<event>
 6    1  0.1001928E-005  0.2881833E+04  0.7818608E-02  0.8278303E-01
          2   -1    0    0  501    0  0.00000000000E+00  0.00000000000E+00  0.25483848780E+04  0.25483848780E+04  0.00000000000E+00 0. -1.
         -2   -1    0    0    0  501 -0.00000000000E+00 -0.00000000000E+00 -0.81472820732E+03  0.81472820732E+03  0.00000000000E+00 0.  1.
         23    2    1    2    0    0  0.42726496675E+03 -0.10294891250E+04 -0.19539949555E+03  0.11351855948E+04  0.89789540087E+02 0.  0.
         13    1    3    3    0    0  0.32719060099E+03 -0.77634606583E+03 -0.18628795455E+03  0.86282681073E+03  0.00000000000E+00 0. -1.
        -13    1    3    3    0    0  0.10007436576E+03 -0.25314305919E+03 -0.91115410021E+01  0.27235878411E+03  0.00000000000E+00 0.  1.
         22    1    1    2    0    0 -0.42726496675E+03  0.10294891250E+04  0.19290561662E+04  0.22279274905E+04  0.00000000000E+00 0. -1.
<mgrwt>
<rscale>  0 0.28818335E+04</rscale>
<asrwt>0</asrwt>
<pdfrwt beam="1">  1        2 0.39205921E+00 0.28818335E+04</pdfrwt>
<pdfrwt beam="2">  1       -2 0.12534280E+00 0.28818335E+04</pdfrwt>
<totfact> 0.13425313E+00</totfact>
</mgrwt>
</event>
<event>
 6    1  0.1001928E-005  0.2828252E+04  0.7818608E-02  0.8294550E-01
         -2   -1    0    0    0  501 -0.00000000000E+00  0.00000000000E+00  0.11562129074E+04  0.11562129074E+04  0.00000000000E+00 0.  1.
          2   -1    0    0  501    0  0.00000000000E+00 -0.00000000000E+00 -0.17295713955E+04  0.17295713955E+04  0.00000000000E+00 0. -1.
         23    2    1    2    0    0  0.29415332184E+03  0.85204647798E+03  0.82274192652E+03  0.12239763281E+04  0.93297356981E+02 0.  0.
         13    1    3    3    0    0  0.17465065320E+03  0.62629153988E+03  0.57061926342E+03  0.86507241741E+03  0.00000000000E+00 0. -1.
        -13    1    3    3    0    0  0.11950266864E+03  0.22575493811E+03  0.25212266310E+03  0.35890391074E+03  0.00000000000E+00 0.  1.
         22    1    1    2    0    0 -0.29415332184E+03 -0.85204647798E+03 -0.13961004145E+04  0.16618079747E+04  0.00000000000E+00 0. -1.
<mgrwt>
<rscale>  0 0.28282523E+04</rscale>
<asrwt>0</asrwt>
<pdfrwt beam="1">  1        2 0.26608791E+00 0.28282523E+04</pdfrwt>
<pdfrwt beam="2">  1       -2 0.17787891E+00 0.28282523E+04</pdfrwt>
<totfact> 0.15378616E+00</totfact>
</mgrwt>
</event>
<event>
 6    1  0.1001928E-005  0.5020617E+03  0.7818608E-02  0.1013242E+00
         -2   -1    0    0    0  501 -0.00000000000E+00  0.00000000000E+00  0.16779619854E+03  0.16779619854E+03  0.00000000000E+00 0.  1.
          2   -1    0    0  501    0  0.00000000000E+00 -0.00000000000E+00 -0.37555377606E+03  0.37555377606E+03  0.00000000000E+00 0. -1.
         23    2    1    2    0    0 -0.15825650769E+03 -0.18220933609E+03 -0.13543182507E+03  0.29140478442E+03  0.91266668377E+02 0.  0.
         13    1    3    3    0    0 -0.12145282479E+03 -0.96929037982E+02 -0.45010809290E+02  0.16177762517E+03  0.00000000000E+00 0.  1.
        -13    1    3    3    0    0 -0.36803682904E+02 -0.85280298104E+02 -0.90421015777E+02  0.12962715925E+03  0.00000000000E+00 0. -1.
         22    1    1    2    0    0  0.15825650769E+03  0.18220933609E+03 -0.72325752456E+02  0.25194519018E+03  0.00000000000E+00 0.  1.
<mgrwt>
<rscale>  0 0.50206173E+03</rscale>
<asrwt>0</asrwt>
<pdfrwt beam="1">  1        2 0.57777504E-01 0.50206173E+03</pdfrwt>
<pdfrwt beam="2">  1       -2 0.25814800E-01 0.50206173E+03</pdfrwt>
<totfact> 0.11549400E+03</totfact>
</mgrwt>
</event>
<event>
 6    1  0.1694997E-005  0.4240047E+04  0.7818608E-02  0.7957798E-01
         -2   -1    0    0    0  501 -0.00000000000E+00  0.00000000000E+00  0.18436594676E+04  0.18436594676E+04  0.00000000000E+00 0.  1.
          2   -1    0    0  501    0  0.00000000000E+00 -0.00000000000E+00 -0.24378141420E+04  0.24378141420E+04  0.00000000000E+00 0. -1.
         23    2    1    2    0    0 -0.10484742663E+04  0.11727777658E+04  0.11363513439E+04  0.19428079527E+04  0.92208399048E+02 0.  0.
         13    1    3    3    0    0 -0.62589840280E+03  0.75677107168E+03  0.73780706158E+03  0.12283364872E+04  0.00000000000E+00 0. -1.
        -13    1    3    3    0    0 -0.42257586353E+03  0.41600669414E+03  0.39854428235E+03  0.71447146549E+03  0.00000000000E+00 0.  1.
         22    1    1    2    0    0  0.10484742663E+04 -0.11727777658E+04 -0.17305060184E+04  0.23386656569E+04  0.00000000000E+00 0. -1.
<mgrwt>
<rscale>  0 0.42400468E+04</rscale>
<asrwt>0</asrwt>
<pdfrwt beam="1">  1        2 0.37504833E+00 0.42400468E+04</pdfrwt>
<pdfrwt beam="2">  1       -2 0.28363992E+00 0.42400468E+04</pdfrwt>
<totfact> 0.11708188E-01</totfact>
</mgrwt>
</event>
<event>
 6    1  0.1001928E-005  0.1985190E+04  0.7818608E-02  0.8613576E-01
          2   -1    0    0  501    0  0.00000000000E+00  0.00000000000E+00  0.50810064194E+03  0.50810064194E+03  0.00000000000E+00 0. -1.
         -2   -1    0    0    0  501 -0.00000000000E+00 -0.00000000000E+00 -0.19390743447E+04  0.19390743447E+04  0.00000000000E+00 0.  1.
         23    2    1    2    0    0 -0.89067382039E+03  0.63747747338E+02 -0.12454195549E+04  0.15351475905E+04  0.90799929730E+02 0.  0.
         11    1    3    3    0    0 -0.70420698504E+03  0.45417022765E+02 -0.91767005905E+03  0.11576219249E+04  0.00000000000E+00 0. -1.
        -11    1    3    3    0    0 -0.18646683535E+03  0.18330724573E+02 -0.32774949582E+03  0.37752566557E+03  0.00000000000E+00 0.  1.
         22    1    1    2    0    0  0.89067382039E+03 -0.63747747338E+02 -0.18555414791E+03  0.91202739620E+03  0.00000000000E+00 0. -1.
<mgrwt>
<rscale>  0 0.19851901E+04</rscale>
<asrwt>0</asrwt>
<pdfrwt beam="1">  1        2 0.78169330E-01 0.19851901E+04</pdfrwt>
<pdfrwt beam="2">  1       -2 0.29831913E+00 0.19851901E+04</pdfrwt>
<totfact> 0.18314577E+00</totfact>
</mgrwt>
</event>
<event>
 6    1  0.1001928E-005  0.2957056E+04  0.7818608E-02  0.8256101E-01
          2   -1    0    0  501    0  0.00000000000E+00  0.00000000000E+00  0.27134186161E+04  0.27134186161E+04  0.00000000000E+00 0. -1.
         -2   -1    0    0    0  501 -0.00000000000E+00 -0.00000000000E+00 -0.80564240375E+03  0.80564240375E+03  0.00000000000E+00 0.  1.
         23    2    1    2    0    0 -0.11622140973E+04  0.78910204347E+03  0.41173794792E+03  0.14668538832E+04  0.93319526417E+02 0.  0.
         13    1    3    3    0    0 -0.65224529511E+03  0.45876144311E+03  0.27974504624E+03  0.84506998383E+03  0.00000000000E+00 0. -1.
        -13    1    3    3    0    0 -0.50996880220E+03  0.33034060036E+03  0.13199290168E+03  0.62178389940E+03  0.00000000000E+00 0.  1.
         22    1    1    2    0    0  0.11622140973E+04 -0.78910204347E+03  0.14960382645E+04  0.20522071366E+04  0.00000000000E+00 0. -1.
<mgrwt>
<rscale>  0 0.29570560E+04</rscale>
<asrwt>0</asrwt>
<pdfrwt beam="1">  1        2 0.41744901E+00 0.29570560E+04</pdfrwt>
<pdfrwt beam="2">  1       -2 0.12394499E+00 0.29570560E+04</pdfrwt>
<totfact> 0.10964759E+00</totfact>
</mgrwt>
</event>
<event>
 6    1  0.1001928E-005  0.1295417E+04  0.7818608E-02  0.9033207E-01
         -2   -1    0    0    0  501 -0.00000000000E+00  0.00000000000E+00  0.25248904355E+03  0.25248904355E+03  0.00000000000E+00 0. -1.
          2   -1    0    0  501    0  0.00000000000E+00 -0.00000000000E+00 -0.16615633429E+04  0.16615633429E+04  0.00000000000E+00 0.  1.
         23    2    1    2    0    0 -0.61229493136E+03  0.20106067130E+03 -0.66582412192E+03  0.93030887173E+03  0.82597572384E+02 0.  0.
         13    1    3    3    0    0 -0.28476256963E+03  0.11139248527E+03 -0.26189685976E+03  0.40260150520E+03  0.00000000000E+00 0.  1.
        -13    1    3    3    0    0 -0.32753236173E+03  0.89668186029E+02 -0.40392726216E+03  0.52770736652E+03  0.00000000000E+00 0. -1.
         22    1    1    2    0    0  0.61229493136E+03 -0.20106067130E+03 -0.74325017746E+03  0.98374351475E+03  0.00000000000E+00 0. -1.
<mgrwt>
<rscale>  0 0.12954174E+04</rscale>
<asrwt>0</asrwt>
<pdfrwt beam="1">  1        2 0.25562512E+00 0.12954174E+04</pdfrwt>
<pdfrwt beam="2">  1       -2 0.38844469E-01 0.12954174E+04</pdfrwt>
<totfact> 0.63253294E+01</totfact>
</mgrwt>
</event>
<event>
 6    1  0.1001928E-005  0.3130914E+04  0.7818608E-02  0.8207305E-01
          2   -1    0    0  501    0  0.00000000000E+00  0.00000000000E+00  0.94062444428E+03  0.94062444428E+03  0.00000000000E+00 0. -1.
         -2   -1    0    0    0  501 -0.00000000000E+00 -0.00000000000E+00 -0.26053503796E+04  0.26053503796E+04  0.00000000000E+00 0.  1.
         23    2    1    2    0    0  0.61263488892E+03  0.55078302823E+03 -0.23389290138E+04  0.24814405397E+04  0.90965758785E+02 0.  0.
         11    1    3    3    0    0  0.35257761259E+03  0.33116706499E+03 -0.15008992379E+04  0.15769214058E+04  0.00000000000E+00 0. -1.
        -11    1    3    3    0    0  0.26005727633E+03  0.21961596324E+03 -0.83802977588E+03  0.90451913387E+03  0.00000000000E+00 0.  1.
         22    1    1    2    0    0 -0.61263488892E+03 -0.55078302823E+03  0.67420307842E+03  0.10645342842E+04  0.00000000000E+00 0.  1.
<mgrwt>
<rscale>  0 0.31309144E+04</rscale>
<asrwt>0</asrwt>
<pdfrwt beam="1">  1        2 0.14471145E+00 0.31309144E+04</pdfrwt>
<pdfrwt beam="2">  1       -2 0.40082314E+00 0.31309144E+04</pdfrwt>
<totfact> 0.17083111E-01</totfact>
</mgrwt>
</event>
<event>
 6    1  0.1001928E-005  0.2133657E+04  0.7818608E-02  0.8546560E-01
         -2   -1    0    0    0  501 -0.00000000000E+00  0.00000000000E+00  0.77529950573E+03  0.77529950573E+03  0.00000000000E+00 0.  1.
          2   -1    0    0  501    0  0.00000000000E+00 -0.00000000000E+00 -0.14679789942E+04  0.14679789942E+04  0.00000000000E+00 0. -1.
         23    2    1    2    0    0 -0.14032408001E+03  0.88668312961E+03 -0.94916277564E+03  0.13096396531E+04  0.91368629975E+02 0.  0.
         13    1    3    3    0    0 -0.56098906406E+02  0.29193280027E+03 -0.37659248019E+03  0.47978510118E+03  0.00000000000E+00 0. -1.
        -13    1    3    3    0    0 -0.84225173602E+02  0.59475032934E+03 -0.57257029545E+03  0.82985455192E+03  0.00000000000E+00 0.  1.
         22    1    1    2    0    0  0.14032408001E+03 -0.88668312961E+03  0.25648328715E+03  0.93363884686E+03  0.00000000000E+00 0.  1.
<mgrwt>
<rscale>  0 0.21336573E+04</rscale>
<asrwt>0</asrwt>
<pdfrwt beam="1">  1        2 0.22584292E+00 0.21336573E+04</pdfrwt>
<pdfrwt beam="2">  1       -2 0.11927685E+00 0.21336573E+04</pdfrwt>
<totfact> 0.65576720E+00</totfact>
</mgrwt>
</event>
<event>
 6    1  0.1001928E-005  0.3825029E+04  0.7818608E-02  0.8040805E-01
         -2   -1    0    0    0  501 -0.00000000000E+00  0.00000000000E+00  0.14670326870E+04  0.14670326870E+04  0.00000000000E+00 0.  1.
          2   -1    0    0  501    0  0.00000000000E+00 -0.00000000000E+00 -0.24932714848E+04  0.24932714848E+04  0.00000000000E+00 0. -1.
         23    2    1    2    0    0  0.73817178166E+03 -0.86074889204E+03 -0.21068887047E+04  0.23939100784E+04  0.77712387708E+02 0.  0.
         11    1    3    3    0    0  0.15299642186E+03 -0.17660162692E+03 -0.50327763197E+03  0.55487333201E+03  0.00000000000E+00 0. -1.
        -11    1    3    3    0    0  0.58517535980E+03 -0.68414726512E+03 -0.16036110727E+04  0.18390367464E+04  0.00000000000E+00 0.  1.
         22    1    1    2    0    0 -0.73817178166E+03  0.86074889204E+03  0.10806499070E+04  0.15663940934E+04  0.00000000000E+00 0.  1.
<mgrwt>
<rscale>  0 0.38250285E+04</rscale>
<asrwt>0</asrwt>
<pdfrwt beam="1">  1        2 0.38358023E+00 0.38250285E+04</pdfrwt>
<pdfrwt beam="2">  1       -2 0.22569734E+00 0.38250285E+04</pdfrwt>
<totfact> 0.25570645E-01</totfact>
</mgrwt>
</event>
<event>
 6    1  0.1001928E-005  0.1554029E+04  0.7818608E-02  0.8849298E-01
         -1   -1    0    0    0  501 -0.00000000000E+00  0.00000000000E+00  0.65106425308E+03  0.65106425308E+03  0.00000000000E+00 0.  1.
          1   -1    0    0  501    0  0.00000000000E+00 -0.00000000000E+00 -0.92733004533E+03  0.92733004533E+03  0.00000000000E+00 0. -1.
         23    2    1    2    0    0 -0.19595351173E+02 -0.57047402523E+03 -0.67011922964E+03  0.88489222820E+03  0.90276698852E+02 0.  0.
         11    1    3    3    0    0 -0.53073431398E+02 -0.24878933492E+03 -0.28704084161E+03  0.38354317494E+03  0.00000000000E+00 0.  1.
        -11    1    3    3    0    0  0.33478080225E+02 -0.32168469031E+03 -0.38307838802E+03  0.50134905326E+03  0.00000000000E+00 0. -1.
         22    1    1    2    0    0  0.19595351173E+02  0.57047402523E+03  0.39385343738E+03  0.69350207021E+03  0.00000000000E+00 0.  1.
<mgrwt>
<rscale>  0 0.15540289E+04</rscale>
<asrwt>0</asrwt>
<pdfrwt beam="1">  1        1 0.14266616E+00 0.15540289E+04</pdfrwt>
<pdfrwt beam="2">  1       -1 0.10016373E+00 0.15540289E+04</pdfrwt>
<totfact> 0.15813678E+01</totfact>
</mgrwt>
</event>
<event>
 6    1  0.1001928E-005  0.2474614E+04  0.7818608E-02  0.8412086E-01
          1   -1    0    0  501    0  0.00000000000E+00  0.00000000000E+00  0.18164383988E+04  0.18164383988E+04  0.00000000000E+00 0. -1.
         -1   -1    0    0    0  501 -0.00000000000E+00 -0.00000000000E+00 -0.84281881347E+03  0.84281881347E+03  0.00000000000E+00 0.  1.
         23    2    1    2    0    0 -0.72255387895E+03  0.96459977652E+02 -0.58480930639E+03  0.93876622250E+03  0.88833892115E+02 0.  0.
         11    1    3    3    0    0 -0.44477405321E+03  0.62782065968E+02 -0.30427075611E+03  0.54253685519E+03  0.00000000000E+00 0. -1.
        -11    1    3    3    0    0 -0.27777982575E+03  0.33677911683E+02 -0.28053855029E+03  0.39622936732E+03  0.00000000000E+00 0.  1.
         22    1    1    2    0    0  0.72255387895E+03 -0.96459977652E+02  0.15584288917E+04  0.17204909898E+04  0.00000000000E+00 0. -1.
<mgrwt>
<rscale>  0 0.24746139E+04</rscale>
<asrwt>0</asrwt>
<pdfrwt beam="1">  1        1 0.27945206E+00 0.24746139E+04</pdfrwt>
<pdfrwt beam="2">  1       -1 0.12966443E+00 0.24746139E+04</pdfrwt>
<totfact> 0.18044408E+00</totfact>
</mgrwt>
</event>
<event>
 6    1  0.1001928E-005  0.2496383E+04  0.7818608E-02  0.8404275E-01
         -1   -1    0    0    0  501 -0.00000000000E+00  0.00000000000E+00  0.90278669801E+03  0.90278669801E+03  0.00000000000E+00 0.  1.
          1   -1    0    0  501    0  0.00000000000E+00 -0.00000000000E+00 -0.17257471935E+04  0.17257471935E+04  0.00000000000E+00 0. -1.
         23    2    1    2    0    0 -0.93950047686E+03  0.13667748097E+03  0.43867155200E+03  0.10495920613E+04  0.88706734880E+02 0.  0.
         11    1    3    3    0    0 -0.38857241771E+03  0.20112354745E+02  0.15233757750E+03  0.41785137087E+03  0.00000000000E+00 0.  1.
        -11    1    3    3    0    0 -0.55092805915E+03  0.11656512622E+03  0.28633397450E+03  0.63174069044E+03  0.00000000000E+00 0. -1.
         22    1    1    2    0    0  0.93950047686E+03 -0.13667748097E+03 -0.12616320475E+04  0.15789418301E+04  0.00000000000E+00 0. -1.
<mgrwt>
<rscale>  0 0.24963827E+04</rscale>
<asrwt>0</asrwt>
<pdfrwt beam="1">  1        1 0.26549957E+00 0.24963827E+04</pdfrwt>
<pdfrwt beam="2">  1       -1 0.13889026E+00 0.24963827E+04</pdfrwt>
<totfact> 0.17407358E+00</totfact>
</mgrwt>
</event>
<event>
 6    1  0.1001928E-005  0.2999769E+04  0.7818608E-02  0.8243797E-01
         -2   -1    0    0    0  501 -0.00000000000E+00  0.00000000000E+00  0.10146079051E+04  0.10146079051E+04  0.00000000000E+00 0.  1.
          2   -1    0    0  501    0  0.00000000000E+00 -0.00000000000E+00 -0.22172639195E+04  0.22172639195E+04  0.00000000000E+00 0. -1.
         23    2    1    2    0    0 -0.14752936470E+04 -0.23865896726E+03 -0.48379692392E+03  0.15734967647E+04  0.91559583635E+02 0.  0.
         13    1    3    3    0    0 -0.12928221673E+03 -0.11160575857E+01 -0.59676102882E+02  0.14239513476E+03  0.00000000000E+00 0. -1.
        -13    1    3    3    0    0 -0.13460114303E+04 -0.23754290967E+03 -0.42412082104E+03  0.14311016299E+04  0.00000000000E+00 0.  1.
         22    1    1    2    0    0  0.14752936470E+04  0.23865896726E+03 -0.71885909046E+03  0.16583750599E+04  0.00000000000E+00 0. -1.
<mgrwt>
<rscale>  0 0.29997690E+04</rscale>
<asrwt>0</asrwt>
<pdfrwt beam="1">  1        2 0.34111752E+00 0.29997690E+04</pdfrwt>
<pdfrwt beam="2">  1       -2 0.15609353E+00 0.29997690E+04</pdfrwt>
<totfact> 0.11643155E+00</totfact>
</mgrwt>
</event>
<event>
 6    1  0.1001928E-005  0.1717970E+04  0.7818608E-02  0.8751181E-01
         -2   -1    0    0    0  501 -0.00000000000E+00  0.00000000000E+00  0.54278057690E+03  0.54278057690E+03  0.00000000000E+00 0.  1.
          2   -1    0    0  501    0  0.00000000000E+00 -0.00000000000E+00 -0.13593994783E+04  0.13593994783E+04  0.00000000000E+00 0. -1.
         23    2    1    2    0    0  0.12103734429E+03  0.44701501733E+03  0.38841120041E+03  0.61122304171E+03  0.90872887530E+02 0.  0.
         13    1    3    3    0    0  0.46453028281E+02  0.32707059525E+03  0.26122310826E+03  0.42115385598E+03  0.00000000000E+00 0. -1.
        -13    1    3    3    0    0  0.74584316013E+02  0.11994442208E+03  0.12718809214E+03  0.19006918573E+03  0.00000000000E+00 0.  1.
         22    1    1    2    0    0 -0.12103734429E+03 -0.44701501733E+03 -0.12050301018E+04  0.12909570135E+04  0.00000000000E+00 0. -1.
<mgrwt>
<rscale>  0 0.17179705E+04</rscale>
<asrwt>0</asrwt>
<pdfrwt beam="1">  1        2 0.20913838E+00 0.17179705E+04</pdfrwt>
<pdfrwt beam="2">  1       -2 0.83504705E-01 0.17179705E+04</pdfrwt>
<totfact> 0.18204281E+01</totfact>
</mgrwt>
</event>
<event>
 6    1  0.1001928E-005  0.1999134E+04  0.7818608E-02  0.8607026E-01
         -2   -1    0    0    0  501 -0.00000000000E+00  0.00000000000E+00  0.71391315650E+03  0.71391315650E+03  0.00000000000E+00 0.  1.
          2   -1    0    0  501    0  0.00000000000E+00 -0.00000000000E+00 -0.13995178689E+04  0.13995178689E+04  0.00000000000E+00 0. -1.
         23    2    1    2    0    0 -0.38769449306E+03 -0.17869949005E+03 -0.12965955501E+04  0.13680785374E+04  0.90765280028E+02 0.  0.
         13    1    3    3    0    0 -0.84304507608E+02 -0.38283614341E+02 -0.41552736232E+03  0.42571806864E+03  0.00000000000E+00 0.  1.
        -13    1    3    3    0    0 -0.30338998545E+03 -0.14041587571E+03 -0.88106818781E+03  0.94236046872E+03  0.00000000000E+00 0. -1.
         22    1    1    2    0    0  0.38769449306E+03  0.17869949005E+03  0.61099083771E+03  0.74535248806E+03  0.00000000000E+00 0.  1.
<mgrwt>
<rscale>  0 0.19991340E+04</rscale>
<asrwt>0</asrwt>
<pdfrwt beam="1">  1        2 0.21531044E+00 0.19991340E+04</pdfrwt>
<pdfrwt beam="2">  1       -2 0.10983279E+00 0.19991340E+04</pdfrwt>
<totfact> 0.88733705E+00</totfact>
</mgrwt>
</event>
<event>
 6    1  0.1001928E-005  0.2276015E+04  0.7818608E-02  0.8487439E-01
          2   -1    0    0  501    0  0.00000000000E+00  0.00000000000E+00  0.71429481879E+03  0.71429481879E+03  0.00000000000E+00 0. -1.
         -2   -1    0    0    0  501 -0.00000000000E+00 -0.00000000000E+00 -0.18130617414E+04  0.18130617414E+04  0.00000000000E+00 0.  1.
         23    2    1    2    0    0  0.96455257562E+03  0.59868454441E+03 -0.49853426354E+03  0.12431976527E+04  0.90659455195E+02 0.  0.
         11    1    3    3    0    0  0.73699359471E+03  0.42208037790E+03 -0.39980436638E+03  0.93869853277E+03  0.00000000000E+00 0.  1.
        -11    1    3    3    0    0  0.22755898090E+03  0.17660416651E+03 -0.98729897154E+02  0.30449911989E+03  0.00000000000E+00 0. -1.
         22    1    1    2    0    0 -0.96455257562E+03 -0.59868454441E+03 -0.60023265911E+03  0.12841589076E+04  0.00000000000E+00 0.  1.
<mgrwt>
<rscale>  0 0.22760146E+04</rscale>
<asrwt>0</asrwt>
<pdfrwt beam="1">  1        2 0.10989151E+00 0.22760146E+04</pdfrwt>
<pdfrwt beam="2">  1       -2 0.27893257E+00 0.22760146E+04</pdfrwt>
<totfact> 0.15508496E+00</totfact>
</mgrwt>
</event>
<event>
 6    1  0.1001928E-005  0.1297621E+04  0.7818608E-02  0.9031454E-01
         -1   -1    0    0    0  501 -0.00000000000E+00  0.00000000000E+00  0.24538541042E+03  0.24538541042E+03  0.00000000000E+00 0.  1.
          1   -1    0    0  501    0  0.00000000000E+00 -0.00000000000E+00 -0.17154841836E+04  0.17154841836E+04  0.00000000000E+00 0. -1.
         23    2    1    2    0    0 -0.18534815064E+03  0.21898764261E+03 -0.16127192610E+04  0.16404790072E+04  0.89433961641E+02 0.  0.
         11    1    3    3    0    0  0.18092856915E+01  0.42246170662E+02 -0.27258713282E+03  0.27584734443E+03  0.00000000000E+00 0.  1.
        -11    1    3    3    0    0 -0.18715743633E+03  0.17674147194E+03 -0.13401321282E+04  0.13646316627E+04  0.00000000000E+00 0. -1.
         22    1    1    2    0    0  0.18534815064E+03 -0.21898764261E+03  0.14262048788E+03  0.32039058682E+03  0.00000000000E+00 0.  1.
<mgrwt>
<rscale>  0 0.12976206E+04</rscale>
<asrwt>0</asrwt>
<pdfrwt beam="1">  1        1 0.26392064E+00 0.12976206E+04</pdfrwt>
<pdfrwt beam="2">  1       -1 0.37751602E-01 0.12976206E+04</pdfrwt>
<totfact> 0.30947343E+01</totfact>
</mgrwt>
</event>
<event>
 6    1  0.1001928E-005  0.3659394E+04  0.7818608E-02  0.8077021E-01
          2   -1    0    0  501    0  0.00000000000E+00  0.00000000000E+00  0.14399284608E+04  0.14399284608E+04  0.00000000000E+00 0.  1.
         -2   -1    0    0    0  501 -0.00000000000E+00 -0.00000000000E+00 -0.23249704172E+04  0.23249704172E+04  0.00000000000E+00 0. -1.
         23    2    1    2    0    0  0.16118075667E+04  0.41073629810E+03 -0.12242917640E+04  0.20673363988E+04  0.91441367890E+02 0.  0.
         11    1    3    3    0    0  0.56674818947E+03  0.16043537261E+03 -0.48468259289E+03  0.76279763693E+03  0.00000000000E+00 0.  1.
        -11    1    3    3    0    0  0.10450593773E+04  0.25030092549E+03 -0.73960917110E+03  0.13045387619E+04  0.00000000000E+00 0. -1.
         22    1    1    2    0    0 -0.16118075667E+04 -0.41073629810E+03  0.33924980766E+03  0.16975624792E+04  0.00000000000E+00 0.  1.
<mgrwt>
<rscale>  0 0.36593940E+04</rscale>
<asrwt>0</asrwt>
<pdfrwt beam="1">  1        2 0.22152746E+00 0.36593940E+04</pdfrwt>
<pdfrwt beam="2">  1       -2 0.35768775E+00 0.36593940E+04</pdfrwt>
<totfact> 0.15483700E-01</totfact>
</mgrwt>
</event>
<event>
 6    1  0.1001928E-005  0.1928996E+04  0.7818608E-02  0.8640556E-01
         -2   -1    0    0    0  501 -0.00000000000E+00  0.00000000000E+00  0.10163630844E+04  0.10163630844E+04  0.00000000000E+00 0.  1.
          2   -1    0    0  501    0  0.00000000000E+00 -0.00000000000E+00 -0.91527980705E+03  0.91527980705E+03  0.00000000000E+00 0. -1.
         23    2    1    2    0    0 -0.72252289523E+03  0.31324919557E+03 -0.50328554549E+03  0.93895660332E+03  0.90436552100E+02 0.  0.
         13    1    3    3    0    0 -0.27697394407E+03  0.12511679633E+03 -0.14307863738E+03  0.33591706550E+03  0.00000000000E+00 0.  1.
        -13    1    3    3    0    0 -0.44554895117E+03  0.18813239923E+03 -0.36020690811E+03  0.60303953782E+03  0.00000000000E+00 0. -1.
         22    1    1    2    0    0  0.72252289523E+03 -0.31324919557E+03  0.60436882285E+03  0.99268628816E+03  0.00000000000E+00 0.  1.
<mgrwt>
<rscale>  0 0.19289962E+04</rscale>
<asrwt>0</asrwt>
<pdfrwt beam="1">  1        2 0.14081228E+00 0.19289962E+04</pdfrwt>
<pdfrwt beam="2">  1       -2 0.15636355E+00 0.19289962E+04</pdfrwt>
<totfact> 0.71715543E+00</totfact>
</mgrwt>
</event>
<event>
 6    1  0.1001928E-005  0.2631055E+04  0.7818608E-02  0.8357728E-01
          2   -1    0    0  501    0  0.00000000000E+00  0.00000000000E+00  0.39634795902E+04  0.39634795902E+04  0.00000000000E+00 0. -1.
         -2   -1    0    0    0  501 -0.00000000000E+00 -0.00000000000E+00 -0.43663977251E+03  0.43663977251E+03  0.00000000000E+00 0.  1.
         23    2    1    2    0    0 -0.12490603848E+04  0.37776912104E+03  0.20167468201E+04  0.24043132060E+04  0.10292182718E+03 0.  0.
         13    1    3    3    0    0 -0.72884717280E+03  0.16864123237E+03  0.11313231591E+04  0.13563001721E+04  0.00000000000E+00 0. -1.
        -13    1    3    3    0    0 -0.52021321203E+03  0.20912788867E+03  0.88542366094E+03  0.10480130339E+04  0.00000000000E+00 0.  1.
         22    1    1    2    0    0  0.12490603848E+04 -0.37776912104E+03  0.15100929976E+04  0.19958061567E+04  0.00000000000E+00 0. -1.
<mgrwt>
<rscale>  0 0.26310552E+04</rscale>
<asrwt>0</asrwt>
<pdfrwt beam="1">  1        2 0.60976607E+00 0.26310552E+04</pdfrwt>
<pdfrwt beam="2">  1       -2 0.67175352E-01 0.26310552E+04</pdfrwt>
<totfact> 0.65806068E-01</totfact>
</mgrwt>
</event>
<event>
 6    1  0.1001928E-005  0.1417916E+04  0.7818608E-02  0.8940952E-01
          2   -1    0    0  501    0  0.00000000000E+00  0.00000000000E+00  0.16553186042E+04  0.16553186042E+04  0.00000000000E+00 0. -1.
         -2   -1    0    0    0  501 -0.00000000000E+00 -0.00000000000E+00 -0.30364010011E+03  0.30364010011E+03  0.00000000000E+00 0.  1.
         23    2    1    2    0    0  0.49742935443E+03  0.48700148353E+03  0.51605973240E+03  0.87136266752E+03  0.91372005249E+02 0.  0.
         11    1    3    3    0    0  0.89092157285E+02  0.47809889764E+02  0.56426639902E+02  0.11578930754E+03  0.00000000000E+00 0. -1.
        -11    1    3    3    0    0  0.40833719714E+03  0.43919159377E+03  0.45963309249E+03  0.75557335999E+03  0.00000000000E+00 0.  1.
         22    1    1    2    0    0 -0.49742935443E+03 -0.48700148353E+03  0.83561877171E+03  0.10875960368E+04  0.00000000000E+00 0. -1.
<mgrwt>
<rscale>  0 0.14179155E+04</rscale>
<asrwt>0</asrwt>
<pdfrwt beam="1">  1        2 0.25466439E+00 0.14179155E+04</pdfrwt>
<pdfrwt beam="2">  1       -2 0.46713863E-01 0.14179155E+04</pdfrwt>
<totfact> 0.43849273E+01</totfact>
</mgrwt>
</event>
<event>
 6    1  0.1001928E-005  0.8588029E+03  0.7818608E-02  0.9478598E-01
          1   -1    0    0  501    0  0.00000000000E+00  0.00000000000E+00  0.29731676879E+03  0.29731676879E+03  0.00000000000E+00 0. -1.
         -1   -1    0    0    0  501 -0.00000000000E+00 -0.00000000000E+00 -0.62016556041E+03  0.62016556041E+03  0.00000000000E+00 0.  1.
         23    2    1    2    0    0  0.19832172905E+03 -0.35292846375E+03 -0.26286876420E+02  0.41564672037E+03  0.90449917322E+02 0.  0.
         13    1    3    3    0    0  0.89295692728E+02 -0.20066839557E+03 -0.54407256924E+02  0.22627787193E+03  0.00000000000E+00 0.  1.
        -13    1    3    3    0    0  0.10902603633E+03 -0.15226006818E+03  0.28120380504E+02  0.18936884844E+03  0.00000000000E+00 0. -1.
         22    1    1    2    0    0 -0.19832172905E+03  0.35292846375E+03 -0.29656191520E+03  0.50183560883E+03  0.00000000000E+00 0.  1.
<mgrwt>
<rscale>  0 0.85880294E+03</rscale>
<asrwt>0</asrwt>
<pdfrwt beam="1">  1        1 0.45741042E-01 0.85880294E+03</pdfrwt>
<pdfrwt beam="2">  1       -1 0.95410086E-01 0.85880294E+03</pdfrwt>
<totfact> 0.95046290E+01</totfact>
</mgrwt>
</event>
<event>
 6    1  0.1001928E-005  0.4752862E+04  0.7818608E-02  0.7867804E-01
          2   -1    0    0  501    0  0.00000000000E+00  0.00000000000E+00  0.10652883085E+04  0.10652883085E+04  0.00000000000E+00 0.  1.
         -2   -1    0    0    0  501 -0.00000000000E+00 -0.00000000000E+00 -0.53013112012E+04  0.53013112012E+04  0.00000000000E+00 0. -1.
         23    2    1    2    0    0 -0.21427807937E+04  0.51971634026E+03 -0.33030718073E+04  0.39724373741E+04  0.91436987495E+02 0.  0.
         11    1    3    3    0    0 -0.17542830297E+04  0.45333657235E+03 -0.26722007855E+04  0.32285724452E+04  0.00000000000E+00 0.  1.
        -11    1    3    3    0    0 -0.38849776393E+03  0.66379767903E+02 -0.63087102187E+03  0.74386492887E+03  0.00000000000E+00 0. -1.
         22    1    1    2    0    0  0.21427807937E+04 -0.51971634026E+03 -0.93295108531E+03  0.23941621356E+04  0.00000000000E+00 0.  1.
<mgrwt>
<rscale>  0 0.47528622E+04</rscale>
<asrwt>0</asrwt>
<pdfrwt beam="1">  1        2 0.16389051E+00 0.47528622E+04</pdfrwt>
<pdfrwt beam="2">  1       -2 0.81558633E+00 0.47528622E+04</pdfrwt>
<totfact> 0.10449538E-03</totfact>
</mgrwt>
</event>
<event>
 6    1  0.1001928E-005  0.1513288E+04  0.7818608E-02  0.8875664E-01
          1   -1    0    0  501    0  0.00000000000E+00  0.00000000000E+00  0.13345475041E+04  0.13345475041E+04  0.00000000000E+00 0. -1.
         -1   -1    0    0    0  501 -0.00000000000E+00 -0.00000000000E+00 -0.42899189266E+03  0.42899189266E+03  0.00000000000E+00 0.  1.
         23    2    1    2    0    0  0.27299451110E+03  0.56683211046E+03 -0.29321885019E+02  0.63667623828E+03  0.93124727684E+02 0.  0.
         11    1    3    3    0    0  0.11685468043E+03  0.26272238576E+03 -0.59035999488E+02  0.29353588802E+03  0.00000000000E+00 0.  1.
        -11    1    3    3    0    0  0.15613983067E+03  0.30410972471E+03  0.29714114469E+02  0.34314035027E+03  0.00000000000E+00 0. -1.
         22    1    1    2    0    0 -0.27299451110E+03 -0.56683211046E+03  0.93487749643E+03  0.11268631585E+04  0.00000000000E+00 0. -1.
<mgrwt>
<rscale>  0 0.15132879E+04</rscale>
<asrwt>0</asrwt>
<pdfrwt beam="1">  1        1 0.20531500E+00 0.15132879E+04</pdfrwt>
<pdfrwt beam="2">  1       -1 0.65998753E-01 0.15132879E+04</pdfrwt>
<totfact> 0.19215634E+01</totfact>
</mgrwt>
</event>
<event>
 6    1  0.1001928E-005  0.4705221E+04  0.7818608E-02  0.7875662E-01
          2   -1    0    0  501    0  0.00000000000E+00  0.00000000000E+00  0.35601942740E+04  0.35601942740E+04  0.00000000000E+00 0. -1.
         -2   -1    0    0    0  501 -0.00000000000E+00 -0.00000000000E+00 -0.15546275710E+04  0.15546275710E+04  0.00000000000E+00 0.  1.
         23    2    1    2    0    0  0.15922955677E+03  0.21645812905E+04  0.18701110162E+02  0.21723057279E+04  0.88296257774E+02 0.  0.
         13    1    3    3    0    0  0.13345756648E+03  0.14985228324E+04  0.46459479672E+02  0.15051711147E+04  0.00000000000E+00 0.  1.
        -13    1    3    3    0    0  0.25771990291E+02  0.66605845808E+03 -0.27758369509E+02  0.66713461321E+03  0.00000000000E+00 0. -1.
         22    1    1    2    0    0 -0.15922955677E+03 -0.21645812905E+04  0.19868655928E+04  0.29425161170E+04  0.00000000000E+00 0.  1.
<mgrwt>
<rscale>  0 0.47052210E+04</rscale>
<asrwt>0</asrwt>
<pdfrwt beam="1">  1        2 0.54772219E+00 0.47052210E+04</pdfrwt>
<pdfrwt beam="2">  1       -2 0.23917347E+00 0.47052210E+04</pdfrwt>
<totfact> 0.41089567E-02</totfact>
</mgrwt>
</event>
<event>
 6    1  0.1001928E-005  0.3728245E+04  0.7818608E-02  0.8061731E-01
         -2   -1    0    0    0  501 -0.00000000000E+00  0.00000000000E+00  0.12520486948E+04  0.12520486948E+04  0.00000000000E+00 0.  1.
          2   -1    0    0  501    0  0.00000000000E+00 -0.00000000000E+00 -0.27754141116E+04  0.27754141116E+04  0.00000000000E+00 0. -1.
         23    2    1    2    0    0 -0.55648521996E+03 -0.15513266322E+04 -0.17005188607E+04  0.23698520370E+04  0.90245009569E+02 0.  0.
         13    1    3    3    0    0 -0.42791688716E+03 -0.11447092123E+04 -0.13113174401E+04  0.17924914146E+04  0.00000000000E+00 0. -1.
        -13    1    3    3    0    0 -0.12856833281E+03 -0.40661741996E+03 -0.38920142069E+03  0.57736062238E+03  0.00000000000E+00 0.  1.
         22    1    1    2    0    0  0.55648521996E+03  0.15513266322E+04  0.17715344393E+03  0.16576107693E+04  0.00000000000E+00 0.  1.
<mgrwt>
<rscale>  0 0.37282455E+04</rscale>
<asrwt>0</asrwt>
<pdfrwt beam="1">  1        2 0.42698678E+00 0.37282455E+04</pdfrwt>
<pdfrwt beam="2">  1       -2 0.19262288E+00 0.37282455E+04</pdfrwt>
<totfact> 0.28719136E-01</totfact>
</mgrwt>
</event>
<event>
 6    1  0.1001928E-005  0.6457673E+04  0.7818608E-02  0.7636108E-01
          1   -1    0    0  501    0  0.00000000000E+00  0.00000000000E+00  0.31175850144E+04  0.31175850144E+04  0.00000000000E+00 0. -1.
         -1   -1    0    0    0  501 -0.00000000000E+00 -0.00000000000E+00 -0.33440583768E+04  0.33440583768E+04  0.00000000000E+00 0.  1.
         23    2    1    2    0    0  0.59629596536E+03  0.20171963075E+04 -0.25635610136E+04  0.33173424338E+04  0.90917168627E+02 0.  0.
         11    1    3    3    0    0  0.46828673087E+03  0.15793381830E+04 -0.20652677937E+04  0.26417669500E+04  0.00000000000E+00 0. -1.
        -11    1    3    3    0    0  0.12800923449E+03  0.43785812456E+03 -0.49829321986E+03  0.67557548380E+03  0.00000000000E+00 0.  1.
         22    1    1    2    0    0 -0.59629596536E+03 -0.20171963075E+04  0.23370876511E+04  0.31443009574E+04  0.00000000000E+00 0. -1.
<mgrwt>
<rscale>  0 0.64576734E+04</rscale>
<asrwt>0</asrwt>
<pdfrwt beam="1">  1        1 0.47962846E+00 0.64576734E+04</pdfrwt>
<pdfrwt beam="2">  1       -1 0.51447052E+00 0.64576734E+04</pdfrwt>
<totfact> 0.38661709E-04</totfact>
</mgrwt>
</event>
<event>
 6    1  0.1001928E-005  0.3008239E+04  0.7818608E-02  0.8241382E-01
          1   -1    0    0  501    0  0.00000000000E+00  0.00000000000E+00  0.15132959625E+04  0.15132959625E+04  0.00000000000E+00 0. -1.
         -1   -1    0    0    0  501 -0.00000000000E+00 -0.00000000000E+00 -0.14949989702E+04  0.14949989702E+04  0.00000000000E+00 0.  1.
         23    2    1    2    0    0  0.14183021332E+04  0.47601533369E+03  0.15098130915E+03  0.15063706114E+04  0.90473886212E+02 0.  0.
         13    1    3    3    0    0  0.61890700880E+03  0.19520120315E+03  0.10897728328E+03  0.65804668795E+03  0.00000000000E+00 0.  1.
        -13    1    3    3    0    0  0.79939512445E+03  0.28081413055E+03  0.42004025874E+02  0.84832392345E+03  0.00000000000E+00 0. -1.
         22    1    1    2    0    0 -0.14183021332E+04 -0.47601533369E+03 -0.13268431681E+03  0.15019243213E+04  0.00000000000E+00 0.  1.
<mgrwt>
<rscale>  0 0.30082393E+04</rscale>
<asrwt>0</asrwt>
<pdfrwt beam="1">  1        1 0.23281476E+00 0.30082393E+04</pdfrwt>
<pdfrwt beam="2">  1       -1 0.22999984E+00 0.30082393E+04</pdfrwt>
<totfact> 0.51412992E-01</totfact>
</mgrwt>
</event>
<event>
 6    1  0.1001928E-005  0.6734247E+03  0.7818608E-02  0.9763791E-01
         -2   -1    0    0    0  501 -0.00000000000E+00  0.00000000000E+00  0.88824685693E+02  0.88824685693E+02  0.00000000000E+00 0. -1.
          2   -1    0    0  501    0  0.00000000000E+00 -0.00000000000E+00 -0.12763930540E+04  0.12763930540E+04  0.00000000000E+00 0.  1.
         23    2    1    2    0    0 -0.26851679204E+03  0.95942538816E+02 -0.26562391474E+03  0.40018519421E+03  0.91026848945E+02 0.  0.
         11    1    3    3    0    0 -0.12926433345E+03  0.71202794309E+02 -0.18749460264E+03  0.23860706577E+03  0.00000000000E+00 0.  1.
        -11    1    3    3    0    0 -0.13925245859E+03  0.24739744507E+02 -0.78129312100E+02  0.16157812844E+03  0.00000000000E+00 0. -1.
         22    1    1    2    0    0  0.26851679204E+03 -0.95942538816E+02 -0.92194445353E+03  0.96503254544E+03  0.00000000000E+00 0.  1.
<mgrwt>
<rscale>  0 0.67342472E+03</rscale>
<asrwt>0</asrwt>
<pdfrwt beam="1">  1        2 0.19636815E+00 0.67342472E+03</pdfrwt>
<pdfrwt beam="2">  1       -2 0.13665337E-01 0.67342472E+03</pdfrwt>
<totfact> 0.70765121E+02</totfact>
</mgrwt>
</event>
<event>
 6    1  0.1001928E-005  0.3712385E+04  0.7818608E-02  0.8065223E-01
         -2   -1    0    0    0  501 -0.00000000000E+00  0.00000000000E+00  0.10299120723E+04  0.10299120723E+04  0.00000000000E+00 0.  1.
          2   -1    0    0  501    0  0.00000000000E+00 -0.00000000000E+00 -0.33453830137E+04  0.33453830137E+04  0.00000000000E+00 0. -1.
         23    2    1    2    0    0  0.61843423673E+03  0.88875050863E+02  0.90035015381E+03  0.10993425533E+04  0.86971088711E+02 0.  0.
         13    1    3    3    0    0  0.46549155211E+03  0.10119498918E+03  0.70696531437E+03  0.85248036144E+03  0.00000000000E+00 0.  1.
        -13    1    3    3    0    0  0.15294268462E+03 -0.12319938317E+02  0.19338483944E+03  0.24686219189E+03  0.00000000000E+00 0. -1.
         22    1    1    2    0    0 -0.61843423673E+03 -0.88875050863E+02 -0.32158210952E+04  0.32759525327E+04  0.00000000000E+00 0. -1.
<mgrwt>
<rscale>  0 0.37123849E+04</rscale>
<asrwt>0</asrwt>
<pdfrwt beam="1">  1        2 0.51467431E+00 0.37123849E+04</pdfrwt>
<pdfrwt beam="2">  1       -2 0.15844801E+00 0.37123849E+04</pdfrwt>
<totfact> 0.21661754E-01</totfact>
</mgrwt>
</event>
<event>
 6    1  0.1001928E-005  0.1171680E+04  0.7818608E-02  0.9138013E-01
          2   -1    0    0  501    0  0.00000000000E+00  0.00000000000E+00  0.13154898500E+04  0.13154898500E+04  0.00000000000E+00 0. -1.
         -2   -1    0    0    0  501 -0.00000000000E+00 -0.00000000000E+00 -0.26089784941E+03  0.26089784941E+03  0.00000000000E+00 0.  1.
         23    2    1    2    0    0  0.24930000031E+03 -0.25139341536E+03  0.11526370536E+04  0.12090159914E+04  0.88308270956E+02 0.  0.
         11    1    3    3    0    0  0.16006444649E+03 -0.21571064303E+03  0.86526685488E+03  0.90600134586E+03  0.00000000000E+00 0. -1.
        -11    1    3    3    0    0  0.89235553818E+02 -0.35682772324E+02  0.28737019874E+03  0.30301464557E+03  0.00000000000E+00 0.  1.
         22    1    1    2    0    0 -0.24930000031E+03  0.25139341536E+03 -0.98045052985E+02  0.36737170802E+03  0.00000000000E+00 0.  1.
<mgrwt>
<rscale>  0 0.11716799E+04</rscale>
<asrwt>0</asrwt>
<pdfrwt beam="1">  1        2 0.20238305E+00 0.11716799E+04</pdfrwt>
<pdfrwt beam="2">  1       -2 0.40138131E-01 0.11716799E+04</pdfrwt>
<totfact> 0.93960132E+01</totfact>
</mgrwt>
</event>
<event>
 6    1  0.1001928E-005  0.7893559E+03  0.7818608E-02  0.9575553E-01
          2   -1    0    0  501    0  0.00000000000E+00  0.00000000000E+00  0.11913005760E+04  0.11913005760E+04  0.00000000000E+00 0. -1.
         -2   -1    0    0    0  501 -0.00000000000E+00 -0.00000000000E+00 -0.13075682680E+03  0.13075682680E+03  0.00000000000E+00 0.  1.
         23    2    1    2    0    0 -0.90559817890E+02  0.23903047362E+03  0.44861973909E+02  0.27470544831E+03  0.90076848816E+02 0.  0.
         13    1    3    3    0    0 -0.14035438831E+02  0.11168415104E+03  0.55990736739E+02  0.12571915422E+03  0.00000000000E+00 0.  1.
        -13    1    3    3    0    0 -0.76524379058E+02  0.12734632258E+03 -0.11128762830E+02  0.14898629409E+03  0.00000000000E+00 0. -1.
         22    1    1    2    0    0  0.90559817890E+02 -0.23903047362E+03  0.10156817753E+04  0.10473519545E+04  0.00000000000E+00 0. -1.
<mgrwt>
<rscale>  0 0.78935590E+03</rscale>
<asrwt>0</asrwt>
<pdfrwt beam="1">  1        2 0.18327700E+00 0.78935590E+03</pdfrwt>
<pdfrwt beam="2">  1       -2 0.20116436E-01 0.78935590E+03</pdfrwt>
<totfact> 0.40747777E+02</totfact>
</mgrwt>
</event>
<event>
 6    1  0.1001928E-005  0.3113255E+04  0.7818608E-02  0.8212110E-01
         -2   -1    0    0    0  501 -0.00000000000E+00  0.00000000000E+00  0.92329982867E+03  0.92329982867E+03  0.00000000000E+00 0.  1.
          2   -1    0    0  501    0  0.00000000000E+00 -0.00000000000E+00 -0.26243790947E+04  0.26243790947E+04  0.00000000000E+00 0. -1.
         23    2    1    2    0    0  0.22837645398E+03 -0.57545451243E+03 -0.24772458375E+04  0.25548354074E+04  0.84458976055E+02 0.  0.
         11    1    3    3    0    0  0.10949263286E+03 -0.35314745240E+03 -0.15938511659E+04  0.16361733706E+04  0.00000000000E+00 0. -1.
        -11    1    3    3    0    0  0.11888382112E+03 -0.22230706003E+03 -0.88339467164E+03  0.91866203674E+03  0.00000000000E+00 0.  1.
         22    1    1    2    0    0 -0.22837645398E+03  0.57545451243E+03  0.77616657148E+03  0.99284351602E+03  0.00000000000E+00 0.  1.
<mgrwt>
<rscale>  0 0.31132547E+04</rscale>
<asrwt>0</asrwt>
<pdfrwt beam="1">  1        2 0.40375063E+00 0.31132547E+04</pdfrwt>
<pdfrwt beam="2">  1       -2 0.14204613E+00 0.31132547E+04</pdfrwt>
<totfact> 0.86329005E-01</totfact>
</mgrwt>
</event>
<event>
 6    1  0.1001928E-005  0.1125089E+04  0.7818608E-02  0.9181078E-01
          2   -1    0    0  501    0  0.00000000000E+00  0.00000000000E+00  0.18054759380E+04  0.18054759380E+04  0.00000000000E+00 0. -1.
         -2   -1    0    0    0  501 -0.00000000000E+00 -0.00000000000E+00 -0.17527588281E+03  0.17527588281E+03  0.00000000000E+00 0.  1.
         23    2    1    2    0    0  0.52361019579E+03  0.38240186078E+02  0.11565970489E+04  0.12736947110E+04  0.94612548376E+02 0.  0.
         11    1    3    3    0    0  0.50062122029E+03  0.16200956092E+02  0.10701750387E+04  0.11815915921E+04  0.00000000000E+00 0.  1.
        -11    1    3    3    0    0  0.22988975503E+02  0.22039229986E+02  0.86422010199E+02  0.92103118839E+02  0.00000000000E+00 0. -1.
         22    1    1    2    0    0 -0.52361019579E+03 -0.38240186078E+02  0.47360300629E+03  0.70705710981E+03  0.00000000000E+00 0. -1.
<mgrwt>
<rscale>  0 0.11250891E+04</rscale>
<asrwt>0</asrwt>
<pdfrwt beam="1">  1        2 0.27776552E+00 0.11250891E+04</pdfrwt>
<pdfrwt beam="2">  1       -2 0.26965522E-01 0.11250891E+04</pdfrwt>
<totfact> 0.10618750E+02</totfact>
</mgrwt>
</event>
<event>
 6    1  0.1001928E-005  0.2624554E+04  0.7818608E-02  0.8359908E-01
          2   -1    0    0  501    0  0.00000000000E+00  0.00000000000E+00  0.20112831912E+04  0.20112831912E+04  0.00000000000E+00 0. -1.
         -2   -1    0    0    0  501 -0.00000000000E+00 -0.00000000000E+00 -0.85620518579E+03  0.85620518579E+03  0.00000000000E+00 0.  1.
         23    2    1    2    0    0  0.53236914694E+03  0.90615208406E+03 -0.27743869055E+03  0.10907969034E+04  0.91307992227E+02 0.  0.
         13    1    3    3    0    0  0.35096248367E+03  0.50901772510E+03 -0.15814340421E+03  0.63818731240E+03  0.00000000000E+00 0. -1.
        -13    1    3    3    0    0  0.18140666327E+03  0.39713435896E+03 -0.11929528633E+03  0.45260959102E+03  0.00000000000E+00 0.  1.
         22    1    1    2    0    0 -0.53236914694E+03 -0.90615208406E+03  0.14325166959E+04  0.17766914735E+04  0.00000000000E+00 0. -1.
<mgrwt>
<rscale>  0 0.26245541E+04</rscale>
<asrwt>0</asrwt>
<pdfrwt beam="1">  1        2 0.30942818E+00 0.26245541E+04</pdfrwt>
<pdfrwt beam="2">  1       -2 0.13172387E+00 0.26245541E+04</pdfrwt>
<totfact> 0.24417585E+00</totfact>
</mgrwt>
</event>
<event>
 6    1  0.1001928E-005  0.2713117E+04  0.7818608E-02  0.8330761E-01
         -2   -1    0    0    0  501 -0.00000000000E+00  0.00000000000E+00  0.12827736821E+04  0.12827736821E+04  0.00000000000E+00 0. -1.
          2   -1    0    0  501    0  0.00000000000E+00 -0.00000000000E+00 -0.14345878666E+04  0.14345878666E+04  0.00000000000E+00 0.  1.
         23    2    1    2    0    0 -0.42511097529E+03 -0.16886557344E+03  0.12014663142E+04  0.12888647754E+04  0.91739751316E+02 0.  0.
         13    1    3    3    0    0 -0.14277514528E+03 -0.84900790972E+02  0.33950589511E+03  0.37796446821E+03  0.00000000000E+00 0.  1.
        -13    1    3    3    0    0 -0.28233583001E+03 -0.83964782468E+02  0.86196041909E+03  0.91090030721E+03  0.00000000000E+00 0. -1.
         22    1    1    2    0    0  0.42511097529E+03  0.16886557344E+03 -0.13532804987E+04  0.14284967733E+04  0.00000000000E+00 0.  1.
<mgrwt>
<rscale>  0 0.27131174E+04</rscale>
<asrwt>0</asrwt>
<pdfrwt beam="1">  1        2 0.22070583E+00 0.27131174E+04</pdfrwt>
<pdfrwt beam="2">  1       -2 0.19734980E+00 0.27131174E+04</pdfrwt>
<totfact> 0.16779027E+00</totfact>
</mgrwt>
</event>
<event>
 6    1  0.1001928E-005  0.3240847E+04  0.7818608E-02  0.8178112E-01
         -1   -1    0    0    0  501 -0.00000000000E+00  0.00000000000E+00  0.74769679776E+03  0.74769679776E+03  0.00000000000E+00 0.  1.
          1   -1    0    0  501    0  0.00000000000E+00 -0.00000000000E+00 -0.35118140817E+04  0.35118140817E+04  0.00000000000E+00 0. -1.
         23    2    1    2    0    0 -0.88422357815E+03 -0.24093934257E+03 -0.31375005250E+04  0.32699058331E+04  0.92040806697E+02 0.  0.
         13    1    3    3    0    0 -0.45933311295E+03 -0.79351539605E+02 -0.16338862925E+04  0.16990785716E+04  0.00000000000E+00 0. -1.
        -13    1    3    3    0    0 -0.42489046520E+03 -0.16158780296E+03 -0.15036142325E+04  0.15708272615E+04  0.00000000000E+00 0.  1.
         22    1    1    2    0    0  0.88422357815E+03  0.24093934257E+03  0.37338324110E+03  0.98960504631E+03  0.00000000000E+00 0.  1.
<mgrwt>
<rscale>  0 0.32408469E+04</rscale>
<asrwt>0</asrwt>
<pdfrwt beam="1">  1        1 0.54027909E+00 0.32408469E+04</pdfrwt>
<pdfrwt beam="2">  1       -1 0.11503028E+00 0.32408469E+04</pdfrwt>
<totfact> 0.13969451E-01</totfact>
</mgrwt>
</event>
<event>
 6    1  0.1001928E-005  0.1875348E+04  0.7818608E-02  0.8667225E-01
          2   -1    0    0  501    0  0.00000000000E+00  0.00000000000E+00  0.11773948518E+04  0.11773948518E+04  0.00000000000E+00 0. -1.
         -2   -1    0    0    0  501 -0.00000000000E+00 -0.00000000000E+00 -0.74676102568E+03  0.74676102568E+03  0.00000000000E+00 0.  1.
         23    2    1    2    0    0 -0.89368407352E+03  0.71695278049E+02  0.49025473024E+03  0.10256203532E+04  0.87954376012E+02 0.  0.
         13    1    3    3    0    0 -0.40747343423E+03  0.75919892463E+02  0.23476516031E+03  0.47635397571E+03  0.00000000000E+00 0. -1.
        -13    1    3    3    0    0 -0.48621063928E+03 -0.42246144140E+01  0.25548956992E+03  0.54926637751E+03  0.00000000000E+00 0.  1.
         22    1    1    2    0    0  0.89368407352E+03 -0.71695278049E+02 -0.59620904119E+02  0.89853552426E+03  0.00000000000E+00 0. -1.
<mgrwt>
<rscale>  0 0.18753481E+04</rscale>
<asrwt>0</asrwt>
<pdfrwt beam="1">  1        2 0.18113767E+00 0.18753481E+04</pdfrwt>
<pdfrwt beam="2">  1       -2 0.11488631E+00 0.18753481E+04</pdfrwt>
<totfact> 0.10841294E+01</totfact>
</mgrwt>
</event>
<event>
 6    1  0.1001928E-005  0.3536841E+04  0.7818608E-02  0.8105114E-01
          1   -1    0    0  501    0  0.00000000000E+00  0.00000000000E+00  0.28825010658E+04  0.28825010658E+04  0.00000000000E+00 0. -1.
         -1   -1    0    0    0  501 -0.00000000000E+00 -0.00000000000E+00 -0.10849299618E+04  0.10849299618E+04  0.00000000000E+00 0.  1.
         23    2    1    2    0    0 -0.15761517047E+04 -0.34741553375E+03  0.17069828366E+04  0.23509045096E+04  0.89497818431E+02 0.  0.
         11    1    3    3    0    0 -0.12091193642E+04 -0.25242566771E+03  0.13563352931E+04  0.18344846093E+04  0.00000000000E+00 0.  1.
        -11    1    3    3    0    0 -0.36703234053E+03 -0.94989866039E+02  0.35064754352E+03  0.51641990029E+03  0.00000000000E+00 0. -1.
         22    1    1    2    0    0  0.15761517047E+04  0.34741553375E+03  0.90588267470E+02  0.16165265180E+04  0.00000000000E+00 0. -1.
<mgrwt>
<rscale>  0 0.35368414E+04</rscale>
<asrwt>0</asrwt>
<pdfrwt beam="1">  1        1 0.44346170E+00 0.35368414E+04</pdfrwt>
<pdfrwt beam="2">  1       -1 0.16691230E+00 0.35368414E+04</pdfrwt>
<totfact> 0.15332149E-01</totfact>
</mgrwt>
</event>
<event>
 6    1  0.1124932E-005  0.2287811E+04  0.7818608E-02  0.8482743E-01
         -1   -1    0    0    0  501 -0.00000000000E+00  0.00000000000E+00  0.17799747736E+04  0.17799747736E+04  0.00000000000E+00 0.  1.
          1   -1    0    0  501    0  0.00000000000E+00 -0.00000000000E+00 -0.73513374319E+03  0.73513374319E+03  0.00000000000E+00 0. -1.
         23    2    1    2    0    0  0.23161509402E+03 -0.11183208656E+04  0.47553616293E+03  0.12390226488E+04  0.68959202641E+02 0.  0.
         13    1    3    3    0    0  0.15231918870E+03 -0.60171338190E+03  0.28095759896E+03  0.68132026362E+03  0.00000000000E+00 0. -1.
        -13    1    3    3    0    0  0.79295905326E+02 -0.51660748375E+03  0.19457856396E+03  0.55770238517E+03  0.00000000000E+00 0.  1.
         22    1    1    2    0    0 -0.23161509402E+03  0.11183208656E+04  0.56930486744E+03  0.12760858680E+04  0.00000000000E+00 0.  1.
<mgrwt>
<rscale>  0 0.22878108E+04</rscale>
<asrwt>0</asrwt>
<pdfrwt beam="1">  1        1 0.11309750E+00 0.22878108E+04</pdfrwt>
<pdfrwt beam="2">  1       -1 0.27384227E+00 0.22878108E+04</pdfrwt>
<totfact> 0.11155496E+00</totfact>
</mgrwt>
</event>
<event>
 6    1  0.1001928E-005  0.2905384E+04  0.7818608E-02  0.8271277E-01
          2   -1    0    0  501    0  0.00000000000E+00  0.00000000000E+00  0.23370715789E+04  0.23370715789E+04  0.00000000000E+00 0. -1.
         -2   -1    0    0    0  501 -0.00000000000E+00 -0.00000000000E+00 -0.90297395476E+03  0.90297395476E+03  0.00000000000E+00 0.  1.
         23    2    1    2    0    0  0.14016221936E+04  0.28198104463E+03  0.43997519413E+03  0.14986847184E+04  0.91758544814E+02 0.  0.
         13    1    3    3    0    0  0.82606134170E+03  0.13594313718E+03  0.29301782916E+03  0.88697087044E+03  0.00000000000E+00 0. -1.
        -13    1    3    3    0    0  0.57556085189E+03  0.14603790745E+03  0.14695736497E+03  0.61171384794E+03  0.00000000000E+00 0.  1.
         22    1    1    2    0    0 -0.14016221936E+04 -0.28198104463E+03  0.99412242998E+03  0.17413608153E+04  0.00000000000E+00 0.  1.
<mgrwt>
<rscale>  0 0.29053845E+04</rscale>
<asrwt>0</asrwt>
<pdfrwt beam="1">  1        2 0.35954947E+00 0.29053845E+04</pdfrwt>
<pdfrwt beam="2">  1       -2 0.13891907E+00 0.29053845E+04</pdfrwt>
<totfact> 0.13651988E+00</totfact>
</mgrwt>
</event>
<event>
 6    1  0.1001928E-005  0.1986574E+04  0.7818608E-02  0.8612924E-01
          2   -1    0    0  501    0  0.00000000000E+00  0.00000000000E+00  0.89315465297E+03  0.89315465297E+03  0.00000000000E+00 0. -1.
         -2   -1    0    0    0  501 -0.00000000000E+00 -0.00000000000E+00 -0.11046453443E+04  0.11046453443E+04  0.00000000000E+00 0.  1.
         23    2    1    2    0    0 -0.47915845739E+03 -0.35259415345E+03  0.69142152158E+03  0.91652023301E+03  0.89611119126E+02 0.  0.
         11    1    3    3    0    0 -0.38962117758E+03 -0.28440943619E+03  0.50210681409E+03  0.69627914098E+03  0.00000000000E+00 0.  1.
        -11    1    3    3    0    0 -0.89537279814E+02 -0.68184717264E+02  0.18931470750E+03  0.22024109203E+03  0.00000000000E+00 0. -1.
         22    1    1    2    0    0  0.47915845739E+03  0.35259415345E+03 -0.90291221290E+03  0.10812797642E+04  0.00000000000E+00 0.  1.
<mgrwt>
<rscale>  0 0.19865741E+04</rscale>
<asrwt>0</asrwt>
<pdfrwt beam="1">  1        2 0.13740841E+00 0.19865741E+04</pdfrwt>
<pdfrwt beam="2">  1       -2 0.16994544E+00 0.19865741E+04</pdfrwt>
<totfact> 0.58781826E+00</totfact>
</mgrwt>
</event>
<event>
 6    1  0.1001928E-005  0.2528176E+04  0.7818608E-02  0.8393016E-01
         -1   -1    0    0    0  501 -0.00000000000E+00  0.00000000000E+00  0.71808220326E+03  0.71808220326E+03  0.00000000000E+00 0.  1.
          1   -1    0    0  501    0  0.00000000000E+00 -0.00000000000E+00 -0.22252590446E+04  0.22252590446E+04  0.00000000000E+00 0. -1.
         23    2    1    2    0    0  0.36097738270E+03 -0.71631477395E+03 -0.18896704345E+04  0.20546833412E+04  0.86358296024E+02 0.  0.
         11    1    3    3    0    0  0.81584973255E+02 -0.14240168570E+03 -0.30637931637E+03  0.34756673237E+03  0.00000000000E+00 0.  1.
        -11    1    3    3    0    0  0.27939240945E+03 -0.57391308825E+03 -0.15832911181E+04  0.17071166088E+04  0.00000000000E+00 0. -1.
         22    1    1    2    0    0 -0.36097738270E+03  0.71631477395E+03  0.38249359321E+03  0.88865790664E+03  0.00000000000E+00 0.  1.
<mgrwt>
<rscale>  0 0.25281764E+04</rscale>
<asrwt>0</asrwt>
<pdfrwt beam="1">  1        1 0.34234754E+00 0.25281764E+04</pdfrwt>
<pdfrwt beam="2">  1       -1 0.11047419E+00 0.25281764E+04</pdfrwt>
<totfact> 0.14013580E+00</totfact>
</mgrwt>
</event>
<event>
 6    1  0.1001928E-005  0.1411528E+04  0.7818608E-02  0.8945516E-01
          2   -1    0    0  501    0  0.00000000000E+00  0.00000000000E+00  0.17514941009E+04  0.17514941009E+04  0.00000000000E+00 0. -1.
         -2   -1    0    0    0  501 -0.00000000000E+00 -0.00000000000E+00 -0.28438718999E+03  0.28438718999E+03  0.00000000000E+00 0.  1.
         23    2    1    2    0    0 -0.27953541753E+03  0.64459263627E+03  0.71537834778E+03  0.10069325317E+04  0.92234627930E+02 0.  0.
         13    1    3    3    0    0 -0.10812775744E+03  0.15889769667E+03  0.16716588796E+03  0.25472440801E+03  0.00000000000E+00 0. -1.
        -13    1    3    3    0    0 -0.17140766009E+03  0.48569493959E+03  0.54821245982E+03  0.75220812372E+03  0.00000000000E+00 0.  1.
         22    1    1    2    0    0  0.27953541753E+03 -0.64459263627E+03  0.75172856314E+03  0.10289487592E+04  0.00000000000E+00 0.  1.
<mgrwt>
<rscale>  0 0.14115275E+04</rscale>
<asrwt>0</asrwt>
<pdfrwt beam="1">  1        2 0.26946062E+00 0.14115275E+04</pdfrwt>
<pdfrwt beam="2">  1       -2 0.43751877E-01 0.14115275E+04</pdfrwt>
<totfact> 0.44228462E+01</totfact>
</mgrwt>
</event>
<event>
 6    1  0.1001928E-005  0.2709799E+04  0.7818608E-02  0.8331832E-01
          1   -1    0    0  501    0  0.00000000000E+00  0.00000000000E+00  0.71344071447E+03  0.71344071447E+03  0.00000000000E+00 0. -1.
         -1   -1    0    0    0  501 -0.00000000000E+00 -0.00000000000E+00 -0.25730985769E+04  0.25730985769E+04  0.00000000000E+00 0.  1.
         23    2    1    2    0    0 -0.58860177583E+03 -0.10959448082E+04 -0.15775005128E+04  0.20109375341E+04  0.88401500177E+02 0.  0.
         13    1    3    3    0    0 -0.63725915418E+02 -0.10221424933E+03 -0.19603004478E+03  0.23007938525E+03  0.00000000000E+00 0.  1.
        -13    1    3    3    0    0 -0.52487586041E+03 -0.99373055888E+03 -0.13814704680E+04  0.17808581489E+04  0.00000000000E+00 0. -1.
         22    1    1    2    0    0  0.58860177583E+03  0.10959448082E+04 -0.28215734966E+03  0.12756017573E+04  0.00000000000E+00 0. -1.
<mgrwt>
<rscale>  0 0.27097995E+04</rscale>
<asrwt>0</asrwt>
<pdfrwt beam="1">  1        1 0.10976011E+00 0.27097995E+04</pdfrwt>
<pdfrwt beam="2">  1       -1 0.39586131E+00 0.27097995E+04</pdfrwt>
<totfact> 0.17621181E-01</totfact>
</mgrwt>
</event>
<event>
 6    1  0.1001928E-005  0.4189020E+04  0.7818608E-02  0.7967464E-01
         -2   -1    0    0    0  501 -0.00000000000E+00  0.00000000000E+00  0.12510540154E+04  0.12510540154E+04  0.00000000000E+00 0.  1.
          2   -1    0    0  501    0  0.00000000000E+00 -0.00000000000E+00 -0.35066210935E+04  0.35066210935E+04  0.00000000000E+00 0. -1.
         23    2    1    2    0    0  0.20025123249E+04 -0.37653611315E+03 -0.58219776797E+03  0.21210105674E+04  0.88862421943E+02 0.  0.
         13    1    3    3    0    0  0.11539251500E+04 -0.18586051561E+03 -0.30093064567E+03  0.12069161680E+04  0.00000000000E+00 0. -1.
        -13    1    3    3    0    0  0.84858717490E+03 -0.19067559754E+03 -0.28126712230E+03  0.91409439939E+03  0.00000000000E+00 0.  1.
         22    1    1    2    0    0 -0.20025123249E+04  0.37653611315E+03 -0.16733693102E+04  0.26366645415E+04  0.00000000000E+00 0.  1.
<mgrwt>
<rscale>  0 0.41890201E+04</rscale>
<asrwt>0</asrwt>
<pdfrwt beam="1">  1        2 0.53948016E+00 0.41890201E+04</pdfrwt>
<pdfrwt beam="2">  1       -2 0.19246985E+00 0.41890201E+04</pdfrwt>
<totfact> 0.93068921E-02</totfact>
</mgrwt>
</event>
<event>
 6    1  0.1001928E-005  0.5276908E+04  0.7818608E-02  0.7787156E-01
          2   -1    0    0  501    0  0.00000000000E+00  0.00000000000E+00  0.39477884150E+04  0.39477884150E+04  0.00000000000E+00 0. -1.
         -2   -1    0    0    0  501 -0.00000000000E+00 -0.00000000000E+00 -0.17633772351E+04  0.17633772351E+04  0.00000000000E+00 0.  1.
         23    2    1    2    0    0  0.52966550354E+03 -0.12144865621E+04  0.35609567324E+04  0.38005634379E+04  0.91358854791E+02 0.  0.
         11    1    3    3    0    0  0.33260241654E+03 -0.85304948999E+03  0.25182371250E+04  0.26795216023E+04  0.00000000000E+00 0.  1.
        -11    1    3    3    0    0  0.19706308700E+03 -0.36143707212E+03  0.10427196074E+04  0.11210418355E+04  0.00000000000E+00 0. -1.
         22    1    1    2    0    0 -0.52966550354E+03  0.12144865621E+04 -0.13765455525E+04  0.19106022122E+04  0.00000000000E+00 0.  1.
<mgrwt>
<rscale>  0 0.52769083E+04</rscale>
<asrwt>0</asrwt>
<pdfrwt beam="1">  1        2 0.60735206E+00 0.52769083E+04</pdfrwt>
<pdfrwt beam="2">  1       -2 0.27128881E+00 0.52769083E+04</pdfrwt>
<totfact> 0.12716652E-02</totfact>
</mgrwt>
</event>
<event>
 6    1  0.1001928E-005  0.4082311E+04  0.7818608E-02  0.7988145E-01
          1   -1    0    0  501    0  0.00000000000E+00  0.00000000000E+00  0.28045582480E+04  0.28045582480E+04  0.00000000000E+00 0. -1.
         -1   -1    0    0    0  501 -0.00000000000E+00 -0.00000000000E+00 -0.14855515711E+04  0.14855515711E+04  0.00000000000E+00 0.  1.
         23    2    1    2    0    0 -0.16122375652E+04 -0.11625416623E+04  0.17660168617E+03  0.19975343578E+04  0.90234537500E+02 0.  0.
         11    1    3    3    0    0 -0.10243825282E+04 -0.78818495016E+03  0.13024377265E+03  0.12990606298E+04  0.00000000000E+00 0. -1.
        -11    1    3    3    0    0 -0.58785503708E+03 -0.37435671211E+03  0.46357913518E+02  0.69847372797E+03  0.00000000000E+00 0.  1.
         22    1    1    2    0    0  0.16122375652E+04  0.11625416623E+04  0.11424049907E+04  0.22925754614E+04  0.00000000000E+00 0. -1.
<mgrwt>
<rscale>  0 0.40823111E+04</rscale>
<asrwt>0</asrwt>
<pdfrwt beam="1">  1        1 0.43147050E+00 0.40823111E+04</pdfrwt>
<pdfrwt beam="2">  1       -1 0.22854640E+00 0.40823111E+04</pdfrwt>
<totfact> 0.62051026E-02</totfact>
</mgrwt>
</event>
<event>
 6    1  0.1001928E-005  0.2926217E+04  0.7818608E-02  0.8265119E-01
         -2   -1    0    0    0  501 -0.00000000000E+00  0.00000000000E+00  0.87580976138E+03  0.87580976138E+03  0.00000000000E+00 0.  1.
          2   -1    0    0  501    0  0.00000000000E+00 -0.00000000000E+00 -0.24442376023E+04  0.24442376023E+04  0.00000000000E+00 0. -1.
         23    2    1    2    0    0 -0.19650216826E+03  0.13304007609E+04 -0.14346303477E+04  0.19685737028E+04  0.92406180393E+02 0.  0.
         11    1    3    3    0    0 -0.21029481507E+02  0.39338409287E+03 -0.44978274716E+03  0.59791120015E+03  0.00000000000E+00 0. -1.
        -11    1    3    3    0    0 -0.17547268675E+03  0.93701666805E+03 -0.98484760054E+03  0.13706625027E+04  0.00000000000E+00 0.  1.
         22    1    1    2    0    0  0.19650216826E+03 -0.13304007609E+04 -0.13379749325E+03  0.13514736609E+04  0.00000000000E+00 0. -1.
<mgrwt>
<rscale>  0 0.29262175E+04</rscale>
<asrwt>0</asrwt>
<pdfrwt beam="1">  1        2 0.37603655E+00 0.29262175E+04</pdfrwt>
<pdfrwt beam="2">  1       -2 0.13473997E+00 0.29262175E+04</pdfrwt>
<totfact> 0.12799547E+00</totfact>
</mgrwt>
</event>
<event>
 6    1  0.1001928E-005  0.3437652E+04  0.7818608E-02  0.8128727E-01
          1   -1    0    0  501    0  0.00000000000E+00  0.00000000000E+00  0.18116109626E+04  0.18116109626E+04  0.00000000000E+00 0. -1.
         -1   -1    0    0    0  501 -0.00000000000E+00 -0.00000000000E+00 -0.16307930358E+04  0.16307930358E+04  0.00000000000E+00 0.  1.
         23    2    1    2    0    0  0.15282896645E+04  0.64921814615E+03  0.53089237407E+03  0.17454344587E+04  0.86840296049E+02 0.  0.
         13    1    3    3    0    0  0.48943685923E+03  0.23107315911E+03  0.13676565963E+03  0.55825450262E+03  0.00000000000E+00 0. -1.
        -13    1    3    3    0    0  0.10388528053E+04  0.41814498704E+03  0.39412671443E+03  0.11871799561E+04  0.00000000000E+00 0.  1.
         22    1    1    2    0    0 -0.15282896645E+04 -0.64921814615E+03 -0.35007444721E+03  0.16969695396E+04  0.00000000000E+00 0.  1.
<mgrwt>
<rscale>  0 0.34376518E+04</rscale>
<asrwt>0</asrwt>
<pdfrwt beam="1">  1        1 0.27870938E+00 0.34376518E+04</pdfrwt>
<pdfrwt beam="2">  1       -1 0.25089124E+00 0.34376518E+04</pdfrwt>
<totfact> 0.22570780E-01</totfact>
</mgrwt>
</event>
<event>
 6    1  0.1001928E-005  0.3433959E+04  0.7818608E-02  0.8129622E-01
          3   -1    0    0  501    0  0.00000000000E+00  0.00000000000E+00  0.52371233639E+03  0.52371233639E+03  0.00000000000E+00 0. -1.
         -3   -1    0    0    0  501 -0.00000000000E+00 -0.00000000000E+00 -0.56290802312E+04  0.56290802312E+04  0.00000000000E+00 0.  1.
         23    2    1    2    0    0  0.18477613218E+03  0.16341807237E+04 -0.34308259704E+04  0.38057136356E+04  0.90557053511E+02 0.  0.
         11    1    3    3    0    0  0.74325432796E+02  0.10201733870E+04 -0.21686977706E+04  0.23978173471E+04  0.00000000000E+00 0.  1.
        -11    1    3    3    0    0  0.11045069939E+03  0.61400733670E+03 -0.12621281998E+04  0.14078962885E+04  0.00000000000E+00 0. -1.
         22    1    1    2    0    0 -0.18477613218E+03 -0.16341807237E+04 -0.16745419244E+04  0.23470789320E+04  0.00000000000E+00 0. -1.
<mgrwt>
<rscale>  0 0.34339591E+04</rscale>
<asrwt>0</asrwt>
<pdfrwt beam="1">  1        3 0.80571133E-01 0.34339591E+04</pdfrwt>
<pdfrwt beam="2">  1       -3 0.86601230E+00 0.34339591E+04</pdfrwt>
<totfact> 0.23578549E-05</totfact>
</mgrwt>
</event>
<event>
 6    1  0.1001928E-005  0.1728265E+04  0.7818608E-02  0.8745406E-01
          2   -1    0    0  501    0  0.00000000000E+00  0.00000000000E+00  0.13521108908E+04  0.13521108908E+04  0.00000000000E+00 0. -1.
         -2   -1    0    0    0  501 -0.00000000000E+00 -0.00000000000E+00 -0.55226601580E+03  0.55226601580E+03  0.00000000000E+00 0.  1.
         23    2    1    2    0    0 -0.73937724895E+02 -0.14732334439E+03  0.13330830452E+04  0.13462426027E+04  0.89932113764E+02 0.  0.
         13    1    3    3    0    0  0.14569571481E+02 -0.23269481695E+00  0.16052282661E+03  0.16118282918E+03  0.00000000000E+00 0. -1.
        -13    1    3    3    0    0 -0.88507296376E+02 -0.14709064957E+03  0.11725602186E+04  0.11850597735E+04  0.00000000000E+00 0.  1.
         22    1    1    2    0    0  0.73937724895E+02  0.14732334439E+03 -0.53323817020E+03  0.55813430384E+03  0.00000000000E+00 0.  1.
<mgrwt>
<rscale>  0 0.17282649E+04</rscale>
<asrwt>0</asrwt>
<pdfrwt beam="1">  1        2 0.20801706E+00 0.17282649E+04</pdfrwt>
<pdfrwt beam="2">  1       -2 0.84964003E-01 0.17282649E+04</pdfrwt>
<totfact> 0.17657127E+01</totfact>
</mgrwt>
</event>
<event>
 6    1  0.1001928E-005  0.2549113E+04  0.7818608E-02  0.8385695E-01
          1   -1    0    0  501    0  0.00000000000E+00  0.00000000000E+00  0.19513056361E+04  0.19513056361E+04  0.00000000000E+00 0. -1.
         -1   -1    0    0    0  501 -0.00000000000E+00 -0.00000000000E+00 -0.83251674546E+03  0.83251674546E+03  0.00000000000E+00 0.  1.
         23    2    1    2    0    0  0.35859771794E+03  0.24328682115E+03 -0.74692267828E+03  0.86844762475E+03  0.92341696672E+02 0.  0.
         13    1    3    3    0    0  0.15104860240E+03  0.49130590492E+02 -0.26364328450E+03  0.30779421156E+03  0.00000000000E+00 0.  1.
        -13    1    3    3    0    0  0.20754911554E+03  0.19415623066E+03 -0.48327939378E+03  0.56065341319E+03  0.00000000000E+00 0. -1.
         22    1    1    2    0    0 -0.35859771794E+03 -0.24328682115E+03  0.18657115689E+04  0.19153747568E+04  0.00000000000E+00 0. -1.
<mgrwt>
<rscale>  0 0.25491133E+04</rscale>
<asrwt>0</asrwt>
<pdfrwt beam="1">  1        1 0.30020087E+00 0.25491133E+04</pdfrwt>
<pdfrwt beam="2">  1       -1 0.12807950E+00 0.25491133E+04</pdfrwt>
<totfact> 0.14976327E+00</totfact>
</mgrwt>
</event>
<event>
 6    1  0.1001928E-005  0.1436632E+04  0.7818608E-02  0.8927721E-01
          1   -1    0    0  501    0  0.00000000000E+00  0.00000000000E+00  0.16224866327E+04  0.16224866327E+04  0.00000000000E+00 0.  1.
         -1   -1    0    0    0  501 -0.00000000000E+00 -0.00000000000E+00 -0.31801690977E+03  0.31801690977E+03  0.00000000000E+00 0. -1.
         23    2    1    2    0    0 -0.28778068246E+03 -0.17291702409E+03  0.15081586805E+04  0.15478112840E+04  0.91973621788E+02 0.  0.
         13    1    3    3    0    0 -0.93283650675E+02 -0.24759304929E+02  0.58072049411E+03  0.58868595613E+03  0.00000000000E+00 0.  1.
        -13    1    3    3    0    0 -0.19449703179E+03 -0.14815771916E+03  0.92743818636E+03  0.95912532791E+03  0.00000000000E+00 0. -1.
         22    1    1    2    0    0  0.28778068246E+03  0.17291702409E+03 -0.20368895754E+03  0.39269225844E+03  0.00000000000E+00 0. -1.
<mgrwt>
<rscale>  0 0.14366324E+04</rscale>
<asrwt>0</asrwt>
<pdfrwt beam="1">  1        1 0.24961332E+00 0.14366324E+04</pdfrwt>
<pdfrwt beam="2">  1       -1 0.48925679E-01 0.14366324E+04</pdfrwt>
<totfact> 0.21903171E+01</totfact>
</mgrwt>
</event>
<event>
 6    1  0.1001928E-005  0.7420036E+03  0.7818608E-02  0.9647980E-01
         -1   -1    0    0    0  501 -0.00000000000E+00  0.00000000000E+00  0.13036327443E+04  0.13036327443E+04  0.00000000000E+00 0.  1.
          1   -1    0    0  501    0  0.00000000000E+00 -0.00000000000E+00 -0.10558367473E+03  0.10558367473E+03  0.00000000000E+00 0. -1.
         23    2    1    2    0    0  0.20988027671E+02 -0.32270700578E+03  0.93135690334E+03  0.99004459221E+03  0.90456090297E+02 0.  0.
         13    1    3    3    0    0  0.11014188194E+02 -0.16630478388E+03  0.34567948814E+03  0.38376151709E+03  0.00000000000E+00 0. -1.
        -13    1    3    3    0    0  0.99738394771E+01 -0.15640222190E+03  0.58567741520E+03  0.60628307511E+03  0.00000000000E+00 0.  1.
         22    1    1    2    0    0 -0.20988027671E+02  0.32270700578E+03  0.26669216624E+03  0.41917182684E+03  0.00000000000E+00 0. -1.
<mgrwt>
<rscale>  0 0.74200360E+03</rscale>
<asrwt>0</asrwt>
<pdfrwt beam="1">  1        1 0.16243643E-01 0.74200360E+03</pdfrwt>
<pdfrwt beam="2">  1       -1 0.20055887E+00 0.74200360E+03</pdfrwt>
<totfact> 0.52889254E+01</totfact>
</mgrwt>
</event>
<event>
 6    1  0.1001928E-005  0.1750093E+04  0.7818608E-02  0.8733299E-01
         -1   -1    0    0    0  501 -0.00000000000E+00  0.00000000000E+00  0.22507600265E+03  0.22507600265E+03  0.00000000000E+00 0.  1.
          1   -1    0    0  501    0  0.00000000000E+00 -0.00000000000E+00 -0.34019895769E+04  0.34019895769E+04  0.00000000000E+00 0. -1.
         23    2    1    2    0    0  0.17402680527E+03  0.44925114108E+03 -0.31007848878E+04  0.31393079619E+04  0.90970556938E+02 0.  0.
         13    1    3    3    0    0  0.13494737103E+03  0.30332747242E+03 -0.23637807785E+04  0.23869809210E+04  0.00000000000E+00 0. -1.
        -13    1    3    3    0    0  0.39079434237E+02  0.14592366865E+03 -0.73700410937E+03  0.75232704091E+03  0.00000000000E+00 0.  1.
         22    1    1    2    0    0 -0.17402680527E+03 -0.44925114108E+03 -0.76128686433E+02  0.48775761768E+03  0.00000000000E+00 0.  1.
<mgrwt>
<rscale>  0 0.17500928E+04</rscale>
<asrwt>0</asrwt>
<pdfrwt beam="1">  1        1 0.52338299E+00 0.17500928E+04</pdfrwt>
<pdfrwt beam="2">  1       -1 0.34627079E-01 0.17500928E+04</pdfrwt>
<totfact> 0.22491920E+00</totfact>
</mgrwt>
</event>
<event>
 6    1  0.1001928E-005  0.7363098E+03  0.7818608E-02  0.9657076E-01
         -1   -1    0    0    0  501 -0.00000000000E+00  0.00000000000E+00  0.26004390958E+03  0.26004390958E+03  0.00000000000E+00 0.  1.
          1   -1    0    0  501    0  0.00000000000E+00 -0.00000000000E+00 -0.52121203358E+03  0.52121203358E+03  0.00000000000E+00 0. -1.
         23    2    1    2    0    0  0.95385922889E+02 -0.24441425226E+03  0.13245464379E+03  0.30820659656E+03  0.92791554084E+02 0.  0.
         13    1    3    3    0    0  0.40739424511E+02 -0.20002010479E+03  0.11976005743E+03  0.23666477217E+03  0.00000000000E+00 0. -1.
        -13    1    3    3    0    0  0.54646498378E+02 -0.44394147474E+02  0.12694586353E+02  0.71541824394E+02  0.00000000000E+00 0.  1.
         22    1    1    2    0    0 -0.95385922889E+02  0.24441425226E+03 -0.39362276779E+03  0.47304934660E+03  0.00000000000E+00 0. -1.
<mgrwt>
<rscale>  0 0.73630976E+03</rscale>
<asrwt>0</asrwt>
<pdfrwt beam="1">  1        1 0.80186466E-01 0.73630976E+03</pdfrwt>
<pdfrwt beam="2">  1       -1 0.40006756E-01 0.73630976E+03</pdfrwt>
<totfact> 0.25783756E+02</totfact>
</mgrwt>
</event>
<event>
 6    1  0.1001928E-005  0.1492579E+04  0.7818608E-02  0.8889403E-01
         -1   -1    0    0    0  501 -0.00000000000E+00  0.00000000000E+00  0.25179687966E+03  0.25179687966E+03  0.00000000000E+00 0.  1.
          1   -1    0    0  501    0  0.00000000000E+00 -0.00000000000E+00 -0.22118950635E+04  0.22118950635E+04  0.00000000000E+00 0. -1.
         23    2    1    2    0    0  0.95060252208E+02 -0.67989995116E+03 -0.14545697159E+04  0.16111314309E+04  0.93118388095E+02 0.  0.
         13    1    3    3    0    0  0.69405522751E+02 -0.35005167076E+03 -0.65700609337E+03  0.74766991748E+03  0.00000000000E+00 0. -1.
        -13    1    3    3    0    0  0.25654729457E+02 -0.32984828040E+03 -0.79756362249E+03  0.86346151342E+03  0.00000000000E+00 0.  1.
         22    1    1    2    0    0 -0.95060252208E+02  0.67989995116E+03 -0.50552846798E+03  0.85256051226E+03  0.00000000000E+00 0.  1.
<mgrwt>
<rscale>  0 0.14925793E+04</rscale>
<asrwt>0</asrwt>
<pdfrwt beam="1">  1        1 0.34029154E+00 0.14925793E+04</pdfrwt>
<pdfrwt beam="2">  1       -1 0.38737983E-01 0.14925793E+04</pdfrwt>
<totfact> 0.13384753E+01</totfact>
</mgrwt>
</event>
<event>
 6    1  0.1001928E-005  0.2446140E+04  0.7818608E-02  0.8422429E-01
          1   -1    0    0  501    0  0.00000000000E+00  0.00000000000E+00  0.14356799176E+04  0.14356799176E+04  0.00000000000E+00 0. -1.
         -1   -1    0    0    0  501 -0.00000000000E+00 -0.00000000000E+00 -0.10419456364E+04  0.10419456364E+04  0.00000000000E+00 0.  1.
         23    2    1    2    0    0  0.55841283208E+03  0.10638489603E+04  0.41967065590E+03  0.12758467902E+04  0.89789037459E+02 0.  0.
         11    1    3    3    0    0  0.26115189963E+03  0.58662694213E+03  0.24183471209E+03  0.68615997544E+03  0.00000000000E+00 0.  1.
        -11    1    3    3    0    0  0.29726093245E+03  0.47722201820E+03  0.17783594381E+03  0.58968681478E+03  0.00000000000E+00 0. -1.
         22    1    1    2    0    0 -0.55841283208E+03 -0.10638489603E+04 -0.25936374731E+02  0.12017787637E+04  0.00000000000E+00 0.  1.
<mgrwt>
<rscale>  0 0.24461402E+04</rscale>
<asrwt>0</asrwt>
<pdfrwt beam="1">  1        1 0.22087383E+00 0.24461402E+04</pdfrwt>
<pdfrwt beam="2">  1       -1 0.16029933E+00 0.24461402E+04</pdfrwt>
<totfact> 0.18820376E+00</totfact>
</mgrwt>
</event>
<event>
 6    1  0.1001928E-005  0.1701677E+04  0.7818608E-02  0.8760409E-01
         -2   -1    0    0    0  501 -0.00000000000E+00  0.00000000000E+00  0.78127911918E+03  0.78127911918E+03  0.00000000000E+00 0.  1.
          2   -1    0    0  501    0  0.00000000000E+00 -0.00000000000E+00 -0.92659044309E+03  0.92659044309E+03  0.00000000000E+00 0. -1.
         23    2    1    2    0    0 -0.13724443164E+03  0.45339050202E+03 -0.77931812004E+03  0.91643820145E+03  0.90129149095E+02 0.  0.
         13    1    3    3    0    0  0.32294297960E+01  0.21975206677E+02 -0.78437169036E+02  0.81521337156E+02  0.00000000000E+00 0.  1.
        -13    1    3    3    0    0 -0.14047386144E+03  0.43141529534E+03 -0.70088095100E+03  0.83491686429E+03  0.00000000000E+00 0. -1.
         22    1    1    2    0    0  0.13724443164E+03 -0.45339050202E+03  0.63400679613E+03  0.79143136082E+03  0.00000000000E+00 0.  1.
<mgrwt>
<rscale>  0 0.17016765E+04</rscale>
<asrwt>0</asrwt>
<pdfrwt beam="1">  1        2 0.14255238E+00 0.17016765E+04</pdfrwt>
<pdfrwt beam="2">  1       -2 0.12019679E+00 0.17016765E+04</pdfrwt>
<totfact> 0.14158225E+01</totfact>
</mgrwt>
</event>
<event>
 6    1  0.1001928E-005  0.2856704E+04  0.7818608E-02  0.8285877E-01
         -1   -1    0    0    0  501 -0.00000000000E+00  0.00000000000E+00  0.17340391793E+04  0.17340391793E+04  0.00000000000E+00 0.  1.
          1   -1    0    0  501    0  0.00000000000E+00 -0.00000000000E+00 -0.11765529361E+04  0.11765529361E+04  0.00000000000E+00 0. -1.
         23    2    1    2    0    0  0.14145081615E+03 -0.10023145035E+04  0.13037110057E+04  0.16530174285E+04  0.90341216600E+02 0.  0.
         11    1    3    3    0    0  0.14211245154E+03 -0.75582819458E+03  0.96032006496E+03  0.12303198104E+04  0.00000000000E+00 0. -1.
        -11    1    3    3    0    0 -0.66163538672E+00 -0.24648630888E+03  0.34339094069E+03  0.42269761813E+03  0.00000000000E+00 0.  1.
         22    1    1    2    0    0 -0.14145081615E+03  0.10023145035E+04 -0.74622476238E+03  0.12575746869E+04  0.00000000000E+00 0. -1.
<mgrwt>
<rscale>  0 0.28567036E+04</rscale>
<asrwt>0</asrwt>
<pdfrwt beam="1">  1        1 0.18100814E+00 0.28567036E+04</pdfrwt>
<pdfrwt beam="2">  1       -1 0.26677526E+00 0.28567036E+04</pdfrwt>
<totfact> 0.51932028E-01</totfact>
</mgrwt>
</event>
<event>
 6    1  0.1001928E-005  0.3071676E+04  0.7818608E-02  0.8223555E-01
         -1   -1    0    0    0  501 -0.00000000000E+00  0.00000000000E+00  0.13843972947E+04  0.13843972947E+04  0.00000000000E+00 0.  1.
          1   -1    0    0  501    0  0.00000000000E+00 -0.00000000000E+00 -0.17038444490E+04  0.17038444490E+04  0.00000000000E+00 0. -1.
         23    2    1    2    0    0 -0.31610557619E+03  0.75003081628E+03  0.11479912670E+04  0.14101939253E+04  0.91071384436E+02 0.  0.
         11    1    3    3    0    0 -0.95006535799E+02  0.32051251633E+03  0.42634174370E+03  0.54177651979E+03  0.00000000000E+00 0.  1.
        -11    1    3    3    0    0 -0.22109904039E+03  0.42951829995E+03  0.72164952330E+03  0.86841740548E+03  0.00000000000E+00 0. -1.
         22    1    1    2    0    0  0.31610557619E+03 -0.75003081628E+03 -0.14674384213E+04  0.16780478184E+04  0.00000000000E+00 0. -1.
<mgrwt>
<rscale>  0 0.30716755E+04</rscale>
<asrwt>0</asrwt>
<pdfrwt beam="1">  1        1 0.26212992E+00 0.30716755E+04</pdfrwt>
<pdfrwt beam="2">  1       -1 0.21298420E+00 0.30716755E+04</pdfrwt>
<totfact> 0.49171737E-01</totfact>
</mgrwt>
</event>
<event>
 6    1  0.1001928E-005  0.1597641E+04  0.7818608E-02  0.8821999E-01
         -1   -1    0    0    0  501 -0.00000000000E+00  0.00000000000E+00  0.87200454755E+03  0.87200454755E+03  0.00000000000E+00 0.  1.
          1   -1    0    0  501    0  0.00000000000E+00 -0.00000000000E+00 -0.73177836070E+03  0.73177836070E+03  0.00000000000E+00 0. -1.
         23    2    1    2    0    0 -0.18898292488E+03 -0.57286719891E+03 -0.45147121300E+03  0.75879936612E+03  0.89771088754E+02 0.  0.
         13    1    3    3    0    0 -0.17938305141E+03 -0.43729353294E+03 -0.37081290449E+03  0.60075462813E+03  0.00000000000E+00 0. -1.
        -13    1    3    3    0    0 -0.95998734741E+01 -0.13557366597E+03 -0.80658308509E+02  0.15804473799E+03  0.00000000000E+00 0.  1.
         22    1    1    2    0    0  0.18898292488E+03  0.57286719891E+03  0.59169739986E+03  0.84498354213E+03  0.00000000000E+00 0.  1.
<mgrwt>
<rscale>  0 0.15976408E+04</rscale>
<asrwt>0</asrwt>
<pdfrwt beam="1">  1        1 0.11258129E+00 0.15976408E+04</pdfrwt>
<pdfrwt beam="2">  1       -1 0.13415455E+00 0.15976408E+04</pdfrwt>
<totfact> 0.11435186E+01</totfact>
</mgrwt>
</event>
<event>
 6    1  0.1001928E-005  0.1153829E+04  0.7818608E-02  0.9154259E-01
         -1   -1    0    0    0  501 -0.00000000000E+00  0.00000000000E+00  0.13544868806E+04  0.13544868806E+04  0.00000000000E+00 0.  1.
          1   -1    0    0  501    0  0.00000000000E+00 -0.00000000000E+00 -0.24572414616E+03  0.24572414616E+03  0.00000000000E+00 0. -1.
         23    2    1    2    0    0 -0.93691968438E+02  0.34413133396E+03 -0.64666081928E+02  0.37377727516E+03  0.91231514889E+02 0.  0.
         13    1    3    3    0    0 -0.53948738334E+02  0.10614598085E+03 -0.57902532426E+02  0.13240143081E+03  0.00000000000E+00 0. -1.
        -13    1    3    3    0    0 -0.39743230104E+02  0.23798535311E+03 -0.67635495020E+01  0.24137584435E+03  0.00000000000E+00 0.  1.
         22    1    1    2    0    0  0.93691968438E+02 -0.34413133396E+03  0.11734288164E+04  0.12264337516E+04  0.00000000000E+00 0.  1.
<mgrwt>
<rscale>  0 0.11538286E+04</rscale>
<asrwt>0</asrwt>
<pdfrwt beam="1">  1        1 0.37803716E-01 0.11538286E+04</pdfrwt>
<pdfrwt beam="2">  1       -1 0.20838259E+00 0.11538286E+04</pdfrwt>
<totfact> 0.14902479E+01</totfact>
</mgrwt>
</event>
<event>
 6    1  0.1001928E-005  0.1816948E+04  0.7818608E-02  0.8697338E-01
         -2   -1    0    0    0  501 -0.00000000000E+00  0.00000000000E+00  0.13553576530E+04  0.13553576530E+04  0.00000000000E+00 0.  1.
          2   -1    0    0  501    0  0.00000000000E+00 -0.00000000000E+00 -0.60893523944E+03  0.60893523944E+03  0.00000000000E+00 0. -1.
         23    2    1    2    0    0  0.70046460459E+03 -0.56693238529E+03  0.47541678551E+03  0.10232790550E+04  0.94952159895E+02 0.  0.
         13    1    3    3    0    0  0.12517734895E+03 -0.14932405958E+03  0.89879077312E+02  0.21458166744E+03  0.00000000000E+00 0. -1.
        -13    1    3    3    0    0  0.57528725564E+03 -0.41760832571E+03  0.38553770820E+03  0.80869738756E+03  0.00000000000E+00 0.  1.
         22    1    1    2    0    0 -0.70046460459E+03  0.56693238529E+03  0.27100562801E+03  0.94101383741E+03  0.00000000000E+00 0. -1.
<mgrwt>
<rscale>  0 0.18169480E+04</rscale>
<asrwt>0</asrwt>
<pdfrwt beam="1">  1        2 0.93682345E-01 0.18169480E+04</pdfrwt>
<pdfrwt beam="2">  1       -2 0.20851656E+00 0.18169480E+04</pdfrwt>
<totfact> 0.53719848E+00</totfact>
</mgrwt>
</event>
<event>
 6    1  0.1001928E-005  0.2660967E+04  0.7818608E-02  0.8347782E-01
         -2   -1    0    0    0  501 -0.00000000000E+00  0.00000000000E+00  0.11549539166E+04  0.11549539166E+04  0.00000000000E+00 0.  1.
          2   -1    0    0  501    0  0.00000000000E+00 -0.00000000000E+00 -0.15326904326E+04  0.15326904326E+04  0.00000000000E+00 0. -1.
         23    2    1    2    0    0  0.43967021353E+03  0.12416318316E+04 -0.36671772680E+03  0.13704196471E+04  0.92782628648E+02 0.  0.
         13    1    3    3    0    0  0.25028462719E+03  0.79146817599E+03 -0.26682823975E+03  0.87192980093E+03  0.00000000000E+00 0. -1.
        -13    1    3    3    0    0  0.18938558634E+03  0.45016365562E+03 -0.99889487048E+02  0.49848984621E+03  0.00000000000E+00 0.  1.
         22    1    1    2    0    0 -0.43967021353E+03 -0.12416318316E+04 -0.11018789229E+02  0.13172247020E+04  0.00000000000E+00 0.  1.
<mgrwt>
<rscale>  0 0.26609674E+04</rscale>
<asrwt>0</asrwt>
<pdfrwt beam="1">  1        2 0.23579853E+00 0.26609674E+04</pdfrwt>
<pdfrwt beam="2">  1       -2 0.17768522E+00 0.26609674E+04</pdfrwt>
<totfact> 0.20150375E+00</totfact>
</mgrwt>
</event>
<event>
 6    1  0.1001928E-005  0.5191509E+04  0.7818608E-02  0.7799626E-01
         -2   -1    0    0    0  501 -0.00000000000E+00  0.00000000000E+00  0.38228467968E+04  0.38228467968E+04  0.00000000000E+00 0.  1.
          2   -1    0    0  501    0  0.00000000000E+00 -0.00000000000E+00 -0.17625455192E+04  0.17625455192E+04  0.00000000000E+00 0. -1.
         23    2    1    2    0    0 -0.85875498396E+03 -0.24218169727E+04  0.64069463853E+03  0.26497594062E+04  0.89876131345E+02 0.  0.
         13    1    3    3    0    0 -0.73708639027E+03 -0.20179530342E+04  0.50818904549E+03  0.22076428382E+04  0.00000000000E+00 0. -1.
        -13    1    3    3    0    0 -0.12166859369E+03 -0.40386393851E+03  0.13250559303E+03  0.44211656800E+03  0.00000000000E+00 0.  1.
         22    1    1    2    0    0  0.85875498396E+03  0.24218169727E+04  0.14196066391E+04  0.29356329099E+04  0.00000000000E+00 0. -1.
<mgrwt>
<rscale>  0 0.51915090E+04</rscale>
<asrwt>0</asrwt>
<pdfrwt beam="1">  1        2 0.27116085E+00 0.51915090E+04</pdfrwt>
<pdfrwt beam="2">  1       -2 0.58813027E+00 0.51915090E+04</pdfrwt>
<totfact> 0.37286187E-03</totfact>
</mgrwt>
</event>
<event>
 6    1  0.1001928E-005  0.4699373E+04  0.7818608E-02  0.7876633E-01
          1   -1    0    0  501    0  0.00000000000E+00  0.00000000000E+00  0.38323732037E+04  0.38323732037E+04  0.00000000000E+00 0. -1.
         -1   -1    0    0    0  501 -0.00000000000E+00 -0.00000000000E+00 -0.14406289350E+04  0.14406289350E+04  0.00000000000E+00 0.  1.
         23    2    1    2    0    0 -0.20953818100E+04 -0.86610225182E+03  0.50847685040E+03  0.23255533760E+04  0.94296111614E+02 0.  0.
         11    1    3    3    0    0 -0.10278018968E+04 -0.47555806266E+03  0.24862303464E+03  0.11594591944E+04  0.00000000000E+00 0.  1.
        -11    1    3    3    0    0 -0.10675799132E+04 -0.39054418916E+03  0.25985381577E+03  0.11660941816E+04  0.00000000000E+00 0. -1.
         22    1    1    2    0    0  0.20953818100E+04  0.86610225182E+03  0.18832674182E+04  0.29474487627E+04  0.00000000000E+00 0. -1.
<mgrwt>
<rscale>  0 0.46993735E+04</rscale>
<asrwt>0</asrwt>
<pdfrwt beam="1">  1        1 0.58959588E+00 0.46993735E+04</pdfrwt>
<pdfrwt beam="2">  1       -1 0.22163522E+00 0.46993735E+04</pdfrwt>
<totfact> 0.10592807E-02</totfact>
</mgrwt>
</event>
<event>
 6    1  0.1001928E-005  0.3392918E+04  0.7818608E-02  0.8139647E-01
          2   -1    0    0  501    0  0.00000000000E+00  0.00000000000E+00  0.31009144495E+04  0.31009144495E+04  0.00000000000E+00 0. -1.
         -2   -1    0    0    0  501 -0.00000000000E+00 -0.00000000000E+00 -0.92810484597E+03  0.92810484597E+03  0.00000000000E+00 0.  1.
         23    2    1    2    0    0  0.32755605970E+03  0.13630716637E+04 -0.44724911735E+02  0.14055260786E+04  0.90806976896E+02 0.  0.
         11    1    3    3    0    0  0.14083285910E+03  0.65520856654E+03 -0.63783979228E+02  0.67320172005E+03  0.00000000000E+00 0. -1.
        -11    1    3    3    0    0  0.18672320060E+03  0.70786309720E+03  0.19059067493E+02  0.73232435852E+03  0.00000000000E+00 0.  1.
         22    1    1    2    0    0 -0.32755605970E+03 -0.13630716637E+04  0.22175345153E+04  0.26234932169E+04  0.00000000000E+00 0. -1.
<mgrwt>
<rscale>  0 0.33929183E+04</rscale>
<asrwt>0</asrwt>
<pdfrwt beam="1">  1        2 0.47706376E+00 0.33929183E+04</pdfrwt>
<pdfrwt beam="2">  1       -2 0.14278536E+00 0.33929183E+04</pdfrwt>
<totfact> 0.42462968E-01</totfact>
</mgrwt>
</event>
<event>
 6    1  0.1001928E-005  0.1173399E+04  0.7818608E-02  0.9136464E-01
          2   -1    0    0  501    0  0.00000000000E+00  0.00000000000E+00  0.15338743447E+04  0.15338743447E+04  0.00000000000E+00 0. -1.
         -2   -1    0    0    0  501 -0.00000000000E+00 -0.00000000000E+00 -0.22440965068E+03  0.22440965068E+03  0.00000000000E+00 0.  1.
         23    2    1    2    0    0 -0.45972836606E+03  0.15401852133E+03  0.11446422809E+04  0.12461919106E+04  0.87843333062E+02 0.  0.
         13    1    3    3    0    0 -0.17357206598E+03  0.16714401454E+02  0.44389386119E+03  0.47691549912E+03  0.00000000000E+00 0. -1.
        -13    1    3    3    0    0 -0.28615630008E+03  0.13730411988E+03  0.70074841976E+03  0.76927641145E+03  0.00000000000E+00 0.  1.
         22    1    1    2    0    0  0.45972836606E+03 -0.15401852133E+03  0.16482241308E+03  0.51209208481E+03  0.00000000000E+00 0.  1.
<mgrwt>
<rscale>  0 0.11733988E+04</rscale>
<asrwt>0</asrwt>
<pdfrwt beam="1">  1        2 0.23598066E+00 0.11733988E+04</pdfrwt>
<pdfrwt beam="2">  1       -2 0.34524563E-01 0.11733988E+04</pdfrwt>
<totfact> 0.94365732E+01</totfact>
</mgrwt>
</event>
<event>
 6    1  0.1001928E-005  0.2372410E+04  0.7818608E-02  0.8449905E-01
         -1   -1    0    0    0  501 -0.00000000000E+00  0.00000000000E+00  0.16694229865E+04  0.16694229865E+04  0.00000000000E+00 0.  1.
          1   -1    0    0  501    0  0.00000000000E+00 -0.00000000000E+00 -0.84285571687E+03  0.84285571687E+03  0.00000000000E+00 0. -1.
         23    2    1    2    0    0  0.39577933555E+03 -0.47142196948E+02 -0.76754140515E+03  0.86909699212E+03  0.85709415514E+02 0.  0.
         13    1    3    3    0    0  0.17118649792E+03 -0.63259645389E+02 -0.34754774503E+03  0.39255067810E+03  0.00000000000E+00 0.  1.
        -13    1    3    3    0    0  0.22459283763E+03  0.16117448441E+02 -0.41999366012E+03  0.47654631402E+03  0.00000000000E+00 0. -1.
         22    1    1    2    0    0 -0.39577933555E+03  0.47142196948E+02  0.15941086748E+04  0.16431817113E+04  0.00000000000E+00 0.  1.
<mgrwt>
<rscale>  0 0.23724103E+04</rscale>
<asrwt>0</asrwt>
<pdfrwt beam="1">  1        1 0.12967011E+00 0.23724103E+04</pdfrwt>
<pdfrwt beam="2">  1       -1 0.25683431E+00 0.23724103E+04</pdfrwt>
<totfact> 0.11477128E+00</totfact>
</mgrwt>
</event>
<event>
 6    1  0.1001928E-005  0.1122818E+04  0.7818608E-02  0.9183233E-01
          1   -1    0    0  501    0  0.00000000000E+00  0.00000000000E+00  0.14416434834E+04  0.14416434834E+04  0.00000000000E+00 0. -1.
         -1   -1    0    0    0  501 -0.00000000000E+00 -0.00000000000E+00 -0.21862541326E+03  0.21862541326E+03  0.00000000000E+00 0.  1.
         23    2    1    2    0    0  0.60447272465E+02  0.34351567715E+03 -0.28009893087E+02  0.36152802260E+03  0.90890394549E+02 0.  0.
         13    1    3    3    0    0  0.68893743582E+02  0.14778991052E+03 -0.28999655749E+02  0.16561758840E+03  0.00000000000E+00 0.  1.
        -13    1    3    3    0    0 -0.84464711165E+01  0.19572576663E+03  0.98976266172E+00  0.19591043420E+03  0.00000000000E+00 0. -1.
         22    1    1    2    0    0 -0.60447272465E+02 -0.34351567715E+03  0.12510279632E+04  0.12987408740E+04  0.00000000000E+00 0. -1.
<mgrwt>
<rscale>  0 0.11228177E+04</rscale>
<asrwt>0</asrwt>
<pdfrwt beam="1">  1        1 0.22179130E+00 0.11228177E+04</pdfrwt>
<pdfrwt beam="2">  1       -1 0.33634680E-01 0.11228177E+04</pdfrwt>
<totfact> 0.59532963E+01</totfact>
</mgrwt>
</event>
<event>
 6    1  0.1001928E-005  0.2289007E+04  0.7818608E-02  0.8482268E-01
          2   -1    0    0  501    0  0.00000000000E+00  0.00000000000E+00  0.12860614843E+04  0.12860614843E+04  0.00000000000E+00 0. -1.
         -2   -1    0    0    0  501 -0.00000000000E+00 -0.00000000000E+00 -0.10185265238E+04  0.10185265238E+04  0.00000000000E+00 0.  1.
         23    2    1    2    0    0  0.71987568751E+03  0.45182819952E+03 -0.63494936774E+03  0.10648913960E+04  0.91995968683E+02 0.  0.
         13    1    3    3    0    0  0.43692759190E+03  0.31066724307E+03 -0.43873552166E+03  0.69275444022E+03  0.00000000000E+00 0.  1.
        -13    1    3    3    0    0  0.28294809561E+03  0.14116095645E+03 -0.19621384608E+03  0.37213695574E+03  0.00000000000E+00 0. -1.
         22    1    1    2    0    0 -0.71987568751E+03 -0.45182819952E+03  0.90248432829E+03  0.12396966121E+04  0.00000000000E+00 0. -1.
<mgrwt>
<rscale>  0 0.22890065E+04</rscale>
<asrwt>0</asrwt>
<pdfrwt beam="1">  1        2 0.19785561E+00 0.22890065E+04</pdfrwt>
<pdfrwt beam="2">  1       -2 0.15669639E+00 0.22890065E+04</pdfrwt>
<totfact> 0.40751310E+00</totfact>
</mgrwt>
</event>
<event>
 6    1  0.1001928E-005  0.9591396E+03  0.7818608E-02  0.9354531E-01
          3   -1    0    0  501    0  0.00000000000E+00  0.00000000000E+00  0.23259693844E+03  0.23259693844E+03  0.00000000000E+00 0. -1.
         -3   -1    0    0    0  501 -0.00000000000E+00 -0.00000000000E+00 -0.98877988876E+03  0.98877988876E+03  0.00000000000E+00 0.  1.
         23    2    1    2    0    0 -0.31257353941E+03  0.26657124962E+03 -0.68569699791E+03  0.80456665680E+03  0.91567918175E+02 0.  0.
         11    1    3    3    0    0 -0.22026985594E+03  0.21596617586E+03 -0.57019975477E+03  0.64829619688E+03  0.00000000000E+00 0. -1.
        -11    1    3    3    0    0 -0.92303683467E+02  0.50605073757E+02 -0.11549724314E+03  0.15627045992E+03  0.00000000000E+00 0.  1.
         22    1    1    2    0    0  0.31257353941E+03 -0.26657124962E+03 -0.70485952411E+02  0.41681017040E+03  0.00000000000E+00 0. -1.
<mgrwt>
<rscale>  0 0.95913956E+03</rscale>
<asrwt>0</asrwt>
<pdfrwt beam="1">  1        3 0.35784144E-01 0.95913956E+03</pdfrwt>
<pdfrwt beam="2">  1       -3 0.15211998E+00 0.95913956E+03</pdfrwt>
<totfact> 0.63035845E+00</totfact>
</mgrwt>
</event>
<event>
 6    1  0.1001928E-005  0.1992584E+04  0.7818608E-02  0.8610096E-01
         -2   -1    0    0    0  501 -0.00000000000E+00  0.00000000000E+00  0.63176421727E+03  0.63176421727E+03  0.00000000000E+00 0.  1.
          2   -1    0    0  501    0  0.00000000000E+00 -0.00000000000E+00 -0.15711525941E+04  0.15711525941E+04  0.00000000000E+00 0. -1.
         23    2    1    2    0    0  0.89002150061E+03  0.15907681188E+03 -0.14774458374E+02  0.90972131114E+03  0.99653779067E+02 0.  0.
         11    1    3    3    0    0  0.41146351652E+03  0.42260485610E+02 -0.45684631792E+02  0.41614331624E+03  0.00000000000E+00 0.  1.
        -11    1    3    3    0    0  0.47855798410E+03  0.11681632627E+03  0.30910173418E+02  0.49357799490E+03  0.00000000000E+00 0. -1.
         22    1    1    2    0    0 -0.89002150061E+03 -0.15907681188E+03 -0.92461391847E+03  0.12931955002E+04  0.00000000000E+00 0. -1.
<mgrwt>
<rscale>  0 0.19925842E+04</rscale>
<asrwt>0</asrwt>
<pdfrwt beam="1">  1        2 0.24171578E+00 0.19925842E+04</pdfrwt>
<pdfrwt beam="2">  1       -2 0.97194497E-01 0.19925842E+04</pdfrwt>
<totfact> 0.95063391E+00</totfact>
</mgrwt>
</event>
<event>
 6    1  0.1001928E-005  0.1364166E+04  0.7818608E-02  0.8980173E-01
          1   -1    0    0  501    0  0.00000000000E+00  0.00000000000E+00  0.30064292336E+04  0.30064292336E+04  0.00000000000E+00 0. -1.
         -1   -1    0    0    0  501 -0.00000000000E+00 -0.00000000000E+00 -0.15474740114E+03  0.15474740114E+03  0.00000000000E+00 0.  1.
         23    2    1    2    0    0 -0.47780261116E+03 -0.47793796491E+03  0.12810479630E+04  0.14513196860E+04  0.92330459450E+02 0.  0.
         11    1    3    3    0    0 -0.26923036590E+03 -0.21740767549E+03  0.71163417116E+03  0.79131174694E+03  0.00000000000E+00 0. -1.
        -11    1    3    3    0    0 -0.20857224525E+03 -0.26053028942E+03  0.56941379187E+03  0.66000793902E+03  0.00000000000E+00 0.  1.
         22    1    1    2    0    0  0.47780261116E+03  0.47793796491E+03  0.15706338694E+04  0.17098569488E+04  0.00000000000E+00 0. -1.
<mgrwt>
<rscale>  0 0.13641658E+04</rscale>
<asrwt>0</asrwt>
<pdfrwt beam="1">  1        1 0.46252753E+00 0.13641658E+04</pdfrwt>
<pdfrwt beam="2">  1       -1 0.23807295E-01 0.13641658E+04</pdfrwt>
<totfact> 0.88830559E+00</totfact>
</mgrwt>
</event>
<event>
 6    1  0.1001928E-005  0.2480939E+04  0.7818608E-02  0.8409808E-01
         -2   -1    0    0    0  501 -0.00000000000E+00  0.00000000000E+00  0.74131720959E+03  0.74131720959E+03  0.00000000000E+00 0.  1.
          2   -1    0    0  501    0  0.00000000000E+00 -0.00000000000E+00 -0.20757160361E+04  0.20757160361E+04  0.00000000000E+00 0. -1.
         23    2    1    2    0    0  0.26279686634E+02  0.12259317109E+04 -0.86863188870E+03  0.15053404378E+04  0.89046582366E+02 0.  0.
         11    1    3    3    0    0  0.56430649539E+02  0.66293562064E+03 -0.48692010548E+03  0.82447513270E+03  0.00000000000E+00 0. -1.
        -11    1    3    3    0    0 -0.30150962905E+02  0.56299609029E+03 -0.38171178321E+03  0.68086530510E+03  0.00000000000E+00 0.  1.
         22    1    1    2    0    0 -0.26279686634E+02 -0.12259317109E+04 -0.46576693777E+03  0.13116928078E+04  0.00000000000E+00 0.  1.
<mgrwt>
<rscale>  0 0.24809385E+04</rscale>
<asrwt>0</asrwt>
<pdfrwt beam="1">  1        2 0.31934093E+00 0.24809385E+04</pdfrwt>
<pdfrwt beam="2">  1       -2 0.11404880E+00 0.24809385E+04</pdfrwt>
<totfact> 0.32584312E+00</totfact>
</mgrwt>
</event>
<event>
 6    1  0.1001928E-005  0.7445995E+03  0.7818608E-02  0.9643861E-01
         -1   -1    0    0    0  501 -0.00000000000E+00  0.00000000000E+00  0.48801293792E+03  0.48801293792E+03  0.00000000000E+00 0.  1.
          1   -1    0    0  501    0  0.00000000000E+00 -0.00000000000E+00 -0.28402342508E+03  0.28402342508E+03  0.00000000000E+00 0. -1.
         23    2    1    2    0    0  0.12715307389E+03 -0.10771354517E+03  0.44193446997E+03  0.48154038259E+03  0.93834707368E+02 0.  0.
         13    1    3    3    0    0  0.18313393022E+02 -0.75299958820E+02  0.18979997621E+03  0.20501096344E+03  0.00000000000E+00 0. -1.
        -13    1    3    3    0    0  0.10883968087E+03 -0.32413586352E+02  0.25213449376E+03  0.27652941915E+03  0.00000000000E+00 0.  1.
         22    1    1    2    0    0 -0.12715307389E+03  0.10771354517E+03 -0.23794495713E+03  0.29049598041E+03  0.00000000000E+00 0. -1.
<mgrwt>
<rscale>  0 0.74459951E+03</rscale>
<asrwt>0</asrwt>
<pdfrwt beam="1">  1        1 0.43695911E-01 0.74459951E+03</pdfrwt>
<pdfrwt beam="2">  1       -1 0.75078914E-01 0.74459951E+03</pdfrwt>
<totfact> 0.17034754E+02</totfact>
</mgrwt>
</event>
<event>
 6    1  0.1001928E-005  0.1894818E+04  0.7818608E-02  0.8657440E-01
         -1   -1    0    0    0  501 -0.00000000000E+00  0.00000000000E+00  0.13884177197E+04  0.13884177197E+04  0.00000000000E+00 0.  1.
          1   -1    0    0  501    0  0.00000000000E+00 -0.00000000000E+00 -0.64647939943E+03  0.64647939943E+03  0.00000000000E+00 0. -1.
         23    2    1    2    0    0  0.55640255083E+03 -0.76405377972E+03  0.37212218666E+03  0.10199459136E+04  0.91938936294E+02 0.  0.
         13    1    3    3    0    0  0.21602577874E+02 -0.48769799488E+02  0.25758717829E+01  0.53402245537E+02  0.00000000000E+00 0. -1.
        -13    1    3    3    0    0  0.53479997295E+03 -0.71528398023E+03  0.36954631488E+03  0.96654366807E+03  0.00000000000E+00 0.  1.
         22    1    1    2    0    0 -0.55640255083E+03  0.76405377972E+03  0.36981613358E+03  0.10149512055E+04  0.00000000000E+00 0.  1.
<mgrwt>
<rscale>  0 0.18948176E+04</rscale>
<asrwt>0</asrwt>
<pdfrwt beam="1">  1        1 0.99458370E-01 0.18948176E+04</pdfrwt>
<pdfrwt beam="2">  1       -1 0.21360273E+00 0.18948176E+04</pdfrwt>
<totfact> 0.34919678E+00</totfact>
</mgrwt>
</event>
<event>
 6    1  0.1001928E-005  0.9811378E+03  0.7818608E-02  0.9329478E-01
          2   -1    0    0  501    0  0.00000000000E+00  0.00000000000E+00  0.30890311774E+03  0.30890311774E+03  0.00000000000E+00 0. -1.
         -2   -1    0    0    0  501 -0.00000000000E+00 -0.00000000000E+00 -0.77907217909E+03  0.77907217909E+03  0.00000000000E+00 0.  1.
         23    2    1    2    0    0  0.36589767059E+01 -0.48424049234E+03 -0.18694316450E+03  0.52697694462E+03  0.90855439446E+02 0.  0.
         13    1    3    3    0    0 -0.36631069818E+02 -0.12770233706E+03 -0.65931204300E+02  0.14831266253E+03  0.00000000000E+00 0.  1.
        -13    1    3    3    0    0  0.40290046524E+02 -0.35653815528E+03 -0.12101196020E+03  0.37866428209E+03  0.00000000000E+00 0. -1.
         22    1    1    2    0    0 -0.36589767059E+01  0.48424049234E+03 -0.28322589685E+03  0.56099835221E+03  0.00000000000E+00 0. -1.
<mgrwt>
<rscale>  0 0.98113776E+03</rscale>
<asrwt>0</asrwt>
<pdfrwt beam="1">  1        2 0.47523557E-01 0.98113776E+03</pdfrwt>
<pdfrwt beam="2">  1       -2 0.11985726E+00 0.98113776E+03</pdfrwt>
<totfact> 0.56533766E+01</totfact>
</mgrwt>
</event>
<event>
 6    1  0.1001928E-005  0.1022718E+04  0.7818608E-02  0.9283974E-01
          2   -1    0    0  501    0  0.00000000000E+00  0.00000000000E+00  0.85076494078E+03  0.85076494078E+03  0.00000000000E+00 0. -1.
         -2   -1    0    0    0  501 -0.00000000000E+00 -0.00000000000E+00 -0.30735612589E+03  0.30735612589E+03  0.00000000000E+00 0.  1.
         23    2    1    2    0    0  0.17081401583E+03  0.57245425249E+02 -0.26310183321E+03  0.33173502359E+03  0.91493631026E+02 0.  0.
         13    1    3    3    0    0  0.10739278923E+02  0.36831630515E+02 -0.72253989183E+02  0.81807946258E+02  0.00000000000E+00 0. -1.
        -13    1    3    3    0    0  0.16007473690E+03  0.20413794733E+02 -0.19084784403E+03  0.24992707733E+03  0.00000000000E+00 0.  1.
         22    1    1    2    0    0 -0.17081401583E+03 -0.57245425249E+02  0.80651064810E+03  0.82638604309E+03  0.00000000000E+00 0. -1.
<mgrwt>
<rscale>  0 0.10227176E+04</rscale>
<asrwt>0</asrwt>
<pdfrwt beam="1">  1        2 0.13088691E+00 0.10227176E+04</pdfrwt>
<pdfrwt beam="2">  1       -2 0.47285558E-01 0.10227176E+04</pdfrwt>
<totfact> 0.13396262E+02</totfact>
</mgrwt>
</event>
<event>
 6    1  0.1001928E-005  0.1587375E+04  0.7818608E-02  0.8828342E-01
          1   -1    0    0  501    0  0.00000000000E+00  0.00000000000E+00  0.14090534035E+04  0.14090534035E+04  0.00000000000E+00 0. -1.
         -1   -1    0    0    0  501 -0.00000000000E+00 -0.00000000000E+00 -0.44706600162E+03  0.44706600162E+03  0.00000000000E+00 0.  1.
         23    2    1    2    0    0 -0.48513929272E+03 -0.43129440695E+03  0.10113540163E+04  0.12051109094E+04  0.89890816630E+02 0.  0.
         11    1    3    3    0    0 -0.13741540149E+03 -0.15083335302E+03  0.38556637988E+03  0.43622829601E+03  0.00000000000E+00 0.  1.
        -11    1    3    3    0    0 -0.34772389124E+03 -0.28046105394E+03  0.62578763643E+03  0.76888261342E+03  0.00000000000E+00 0. -1.
         22    1    1    2    0    0  0.48513929272E+03  0.43129440695E+03 -0.49366614437E+02  0.65100849567E+03  0.00000000000E+00 0.  1.
<mgrwt>
<rscale>  0 0.15873750E+04</rscale>
<asrwt>0</asrwt>
<pdfrwt beam="1">  1        1 0.21677744E+00 0.15873750E+04</pdfrwt>
<pdfrwt beam="2">  1       -1 0.68779386E-01 0.15873750E+04</pdfrwt>
<totfact> 0.15555585E+01</totfact>
</mgrwt>
</event>
<event>
 6    1  0.1058462E-005  0.3338977E+04  0.7818608E-02  0.8153048E-01
         -2   -1    0    0    0  501 -0.00000000000E+00  0.00000000000E+00  0.13925115327E+04  0.13925115327E+04  0.00000000000E+00 0.  1.
          2   -1    0    0  501    0  0.00000000000E+00 -0.00000000000E+00 -0.20015573126E+04  0.20015573126E+04  0.00000000000E+00 0. -1.
         23    2    1    2    0    0 -0.70735615929E+03 -0.14315460001E+04  0.18569293992E+03  0.16104527658E+04  0.96951309962E+02 0.  0.
         13    1    3    3    0    0 -0.13822419051E+03 -0.37028689329E+03  0.57720504523E+02  0.39943706241E+03  0.00000000000E+00 0. -1.
        -13    1    3    3    0    0 -0.56913196878E+03 -0.10612591068E+04  0.12797243540E+03  0.12110157034E+04  0.00000000000E+00 0.  1.
         22    1    1    2    0    0  0.70735615929E+03  0.14315460001E+04 -0.79473871981E+03  0.17836160795E+04  0.00000000000E+00 0. -1.
<mgrwt>
<rscale>  0 0.33389769E+04</rscale>
<asrwt>0</asrwt>
<pdfrwt beam="1">  1        2 0.30793189E+00 0.33389769E+04</pdfrwt>
<pdfrwt beam="2">  1       -2 0.21423254E+00 0.33389769E+04</pdfrwt>
<totfact> 0.59715494E-01</totfact>
</mgrwt>
</event>
<event>
 6    1  0.1001928E-005  0.1715313E+04  0.7818608E-02  0.8752679E-01
         -2   -1    0    0    0  501 -0.00000000000E+00  0.00000000000E+00  0.70798743207E+03  0.70798743207E+03  0.00000000000E+00 0.  1.
          2   -1    0    0  501    0  0.00000000000E+00 -0.00000000000E+00 -0.10389658291E+04  0.10389658291E+04  0.00000000000E+00 0. -1.
         23    2    1    2    0    0  0.39120653449E+02 -0.66279125673E+03  0.38332895334E+03  0.77173140624E+03  0.88349314527E+02 0.  0.
         11    1    3    3    0    0  0.29035885524E+02 -0.32479172191E+03  0.23784930997E+03  0.40361496445E+03  0.00000000000E+00 0. -1.
        -11    1    3    3    0    0  0.10084767925E+02 -0.33799953482E+03  0.14547964337E+03  0.36811644179E+03  0.00000000000E+00 0.  1.
         22    1    1    2    0    0 -0.39120653449E+02  0.66279125673E+03 -0.71430735038E+03  0.97522185493E+03  0.00000000000E+00 0. -1.
<mgrwt>
<rscale>  0 0.17153131E+04</rscale>
<asrwt>0</asrwt>
<pdfrwt beam="1">  1        2 0.15984090E+00 0.17153131E+04</pdfrwt>
<pdfrwt beam="2">  1       -2 0.10892114E+00 0.17153131E+04</pdfrwt>
<totfact> 0.15214475E+01</totfact>
</mgrwt>
</event>
<event>
 6    1  0.1001928E-005  0.1924631E+04  0.7818608E-02  0.8642692E-01
         -2   -1    0    0    0  501 -0.00000000000E+00  0.00000000000E+00  0.66946621353E+03  0.66946621353E+03  0.00000000000E+00 0.  1.
          2   -1    0    0  501    0  0.00000000000E+00 -0.00000000000E+00 -0.13832684723E+04  0.13832684723E+04  0.00000000000E+00 0. -1.
         23    2    1    2    0    0  0.83280679349E+03 -0.41199679454E+03 -0.10045536339E+03  0.93940502751E+03  0.95299589120E+02 0.  0.
         11    1    3    3    0    0  0.44601296165E+03 -0.18825074592E+03 -0.90175217087E+02  0.49244032642E+03  0.00000000000E+00 0.  1.
        -11    1    3    3    0    0  0.38679383184E+03 -0.22374604861E+03 -0.10280146305E+02  0.44696470110E+03  0.00000000000E+00 0. -1.
         22    1    1    2    0    0 -0.83280679349E+03  0.41199679454E+03 -0.61334689535E+03  0.11133296583E+04  0.00000000000E+00 0.  1.
<mgrwt>
<rscale>  0 0.19246314E+04</rscale>
<asrwt>0</asrwt>
<pdfrwt beam="1">  1        2 0.21281053E+00 0.19246314E+04</pdfrwt>
<pdfrwt beam="2">  1       -2 0.10299480E+00 0.19246314E+04</pdfrwt>
<totfact> 0.10647605E+01</totfact>
</mgrwt>
</event>
<event>
 6    1  0.1001928E-005  0.2204274E+04  0.7818608E-02  0.8516651E-01
         -2   -1    0    0    0  501 -0.00000000000E+00  0.00000000000E+00  0.58876337465E+03  0.58876337465E+03  0.00000000000E+00 0.  1.
          2   -1    0    0  501    0  0.00000000000E+00 -0.00000000000E+00 -0.20631474754E+04  0.20631474754E+04  0.00000000000E+00 0. -1.
         23    2    1    2    0    0  0.38543391488E+03 -0.10125381874E+04 -0.50887041262E+03  0.12007011596E+04  0.94558417141E+02 0.  0.
         13    1    3    3    0    0  0.17316523651E+03 -0.57350380550E+03 -0.30341904615E+03  0.67153252462E+03  0.00000000000E+00 0.  1.
        -13    1    3    3    0    0  0.21226867838E+03 -0.43903438188E+03 -0.20545136646E+03  0.52916863501E+03  0.00000000000E+00 0. -1.
         22    1    1    2    0    0 -0.38543391488E+03  0.10125381874E+04 -0.96551368818E+03  0.14512096905E+04  0.00000000000E+00 0. -1.
<mgrwt>
<rscale>  0 0.22042737E+04</rscale>
<asrwt>0</asrwt>
<pdfrwt beam="1">  1        2 0.31740730E+00 0.22042737E+04</pdfrwt>
<pdfrwt beam="2">  1       -2 0.90578981E-01 0.22042737E+04</pdfrwt>
<totfact> 0.58612076E+00</totfact>
</mgrwt>
</event>
<event>
 6    1  0.1001928E-005  0.5306309E+04  0.7818608E-02  0.7782918E-01
         -2   -1    0    0    0  501 -0.00000000000E+00  0.00000000000E+00  0.16572456082E+04  0.16572456082E+04  0.00000000000E+00 0.  1.
          2   -1    0    0  501    0  0.00000000000E+00 -0.00000000000E+00 -0.42475464548E+04  0.42475464548E+04  0.00000000000E+00 0. -1.
         23    2    1    2    0    0  0.13128505207E+04  0.54439283206E+03 -0.37875653451E+04  0.40464642329E+04  0.91002743926E+02 0.  0.
         13    1    3    3    0    0  0.28268502071E+03  0.92895921263E+02 -0.71160584818E+03  0.77131274868E+03  0.00000000000E+00 0. -1.
        -13    1    3    3    0    0  0.10301654999E+04  0.45149691080E+03 -0.30759594969E+04  0.32751514842E+04  0.00000000000E+00 0.  1.
         22    1    1    2    0    0 -0.13128505207E+04 -0.54439283206E+03  0.11972644985E+04  0.18583278302E+04  0.00000000000E+00 0.  1.
<mgrwt>
<rscale>  0 0.53063086E+04</rscale>
<asrwt>0</asrwt>
<pdfrwt beam="1">  1        2 0.65346867E+00 0.53063086E+04</pdfrwt>
<pdfrwt beam="2">  1       -2 0.25496087E+00 0.53063086E+04</pdfrwt>
<totfact> 0.89283092E-03</totfact>
</mgrwt>
</event>
<event>
 6    1  0.1001928E-005  0.1401026E+04  0.7818608E-02  0.8953076E-01
          2   -1    0    0  501    0  0.00000000000E+00  0.00000000000E+00  0.36632441936E+03  0.36632441936E+03  0.00000000000E+00 0. -1.
         -2   -1    0    0    0  501 -0.00000000000E+00 -0.00000000000E+00 -0.13395734026E+04  0.13395734026E+04  0.00000000000E+00 0.  1.
         23    2    1    2    0    0 -0.37593056763E+03 -0.16467215209E+03 -0.11754558685E+04  0.12483736872E+04  0.91102440712E+02 0.  0.
         11    1    3    3    0    0 -0.26285454047E+03 -0.11821597071E+03 -0.69027167374E+03  0.74802574069E+03  0.00000000000E+00 0. -1.
        -11    1    3    3    0    0 -0.11307602717E+03 -0.46456181385E+02 -0.48518419481E+03  0.50034794653E+03  0.00000000000E+00 0.  1.
         22    1    1    2    0    0  0.37593056763E+03  0.16467215209E+03  0.20220688533E+03  0.45752413470E+03  0.00000000000E+00 0. -1.
<mgrwt>
<rscale>  0 0.14010260E+04</rscale>
<asrwt>0</asrwt>
<pdfrwt beam="1">  1        2 0.56357604E-01 0.14010260E+04</pdfrwt>
<pdfrwt beam="2">  1       -2 0.20608821E+00 0.14010260E+04</pdfrwt>
<totfact> 0.10362392E+01</totfact>
</mgrwt>
</event>
<event>
 6    1  0.1001928E-005  0.8397045E+03  0.7818608E-02  0.9504260E-01
          1   -1    0    0  501    0  0.00000000000E+00  0.00000000000E+00  0.17554437058E+03  0.17554437058E+03  0.00000000000E+00 0. -1.
         -1   -1    0    0    0  501 -0.00000000000E+00 -0.00000000000E+00 -0.10041673010E+04  0.10041673010E+04  0.00000000000E+00 0.  1.
         23    2    1    2    0    0  0.23577128170E+03 -0.25244173375E+03 -0.96646426187E+02  0.37032639315E+03  0.92120462193E+02 0.  0.
         11    1    3    3    0    0  0.53146629974E+02 -0.88930621358E+02 -0.67080222263E+02  0.12342194259E+03  0.00000000000E+00 0. -1.
        -11    1    3    3    0    0  0.18262465172E+03 -0.16351111239E+03 -0.29566203924E+02  0.24690445056E+03  0.00000000000E+00 0.  1.
         22    1    1    2    0    0 -0.23577128170E+03  0.25244173375E+03 -0.73197650427E+03  0.80938527848E+03  0.00000000000E+00 0.  1.
<mgrwt>
<rscale>  0 0.83970451E+03</rscale>
<asrwt>0</asrwt>
<pdfrwt beam="1">  1        1 0.27006826E-01 0.83970451E+03</pdfrwt>
<pdfrwt beam="2">  1       -1 0.15448728E+00 0.83970451E+03</pdfrwt>
<totfact> 0.57539056E+01</totfact>
</mgrwt>
</event>
<event>
 6    1  0.1001928E-005  0.9390938E+03  0.7818608E-02  0.9377990E-01
         -1   -1    0    0    0  501 -0.00000000000E+00  0.00000000000E+00  0.16944188551E+03  0.16944188551E+03  0.00000000000E+00 0.  1.
          1   -1    0    0  501    0  0.00000000000E+00 -0.00000000000E+00 -0.13011794406E+04  0.13011794406E+04  0.00000000000E+00 0. -1.
         23    2    1    2    0    0  0.29063142058E+03  0.57761150996E+02 -0.11327267739E+04  0.11743040101E+04  0.90094343240E+02 0.  0.
         11    1    3    3    0    0  0.12803828204E+03  0.63539752176E+02 -0.62546173894E+03  0.64158669613E+03  0.00000000000E+00 0. -1.
        -11    1    3    3    0    0  0.16259313854E+03 -0.57786011794E+01 -0.50726503497E+03  0.53271731400E+03  0.00000000000E+00 0.  1.
         22    1    1    2    0    0 -0.29063142058E+03 -0.57761150996E+02  0.98921882853E+00  0.29631731597E+03  0.00000000000E+00 0.  1.
<mgrwt>
<rscale>  0 0.93909381E+03</rscale>
<asrwt>0</asrwt>
<pdfrwt beam="1">  1        1 0.20018145E+00 0.93909381E+03</pdfrwt>
<pdfrwt beam="2">  1       -1 0.26067982E-01 0.93909381E+03</pdfrwt>
<totfact> 0.11826552E+02</totfact>
</mgrwt>
</event>
<event>
 6    1  0.1001928E-005  0.3766991E+04  0.7818608E-02  0.8053276E-01
          2   -1    0    0  501    0  0.00000000000E+00  0.00000000000E+00  0.34402407318E+04  0.34402407318E+04  0.00000000000E+00 0.  1.
         -2   -1    0    0    0  501 -0.00000000000E+00 -0.00000000000E+00 -0.10311937507E+04  0.10311937507E+04  0.00000000000E+00 0. -1.
         23    2    1    2    0    0  0.21401690873E+02 -0.23051038375E+03  0.34226723350E+04  0.34317088325E+04  0.91359341477E+02 0.  0.
         11    1    3    3    0    0 -0.30947398424E+02 -0.13026486150E+03  0.20638722132E+04  0.20682106247E+04  0.00000000000E+00 0. -1.
        -11    1    3    3    0    0  0.52349089297E+02 -0.10024552225E+03  0.13588001217E+04  0.13634982078E+04  0.00000000000E+00 0.  1.
         22    1    1    2    0    0 -0.21401690873E+02  0.23051038375E+03 -0.10136253538E+04  0.10397256500E+04  0.00000000000E+00 0. -1.
<mgrwt>
<rscale>  0 0.37669907E+04</rscale>
<asrwt>0</asrwt>
<pdfrwt beam="1">  1        2 0.52926780E+00 0.37669907E+04</pdfrwt>
<pdfrwt beam="2">  1       -2 0.15864519E+00 0.37669907E+04</pdfrwt>
<totfact> 0.18511856E-01</totfact>
</mgrwt>
</event>
<event>
 6    1  0.1001928E-005  0.2446276E+04  0.7818608E-02  0.8422379E-01
          2   -1    0    0  501    0  0.00000000000E+00  0.00000000000E+00  0.24277391859E+04  0.24277391859E+04  0.00000000000E+00 0. -1.
         -2   -1    0    0    0  501 -0.00000000000E+00 -0.00000000000E+00 -0.61623849912E+03  0.61623849912E+03  0.00000000000E+00 0.  1.
         23    2    1    2    0    0 -0.11061496485E+04 -0.13622019068E+03  0.28527429544E+03  0.11541390721E+04  0.92372014150E+02 0.  0.
         13    1    3    3    0    0 -0.65018655136E+03 -0.11758537137E+03  0.14186163122E+03  0.67579108720E+03  0.00000000000E+00 0. -1.
        -13    1    3    3    0    0 -0.45596309711E+03 -0.18634819308E+02  0.14341266422E+03  0.47834798492E+03  0.00000000000E+00 0.  1.
         22    1    1    2    0    0  0.11061496485E+04  0.13622019068E+03  0.15262263913E+04  0.18898386129E+04  0.00000000000E+00 0. -1.
<mgrwt>
<rscale>  0 0.24462758E+04</rscale>
<asrwt>0</asrwt>
<pdfrwt beam="1">  1        2 0.37349833E+00 0.24462758E+04</pdfrwt>
<pdfrwt beam="2">  1       -2 0.94805924E-01 0.24462758E+04</pdfrwt>
<totfact> 0.32144841E+00</totfact>
</mgrwt>
</event>
<event>
 6    1  0.1001928E-005  0.2148258E+04  0.7818608E-02  0.8540278E-01
          2   -1    0    0  501    0  0.00000000000E+00  0.00000000000E+00  0.45437006330E+03  0.45437006330E+03  0.00000000000E+00 0.  1.
         -2   -1    0    0    0  501 -0.00000000000E+00 -0.00000000000E+00 -0.25392358926E+04  0.25392358926E+04  0.00000000000E+00 0. -1.
         23    2    1    2    0    0  0.23874125182E+03 -0.50400355881E+03  0.23205152287E+03  0.61051489817E+03  0.88676710646E+02 0.  0.
         13    1    3    3    0    0  0.10628894507E+03 -0.22839155692E+03  0.57412283622E+02  0.25837223811E+03  0.00000000000E+00 0. -1.
        -13    1    3    3    0    0  0.13245230675E+03 -0.27561200189E+03  0.17463923925E+03  0.35214266006E+03  0.00000000000E+00 0.  1.
         22    1    1    2    0    0 -0.23874125182E+03  0.50400355881E+03 -0.23169173521E+04  0.23830910577E+04  0.00000000000E+00 0. -1.
<mgrwt>
<rscale>  0 0.21482577E+04</rscale>
<asrwt>0</asrwt>
<pdfrwt beam="1">  1        2 0.69903086E-01 0.21482577E+04</pdfrwt>
<pdfrwt beam="2">  1       -2 0.39065168E+00 0.21482577E+04</pdfrwt>
<totfact> 0.54031581E-01</totfact>
</mgrwt>
</event>
<event>
 6    1  0.1001928E-005  0.5777482E+04  0.7818608E-02  0.7718620E-01
         -2   -1    0    0    0  501 -0.00000000000E+00  0.00000000000E+00  0.29821907468E+04  0.29821907468E+04  0.00000000000E+00 0.  1.
          2   -1    0    0  501    0  0.00000000000E+00 -0.00000000000E+00 -0.27982192777E+04  0.27982192777E+04  0.00000000000E+00 0. -1.
         23    2    1    2    0    0 -0.14485272229E+04 -0.16263971688E+04  0.19895993509E+04  0.29513305074E+04  0.91909306228E+02 0.  0.
         13    1    3    3    0    0 -0.34573196877E+03 -0.43719933982E+03  0.54078275724E+03  0.77660791105E+03  0.00000000000E+00 0.  1.
        -13    1    3    3    0    0 -0.11027952541E+04 -0.11891978290E+04  0.14488165937E+04  0.21747225964E+04  0.00000000000E+00 0. -1.
         22    1    1    2    0    0  0.14485272229E+04  0.16263971688E+04 -0.18056278818E+04  0.28290795170E+04  0.00000000000E+00 0. -1.
<mgrwt>
<rscale>  0 0.57774817E+04</rscale>
<asrwt>0</asrwt>
<pdfrwt beam="1">  1        2 0.43049527E+00 0.57774817E+04</pdfrwt>
<pdfrwt beam="2">  1       -2 0.45879858E+00 0.57774817E+04</pdfrwt>
<totfact> 0.48449051E-03</totfact>
</mgrwt>
</event>
<event>
 6    1  0.1001928E-005  0.3537322E+04  0.7818608E-02  0.8105002E-01
          1   -1    0    0  501    0  0.00000000000E+00  0.00000000000E+00  0.28237993004E+04  0.28237993004E+04  0.00000000000E+00 0. -1.
         -1   -1    0    0    0  501 -0.00000000000E+00 -0.00000000000E+00 -0.11077849730E+04  0.11077849730E+04  0.00000000000E+00 0.  1.
         23    2    1    2    0    0 -0.11342642910E+04 -0.10846345194E+04 -0.45010490283E+02  0.15727294812E+04  0.92003012699E+02 0.  0.
         13    1    3    3    0    0 -0.22555240614E+03 -0.25798970896E+03 -0.32379051954E+02  0.34421066348E+03  0.00000000000E+00 0. -1.
        -13    1    3    3    0    0 -0.90871188486E+03 -0.82664481044E+03 -0.12631438330E+02  0.12285188177E+04  0.00000000000E+00 0.  1.
         22    1    1    2    0    0  0.11342642910E+04  0.10846345194E+04  0.17610248177E+04  0.23588547923E+04  0.00000000000E+00 0. -1.
<mgrwt>
<rscale>  0 0.35373224E+04</rscale>
<asrwt>0</asrwt>
<pdfrwt beam="1">  1        1 0.43443066E+00 0.35373224E+04</pdfrwt>
<pdfrwt beam="2">  1       -1 0.17042846E+00 0.35373224E+04</pdfrwt>
<totfact> 0.15913814E-01</totfact>
</mgrwt>
</event>
<event>
 6    1  0.1001928E-005  0.3587770E+04  0.7818608E-02  0.8093299E-01
         -2   -1    0    0    0  501 -0.00000000000E+00  0.00000000000E+00  0.13833789701E+04  0.13833789701E+04  0.00000000000E+00 0.  1.
          2   -1    0    0  501    0  0.00000000000E+00 -0.00000000000E+00 -0.23262048448E+04  0.23262048448E+04  0.00000000000E+00 0. -1.
         23    2    1    2    0    0 -0.93649849480E+03 -0.14740432703E+04 -0.89039321729E+03  0.19624197764E+04  0.91969038808E+02 0.  0.
         13    1    3    3    0    0 -0.65329051927E+03 -0.10576923984E+04 -0.58998898607E+03  0.13760772929E+04  0.00000000000E+00 0. -1.
        -13    1    3    3    0    0 -0.28320797553E+03 -0.41635087189E+03 -0.30040423122E+03  0.58634248359E+03  0.00000000000E+00 0.  1.
         22    1    1    2    0    0  0.93649849480E+03  0.14740432703E+04 -0.52432657417E+02  0.17471640384E+04  0.00000000000E+00 0.  1.
<mgrwt>
<rscale>  0 0.35877697E+04</rscale>
<asrwt>0</asrwt>
<pdfrwt beam="1">  1        2 0.35787766E+00 0.35877697E+04</pdfrwt>
<pdfrwt beam="2">  1       -2 0.21282754E+00 0.35877697E+04</pdfrwt>
<totfact> 0.39247542E-01</totfact>
</mgrwt>
</event>
<event>
 6    1  0.1001928E-005  0.1910094E+04  0.7818608E-02  0.8649848E-01
          1   -1    0    0  501    0  0.00000000000E+00  0.00000000000E+00  0.12930665731E+04  0.12930665731E+04  0.00000000000E+00 0. -1.
         -1   -1    0    0    0  501 -0.00000000000E+00 -0.00000000000E+00 -0.70538880852E+03  0.70538880852E+03  0.00000000000E+00 0.  1.
         23    2    1    2    0    0 -0.12655651589E+03 -0.40766711136E+02  0.12817229833E+04  0.12917890939E+04  0.90701602786E+02 0.  0.
         13    1    3    3    0    0 -0.81480358476E+02  0.12524668976E+02  0.89747041767E+03  0.90124861539E+03  0.00000000000E+00 0.  1.
        -13    1    3    3    0    0 -0.45076157413E+02 -0.53291380112E+02  0.38425256568E+03  0.39054047856E+03  0.00000000000E+00 0. -1.
         22    1    1    2    0    0  0.12655651589E+03  0.40766711136E+02 -0.69404521876E+03  0.70666628768E+03  0.00000000000E+00 0.  1.
<mgrwt>
<rscale>  0 0.19100939E+04</rscale>
<asrwt>0</asrwt>
<pdfrwt beam="1">  1        1 0.19893332E+00 0.19100939E+04</pdfrwt>
<pdfrwt beam="2">  1       -1 0.10852136E+00 0.19100939E+04</pdfrwt>
<totfact> 0.67401592E+00</totfact>
</mgrwt>
</event>
<event>
 6    1  0.1001928E-005  0.1964582E+04  0.7818608E-02  0.8623361E-01
         -1   -1    0    0    0  501 -0.00000000000E+00  0.00000000000E+00  0.10242951887E+04  0.10242951887E+04  0.00000000000E+00 0.  1.
          1   -1    0    0  501    0  0.00000000000E+00 -0.00000000000E+00 -0.94200905657E+03  0.94200905657E+03  0.00000000000E+00 0. -1.
         23    2    1    2    0    0 -0.14018897177E+03 -0.77390237550E+03  0.62641272246E+03  0.10099300607E+04  0.94805031910E+02 0.  0.
         11    1    3    3    0    0 -0.14592461030E+03 -0.61552933297E+03  0.52192687286E+03  0.82010853687E+03  0.00000000000E+00 0. -1.
        -11    1    3    3    0    0  0.57356385286E+01 -0.15837304252E+03  0.10448584961E+03  0.18982152385E+03  0.00000000000E+00 0.  1.
         22    1    1    2    0    0  0.14018897177E+03  0.77390237550E+03 -0.54412659032E+03  0.95637418456E+03  0.00000000000E+00 0.  1.
<mgrwt>
<rscale>  0 0.19645817E+04</rscale>
<asrwt>0</asrwt>
<pdfrwt beam="1">  1        1 0.14492447E+00 0.19645817E+04</pdfrwt>
<pdfrwt beam="2">  1       -1 0.15758387E+00 0.19645817E+04</pdfrwt>
<totfact> 0.47722169E+00</totfact>
</mgrwt>
</event>
<event>
 6    1  0.1001928E-005  0.8909933E+03  0.7818608E-02  0.9436911E-01
         -1   -1    0    0    0  501 -0.00000000000E+00  0.00000000000E+00  0.21810059278E+03  0.21810059278E+03  0.00000000000E+00 0.  1.
          1   -1    0    0  501    0  0.00000000000E+00 -0.00000000000E+00 -0.90998036230E+03  0.90998036230E+03  0.00000000000E+00 0. -1.
         23    2    1    2    0    0 -0.41587163224E+03  0.43347170527E+02 -0.17266867840E+03  0.46144136067E+03  0.91024530429E+02 0.  0.
         11    1    3    3    0    0 -0.11756392987E+03 -0.23535639274E+02 -0.70601843560E+02  0.13913958544E+03  0.00000000000E+00 0. -1.
        -11    1    3    3    0    0 -0.29830770238E+03  0.66882809802E+02 -0.10206683484E+03  0.32230177524E+03  0.00000000000E+00 0.  1.
         22    1    1    2    0    0  0.41587163224E+03 -0.43347170527E+02 -0.51921109111E+03  0.66663959440E+03  0.00000000000E+00 0.  1.
<mgrwt>
<rscale>  0 0.89099328E+03</rscale>
<asrwt>0</asrwt>
<pdfrwt beam="1">  1        1 0.13999698E+00 0.89099328E+03</pdfrwt>
<pdfrwt beam="2">  1       -1 0.33553938E-01 0.89099328E+03</pdfrwt>
<totfact> 0.15043735E+02</totfact>
</mgrwt>
</event>
<event>
 6    1  0.1001928E-005  0.1269150E+04  0.7818608E-02  0.9054394E-01
          2   -1    0    0  501    0  0.00000000000E+00  0.00000000000E+00  0.23830066329E+04  0.23830066329E+04  0.00000000000E+00 0. -1.
         -2   -1    0    0    0  501 -0.00000000000E+00 -0.00000000000E+00 -0.16898195958E+03  0.16898195958E+03  0.00000000000E+00 0.  1.
         23    2    1    2    0    0 -0.18761224485E+03 -0.59224674164E+03  0.13390392808E+04  0.14788837539E+04  0.90091091037E+02 0.  0.
         13    1    3    3    0    0 -0.99137670055E+02 -0.29237227104E+03  0.56026646465E+03  0.63969393769E+03  0.00000000000E+00 0.  1.
        -13    1    3    3    0    0 -0.88474574791E+02 -0.29987447060E+03  0.77877281614E+03  0.83918981623E+03  0.00000000000E+00 0. -1.
         22    1    1    2    0    0  0.18761224485E+03  0.59224674164E+03  0.87498539252E+03  0.10731048386E+04  0.00000000000E+00 0.  1.
<mgrwt>
<rscale>  0 0.12691495E+04</rscale>
<asrwt>0</asrwt>
<pdfrwt beam="1">  1        2 0.36661638E+00 0.12691495E+04</pdfrwt>
<pdfrwt beam="2">  1       -2 0.25997226E-01 0.12691495E+04</pdfrwt>
<totfact> 0.53562153E+01</totfact>
</mgrwt>
</event>
<event>
 6    1  0.1001928E-005  0.1881924E+04  0.7818608E-02  0.8663907E-01
         -2   -1    0    0    0  501 -0.00000000000E+00  0.00000000000E+00  0.21918418850E+04  0.21918418850E+04  0.00000000000E+00 0. -1.
          2   -1    0    0  501    0  0.00000000000E+00 -0.00000000000E+00 -0.40395667117E+03  0.40395667117E+03  0.00000000000E+00 0.  1.
         23    2    1    2    0    0  0.44098243318E+03  0.39277223104E+03 -0.10967780631E+03  0.60846845091E+03  0.97309314573E+02 0.  0.
         13    1    3    3    0    0  0.37278319472E+03  0.37016754559E+03 -0.83195578652E+02  0.53189550326E+03  0.00000000000E+00 0.  1.
        -13    1    3    3    0    0  0.68199238458E+02  0.22604685451E+02 -0.26482227655E+02  0.76572947653E+02  0.00000000000E+00 0. -1.
         22    1    1    2    0    0 -0.44098243318E+03 -0.39277223104E+03  0.18975630201E+04  0.19873301052E+04  0.00000000000E+00 0. -1.
<mgrwt>
<rscale>  0 0.18819236E+04</rscale>
<asrwt>0</asrwt>
<pdfrwt beam="1">  1        2 0.62147182E-01 0.18819236E+04</pdfrwt>
<pdfrwt beam="2">  1       -2 0.33720644E+00 0.18819236E+04</pdfrwt>
<totfact> 0.13843892E+00</totfact>
</mgrwt>
</event>
<event>
 6    1  0.1001928E-005  0.1476475E+04  0.7818608E-02  0.8900249E-01
          1   -1    0    0  501    0  0.00000000000E+00  0.00000000000E+00  0.93466202657E+03  0.93466202657E+03  0.00000000000E+00 0. -1.
         -1   -1    0    0    0  501 -0.00000000000E+00 -0.00000000000E+00 -0.58309265898E+03  0.58309265898E+03  0.00000000000E+00 0.  1.
         23    2    1    2    0    0  0.36215203007E+03  0.63207540978E+01  0.83437212073E+03  0.91418816622E+03  0.91482908731E+02 0.  0.
         13    1    3    3    0    0  0.22166408637E+03  0.22207928165E+01  0.61421582519E+03  0.65299385833E+03  0.00000000000E+00 0. -1.
        -13    1    3    3    0    0  0.14048794370E+03  0.40999612814E+01  0.22015629555E+03  0.26119430789E+03  0.00000000000E+00 0.  1.
         22    1    1    2    0    0 -0.36215203007E+03 -0.63207540978E+01 -0.48280275314E+03  0.60356651933E+03  0.00000000000E+00 0.  1.
<mgrwt>
<rscale>  0 0.14764749E+04</rscale>
<asrwt>0</asrwt>
<pdfrwt beam="1">  1        1 0.14379416E+00 0.14764749E+04</pdfrwt>
<pdfrwt beam="2">  1       -1 0.89706563E-01 0.14764749E+04</pdfrwt>
<totfact> 0.20113682E+01</totfact>
</mgrwt>
</event>
<event>
 6    1  0.1314353E-005  0.3084543E+04  0.7818608E-02  0.8219993E-01
          1   -1    0    0  501    0  0.00000000000E+00  0.00000000000E+00  0.15013560489E+04  0.15013560489E+04  0.00000000000E+00 0. -1.
         -1   -1    0    0    0  501 -0.00000000000E+00 -0.00000000000E+00 -0.15843019980E+04  0.15843019980E+04  0.00000000000E+00 0.  1.
         23    2    1    2    0    0 -0.33442263827E+03  0.37456580541E+03 -0.14977551063E+04  0.15843842562E+04  0.12192239129E+03 0.  0.
         13    1    3    3    0    0 -0.85743878326E+02  0.18446451752E+03 -0.61596029007E+03  0.64868039113E+03  0.00000000000E+00 0. -1.
        -13    1    3    3    0    0 -0.24867875995E+03  0.19010128789E+03 -0.88179481619E+03  0.93570386510E+03  0.00000000000E+00 0.  1.
         22    1    1    2    0    0  0.33442263827E+03 -0.37456580541E+03  0.14148091571E+04  0.15012737907E+04  0.00000000000E+00 0. -1.
<mgrwt>
<rscale>  0 0.30845430E+04</rscale>
<asrwt>0</asrwt>
<pdfrwt beam="1">  1        1 0.23097785E+00 0.30845430E+04</pdfrwt>
<pdfrwt beam="2">  1       -1 0.24373877E+00 0.30845430E+04</pdfrwt>
<totfact> 0.42258216E-01</totfact>
</mgrwt>
</event>
<event>
 6    1  0.1001928E-005  0.5030535E+04  0.7818608E-02  0.7823814E-01
          2   -1    0    0  501    0  0.00000000000E+00  0.00000000000E+00  0.27940294293E+04  0.27940294293E+04  0.00000000000E+00 0. -1.
         -2   -1    0    0    0  501 -0.00000000000E+00 -0.00000000000E+00 -0.22643175238E+04  0.22643175238E+04  0.00000000000E+00 0.  1.
         23    2    1    2    0    0 -0.18016668824E+04 -0.17219534625E+04  0.60052315564E+03  0.25651278462E+04  0.90141691851E+02 0.  0.
         11    1    3    3    0    0 -0.15962932703E+04 -0.15188058842E+04  0.55989083730E+03  0.22734118123E+04  0.00000000000E+00 0. -1.
        -11    1    3    3    0    0 -0.20537361206E+03 -0.20314757832E+03  0.40632318334E+02  0.29171603384E+03  0.00000000000E+00 0.  1.
         22    1    1    2    0    0  0.18016668824E+04  0.17219534625E+04 -0.70811250174E+02  0.24932191070E+04  0.00000000000E+00 0.  1.
<mgrwt>
<rscale>  0 0.50305347E+04</rscale>
<asrwt>0</asrwt>
<pdfrwt beam="1">  1        2 0.42985068E+00 0.50305347E+04</pdfrwt>
<pdfrwt beam="2">  1       -2 0.34835654E+00 0.50305347E+04</pdfrwt>
<totfact> 0.26980663E-02</totfact>
</mgrwt>
</event>
<event>
 6    1  0.1001928E-005  0.7838402E+03  0.7818608E-02  0.9583707E-01
         -2   -1    0    0    0  501 -0.00000000000E+00  0.00000000000E+00  0.60634800526E+02  0.60634800526E+02  0.00000000000E+00 0.  1.
          2   -1    0    0  501    0  0.00000000000E+00 -0.00000000000E+00 -0.25332209351E+04  0.25332209351E+04  0.00000000000E+00 0. -1.
         23    2    1    2    0    0  0.42919608731E+02  0.20154596442E+03 -0.23355500715E+04  0.23463850279E+04  0.90915864161E+02 0.  0.
         11    1    3    3    0    0 -0.11918303233E+02  0.51941897619E+02 -0.99003975171E+03  0.99147300349E+03  0.00000000000E+00 0. -1.
        -11    1    3    3    0    0  0.54837911965E+02  0.14960406680E+03 -0.13455103198E+04  0.13549120244E+04  0.00000000000E+00 0.  1.
         22    1    1    2    0    0 -0.42919608731E+02 -0.20154596442E+03 -0.13703606315E+03  0.24747070774E+03  0.00000000000E+00 0.  1.
<mgrwt>
<rscale>  0 0.78384015E+03</rscale>
<asrwt>0</asrwt>
<pdfrwt beam="1">  1        2 0.38972635E+00 0.78384015E+03</pdfrwt>
<pdfrwt beam="2">  1       -2 0.93284295E-02 0.78384015E+03</pdfrwt>
<totfact> 0.26498789E+02</totfact>
</mgrwt>
</event>
<event>
 6    1  0.1001928E-005  0.4941532E+04  0.7818608E-02  0.7837590E-01
         -2   -1    0    0    0  501 -0.00000000000E+00  0.00000000000E+00  0.14586096016E+04  0.14586096016E+04  0.00000000000E+00 0. -1.
          2   -1    0    0  501    0  0.00000000000E+00 -0.00000000000E+00 -0.41852772893E+04  0.41852772893E+04  0.00000000000E+00 0.  1.
         23    2    1    2    0    0 -0.73106051376E+03 -0.13128667847E+04  0.87503810082E+03  0.17412783714E+04  0.91049544475E+02 0.  0.
         13    1    3    3    0    0 -0.31458820814E+03 -0.61132699677E+03  0.35476237300E+03  0.77365546529E+03  0.00000000000E+00 0.  1.
        -13    1    3    3    0    0 -0.41647230562E+03 -0.70153978793E+03  0.52027572782E+03  0.96762290607E+03  0.00000000000E+00 0. -1.
         22    1    1    2    0    0  0.73106051376E+03  0.13128667847E+04 -0.36017057885E+04  0.39026085195E+04  0.00000000000E+00 0.  1.
<mgrwt>
<rscale>  0 0.49415324E+04</rscale>
<asrwt>0</asrwt>
<pdfrwt beam="1">  1        2 0.64388882E+00 0.49415324E+04</pdfrwt>
<pdfrwt beam="2">  1       -2 0.22440148E+00 0.49415324E+04</pdfrwt>
<totfact> 0.16137296E-02</totfact>
</mgrwt>
</event>
<event>
 6    1  0.1001928E-005  0.2708135E+04  0.7818608E-02  0.8332370E-01
          2   -1    0    0  501    0  0.00000000000E+00  0.00000000000E+00  0.35629568375E+04  0.35629568375E+04  0.00000000000E+00 0. -1.
         -2   -1    0    0    0  501 -0.00000000000E+00 -0.00000000000E+00 -0.51460045306E+03  0.51460045306E+03  0.00000000000E+00 0.  1.
         23    2    1    2    0    0 -0.83454301285E+03 -0.89451220335E+03  0.65702328684E+03  0.13914656864E+04  0.88786455797E+02 0.  0.
         11    1    3    3    0    0 -0.33122943015E+03 -0.38985256688E+03  0.23299557857E+03  0.56212534094E+03  0.00000000000E+00 0.  1.
        -11    1    3    3    0    0 -0.50331358270E+03 -0.50465963647E+03  0.42402770827E+03  0.82934034545E+03  0.00000000000E+00 0. -1.
         22    1    1    2    0    0  0.83454301285E+03  0.89451220335E+03  0.23913330976E+04  0.26860916042E+04  0.00000000000E+00 0. -1.
<mgrwt>
<rscale>  0 0.27081353E+04</rscale>
<asrwt>0</asrwt>
<pdfrwt beam="1">  1        2 0.54814719E+00 0.27081353E+04</pdfrwt>
<pdfrwt beam="2">  1       -2 0.79169303E-01 0.27081353E+04</pdfrwt>
<totfact> 0.91072351E-01</totfact>
</mgrwt>
</event>
<event>
 6    1  0.1001928E-005  0.1737791E+04  0.7818608E-02  0.8740100E-01
         -2   -1    0    0    0  501 -0.00000000000E+00  0.00000000000E+00  0.26421414447E+03  0.26421414447E+03  0.00000000000E+00 0.  1.
          2   -1    0    0  501    0  0.00000000000E+00 -0.00000000000E+00 -0.28574512082E+04  0.28574512082E+04  0.00000000000E+00 0. -1.
         23    2    1    2    0    0  0.35232663742E+03 -0.56640293286E+03 -0.30648223565E+03  0.73960868132E+03  0.90240228926E+02 0.  0.
         13    1    3    3    0    0  0.99405020753E+02 -0.18043506001E+03 -0.51302022534E+02  0.21229711856E+03  0.00000000000E+00 0.  1.
        -13    1    3    3    0    0  0.25292161667E+03 -0.38596787285E+03 -0.25518021312E+03  0.52731156276E+03  0.00000000000E+00 0. -1.
         22    1    1    2    0    0 -0.35232663742E+03  0.56640293286E+03 -0.22867548281E+04  0.23820566714E+04  0.00000000000E+00 0. -1.
<mgrwt>
<rscale>  0 0.17377906E+04</rscale>
<asrwt>0</asrwt>
<pdfrwt beam="1">  1        2 0.43960788E+00 0.17377906E+04</pdfrwt>
<pdfrwt beam="2">  1       -2 0.40648330E-01 0.17377906E+04</pdfrwt>
<totfact> 0.11639418E+01</totfact>
</mgrwt>
</event>
<event>
 6    1  0.1001928E-005  0.9882139E+03  0.7818608E-02  0.9321567E-01
         -1   -1    0    0    0  501 -0.00000000000E+00  0.00000000000E+00  0.42342233682E+03  0.42342233682E+03  0.00000000000E+00 0.  1.
          1   -1    0    0  501    0  0.00000000000E+00 -0.00000000000E+00 -0.57659144061E+03  0.57659144061E+03  0.00000000000E+00 0. -1.
         23    2    1    2    0    0 -0.46771208338E+02 -0.44637674809E+03  0.12154875238E+03  0.47379172575E+03  0.90910687024E+02 0.  0.
         11    1    3    3    0    0  0.99063662508E+00 -0.32044639735E+03  0.61353655504E+02  0.32626851822E+03  0.00000000000E+00 0.  1.
        -11    1    3    3    0    0 -0.47761844963E+02 -0.12593035074E+03  0.60195096879E+02  0.14752320753E+03  0.00000000000E+00 0. -1.
         22    1    1    2    0    0  0.46771208338E+02  0.44637674809E+03 -0.27471785617E+03  0.52622205168E+03  0.00000000000E+00 0. -1.
<mgrwt>
<rscale>  0 0.98821393E+03</rscale>
<asrwt>0</asrwt>
<pdfrwt beam="1">  1        1 0.88706376E-01 0.98821393E+03</pdfrwt>
<pdfrwt beam="2">  1       -1 0.65141898E-01 0.98821393E+03</pdfrwt>
<totfact> 0.86965863E+01</totfact>
</mgrwt>
</event>
<event>
 6    1  0.1001928E-005  0.9266435E+03  0.7818608E-02  0.9392875E-01
         -2   -1    0    0    0  501 -0.00000000000E+00  0.00000000000E+00  0.23007640490E+03  0.23007640490E+03  0.00000000000E+00 0.  1.
          2   -1    0    0  501    0  0.00000000000E+00 -0.00000000000E+00 -0.93302500742E+03  0.93302500742E+03  0.00000000000E+00 0. -1.
         23    2    1    2    0    0 -0.22251426187E+03 -0.10331645089E+03 -0.84105470897E+03  0.88156956262E+03  0.98005022882E+02 0.  0.
         11    1    3    3    0    0 -0.12412302787E+03 -0.49646438958E+02 -0.61369109567E+03  0.62808284156E+03  0.00000000000E+00 0. -1.
        -11    1    3    3    0    0 -0.98391233991E+02 -0.53670011927E+02 -0.22736361330E+03  0.25348672107E+03  0.00000000000E+00 0.  1.
         22    1    1    2    0    0  0.22251426187E+03  0.10331645089E+03  0.13810610645E+03  0.28153184970E+03  0.00000000000E+00 0.  1.
<mgrwt>
<rscale>  0 0.92664349E+03</rscale>
<asrwt>0</asrwt>
<pdfrwt beam="1">  1        2 0.14354231E+00 0.92664349E+03</pdfrwt>
<pdfrwt beam="2">  1       -2 0.35396371E-01 0.92664349E+03</pdfrwt>
<totfact> 0.20900106E+02</totfact>
</mgrwt>
</event>
<event>
 6    1  0.1001928E-005  0.2562710E+04  0.7818608E-02  0.8380979E-01
          1   -1    0    0  501    0  0.00000000000E+00  0.00000000000E+00  0.13786524353E+04  0.13786524353E+04  0.00000000000E+00 0. -1.
         -1   -1    0    0    0  501 -0.00000000000E+00 -0.00000000000E+00 -0.11909246137E+04  0.11909246137E+04  0.00000000000E+00 0.  1.
         23    2    1    2    0    0 -0.26223628301E+03  0.11005755214E+02 -0.11618760923E+04  0.11946880647E+04  0.91839661171E+02 0.  0.
         11    1    3    3    0    0 -0.36841554661E+02  0.31821109944E+02 -0.28151603604E+03  0.28569417519E+03  0.00000000000E+00 0. -1.
        -11    1    3    3    0    0 -0.22539472835E+03 -0.20815354730E+02 -0.88036005623E+03  0.90899388951E+03  0.00000000000E+00 0.  1.
         22    1    1    2    0    0  0.26223628301E+03 -0.11005755214E+02  0.13496039138E+04  0.13748889843E+04  0.00000000000E+00 0. -1.
<mgrwt>
<rscale>  0 0.25627104E+04</rscale>
<asrwt>0</asrwt>
<pdfrwt beam="1">  1        1 0.21210038E+00 0.25627104E+04</pdfrwt>
<pdfrwt beam="2">  1       -1 0.18321917E+00 0.25627104E+04</pdfrwt>
<totfact> 0.13869916E+00</totfact>
</mgrwt>
</event>
<event>
 6    1  0.1001928E-005  0.2228455E+03  0.7818608E-02  0.1131779E+00
         -1   -1    0    0    0  501 -0.00000000000E+00  0.00000000000E+00  0.86281839617E+02  0.86281839617E+02  0.00000000000E+00 0.  1.
          1   -1    0    0  501    0  0.00000000000E+00 -0.00000000000E+00 -0.14388925487E+03  0.14388925487E+03  0.00000000000E+00 0. -1.
         23    2    1    2    0    0  0.10106355296E+02 -0.10923599018E+02 -0.12819387711E+03  0.15803294901E+03  0.91210083935E+02 0.  0.
         13    1    3    3    0    0 -0.31422664341E+02 -0.10165774278E+02 -0.12849389468E+02  0.35437742742E+02  0.00000000000E+00 0.  1.
        -13    1    3    3    0    0  0.41529019637E+02 -0.75782473926E+00 -0.11534448765E+03  0.12259520627E+03  0.00000000000E+00 0. -1.
         22    1    1    2    0    0 -0.10106355296E+02  0.10923599018E+02  0.70586461866E+02  0.72138145468E+02  0.00000000000E+00 0.  1.
<mgrwt>
<rscale>  0 0.22284550E+03</rscale>
<asrwt>0</asrwt>
<pdfrwt beam="1">  1        1 0.22136808E-01 0.22284550E+03</pdfrwt>
<pdfrwt beam="2">  1       -1 0.13274129E-01 0.22284550E+03</pdfrwt>
<totfact> 0.85460756E+03</totfact>
</mgrwt>
</event>
<event>
 6    1  0.1001928E-005  0.1733532E+04  0.7818608E-02  0.8742467E-01
          2   -1    0    0  501    0  0.00000000000E+00  0.00000000000E+00  0.89292977151E+03  0.89292977151E+03  0.00000000000E+00 0. -1.
         -2   -1    0    0    0  501 -0.00000000000E+00 -0.00000000000E+00 -0.84136913833E+03  0.84136913833E+03  0.00000000000E+00 0.  1.
         23    2    1    2    0    0  0.70034670818E+03  0.49989037975E+03 -0.46514902112E+02  0.86827655791E+03  0.10660507243E+03 0.  0.
         11    1    3    3    0    0  0.61012319546E+03  0.38717492127E+03 -0.42199334982E+02  0.72383390165E+03  0.00000000000E+00 0.  1.
        -11    1    3    3    0    0  0.90223512714E+02  0.11271545848E+03 -0.43155671303E+01  0.14444265626E+03  0.00000000000E+00 0. -1.
         22    1    1    2    0    0 -0.70034670818E+03 -0.49989037975E+03  0.98075535292E+02  0.86602235193E+03  0.00000000000E+00 0. -1.
<mgrwt>
<rscale>  0 0.17335323E+04</rscale>
<asrwt>0</asrwt>
<pdfrwt beam="1">  1        2 0.13737381E+00 0.17335323E+04</pdfrwt>
<pdfrwt beam="2">  1       -2 0.12944141E+00 0.17335323E+04</pdfrwt>
<totfact> 0.12352895E+01</totfact>
</mgrwt>
</event>
<event>
 6    1  0.1001928E-005  0.2039066E+04  0.7818608E-02  0.8588571E-01
          3   -1    0    0  501    0  0.00000000000E+00  0.00000000000E+00  0.17143680302E+04  0.17143680302E+04  0.00000000000E+00 0. -1.
         -3   -1    0    0    0  501 -0.00000000000E+00 -0.00000000000E+00 -0.60631515693E+03  0.60631515693E+03  0.00000000000E+00 0.  1.
         23    2    1    2    0    0  0.44206982986E+03  0.57986281562E+03 -0.25237880564E+03  0.77716740412E+03  0.92884299372E+02 0.  0.
         13    1    3    3    0    0  0.14120577596E+03  0.25917115759E+03 -0.10969242375E+03  0.31486693685E+03  0.00000000000E+00 0. -1.
        -13    1    3    3    0    0  0.30086405390E+03  0.32069165804E+03 -0.14268638189E+03  0.46230046727E+03  0.00000000000E+00 0.  1.
         22    1    1    2    0    0 -0.44206982986E+03 -0.57986281562E+03  0.13604316789E+04  0.15435157830E+04  0.00000000000E+00 0. -1.
<mgrwt>
<rscale>  0 0.20390658E+04</rscale>
<asrwt>0</asrwt>
<pdfrwt beam="1">  1        3 0.26374893E+00 0.20390658E+04</pdfrwt>
<pdfrwt beam="2">  1       -3 0.93279256E-01 0.20390658E+04</pdfrwt>
<totfact> 0.15327950E-01</totfact>
</mgrwt>
</event>
<event>
 6    1  0.1001928E-005  0.3492143E+04  0.7818608E-02  0.8115654E-01
         -2   -1    0    0    0  501 -0.00000000000E+00  0.00000000000E+00  0.18683404876E+04  0.18683404876E+04  0.00000000000E+00 0.  1.
          2   -1    0    0  501    0  0.00000000000E+00 -0.00000000000E+00 -0.16318044467E+04  0.16318044467E+04  0.00000000000E+00 0. -1.
         23    2    1    2    0    0  0.16140184653E+04  0.32467379362E+03 -0.46114687261E+03  0.17120649232E+04  0.89672652115E+02 0.  0.
         13    1    3    3    0    0  0.11584615635E+04  0.20099919160E+03 -0.35554399532E+03  0.12283506835E+04  0.00000000000E+00 0.  1.
        -13    1    3    3    0    0  0.45555690182E+03  0.12367460202E+03 -0.10560287729E+03  0.48371423969E+03  0.00000000000E+00 0. -1.
         22    1    1    2    0    0 -0.16140184653E+04 -0.32467379362E+03  0.69768291352E+03  0.17880800112E+04  0.00000000000E+00 0.  1.
<mgrwt>
<rscale>  0 0.34921434E+04</rscale>
<asrwt>0</asrwt>
<pdfrwt beam="1">  1        2 0.25104684E+00 0.34921434E+04</pdfrwt>
<pdfrwt beam="2">  1       -2 0.28743700E+00 0.34921434E+04</pdfrwt>
<totfact> 0.33385503E-01</totfact>
</mgrwt>
</event>
<event>
 6    1  0.1001928E-005  0.2103207E+04  0.7818608E-02  0.8559832E-01
          1   -1    0    0  501    0  0.00000000000E+00  0.00000000000E+00  0.16184491658E+04  0.16184491658E+04  0.00000000000E+00 0. -1.
         -1   -1    0    0    0  501 -0.00000000000E+00 -0.00000000000E+00 -0.68328974230E+03  0.68328974230E+03  0.00000000000E+00 0.  1.
         23    2    1    2    0    0 -0.13225463767E+03 -0.64673658885E+03 -0.42456535419E+03  0.79024594564E+03  0.92051127544E+02 0.  0.
         11    1    3    3    0    0 -0.20878103084E+02 -0.31926635078E+03 -0.22169244882E+03  0.38924855786E+03  0.00000000000E+00 0. -1.
        -11    1    3    3    0    0 -0.11137653458E+03 -0.32747023807E+03 -0.20287290536E+03  0.40099738778E+03  0.00000000000E+00 0.  1.
         22    1    1    2    0    0  0.13225463767E+03  0.64673658885E+03  0.13597247777E+04  0.15114929625E+04  0.00000000000E+00 0. -1.
<mgrwt>
<rscale>  0 0.21032068E+04</rscale>
<asrwt>0</asrwt>
<pdfrwt beam="1">  1        1 0.24899218E+00 0.21032068E+04</pdfrwt>
<pdfrwt beam="2">  1       -1 0.10512150E+00 0.21032068E+04</pdfrwt>
<totfact> 0.42305602E+00</totfact>
</mgrwt>
</event>
<event>
 6    1  0.1001928E-005  0.1809380E+04  0.7818608E-02  0.8701327E-01
          2   -1    0    0  501    0  0.00000000000E+00  0.00000000000E+00  0.17022576718E+04  0.17022576718E+04  0.00000000000E+00 0. -1.
         -2   -1    0    0    0  501 -0.00000000000E+00 -0.00000000000E+00 -0.48081108458E+03  0.48081108458E+03  0.00000000000E+00 0.  1.
         23    2    1    2    0    0  0.73501700866E+03 -0.15831219641E+03  0.12144051935E+04  0.14311629539E+04  0.90192417329E+02 0.  0.
         11    1    3    3    0    0  0.10631378861E+03 -0.41090232278E+02  0.23906074010E+03  0.26484158717E+03  0.00000000000E+00 0.  1.
        -11    1    3    3    0    0  0.62870322005E+03 -0.11722196413E+03  0.97534445338E+03  0.11663213667E+04  0.00000000000E+00 0. -1.
         22    1    1    2    0    0 -0.73501700866E+03  0.15831219641E+03  0.70413937408E+01  0.75190580246E+03  0.00000000000E+00 0.  1.
<mgrwt>
<rscale>  0 0.18093804E+04</rscale>
<asrwt>0</asrwt>
<pdfrwt beam="1">  1        2 0.26188579E+00 0.18093804E+04</pdfrwt>
<pdfrwt beam="2">  1       -2 0.73970937E-01 0.18093804E+04</pdfrwt>
<totfact> 0.15186680E+01</totfact>
</mgrwt>
</event>
<event>
 6    1  0.1001928E-005  0.8139362E+03  0.7818608E-02  0.9540061E-01
          2   -1    0    0  501    0  0.00000000000E+00  0.00000000000E+00  0.19270768646E+03  0.19270768646E+03  0.00000000000E+00 0. -1.
         -2   -1    0    0    0  501 -0.00000000000E+00 -0.00000000000E+00 -0.85945216292E+03  0.85945216292E+03  0.00000000000E+00 0.  1.
         23    2    1    2    0    0  0.48011397918E+02  0.30406701208E+03 -0.22772120287E+01  0.31984940451E+03  0.86813672337E+02 0.  0.
         11    1    3    3    0    0  0.15403063206E+02  0.21372614432E+03 -0.37522663796E+02  0.21754096033E+03  0.00000000000E+00 0. -1.
        -11    1    3    3    0    0  0.32608334712E+02  0.90340867753E+02  0.35245451767E+02  0.10230844417E+03  0.00000000000E+00 0.  1.
         22    1    1    2    0    0 -0.48011397918E+02 -0.30406701208E+03 -0.66446726443E+03  0.73231044487E+03  0.00000000000E+00 0.  1.
<mgrwt>
<rscale>  0 0.81393621E+03</rscale>
<asrwt>0</asrwt>
<pdfrwt beam="1">  1        2 0.29647336E-01 0.81393621E+03</pdfrwt>
<pdfrwt beam="2">  1       -2 0.13222341E+00 0.81393621E+03</pdfrwt>
<totfact> 0.75552971E+01</totfact>
</mgrwt>
</event>
<event>
 6    1  0.1001928E-005  0.1288783E+04  0.7818608E-02  0.9038508E-01
          2   -1    0    0  501    0  0.00000000000E+00  0.00000000000E+00  0.11929483677E+04  0.11929483677E+04  0.00000000000E+00 0. -1.
         -2   -1    0    0    0  501 -0.00000000000E+00 -0.00000000000E+00 -0.34807923051E+03  0.34807923051E+03  0.00000000000E+00 0.  1.
         23    2    1    2    0    0 -0.49398447222E+03 -0.89107194510E+02  0.90177650582E+03  0.10358551529E+04  0.88511470336E+02 0.  0.
         11    1    3    3    0    0 -0.35999035982E+03 -0.32153242871E+02  0.68887400789E+03  0.77792948841E+03  0.00000000000E+00 0.  1.
        -11    1    3    3    0    0 -0.13399411240E+03 -0.56953951639E+02  0.21290249793E+03  0.25792566446E+03  0.00000000000E+00 0. -1.
         22    1    1    2    0    0  0.49398447222E+03  0.89107194510E+02 -0.56907368640E+02  0.50517244532E+03  0.00000000000E+00 0.  1.
<mgrwt>
<rscale>  0 0.12887832E+04</rscale>
<asrwt>0</asrwt>
<pdfrwt beam="1">  1        2 0.18353052E+00 0.12887832E+04</pdfrwt>
<pdfrwt beam="2">  1       -2 0.53550651E-01 0.12887832E+04</pdfrwt>
<totfact> 0.61644342E+01</totfact>
</mgrwt>
</event>
<event>
 6    1  0.1001928E-005  0.1620395E+04  0.7818608E-02  0.8808116E-01
         -1   -1    0    0    0  501 -0.00000000000E+00  0.00000000000E+00  0.12470531860E+04  0.12470531860E+04  0.00000000000E+00 0.  1.
          1   -1    0    0  501    0  0.00000000000E+00 -0.00000000000E+00 -0.52637694446E+03  0.52637694446E+03  0.00000000000E+00 0. -1.
         23    2    1    2    0    0  0.45179259195E+03 -0.30561508156E+03 -0.29037884878E+03  0.62462661381E+03  0.91221744380E+02 0.  0.
         11    1    3    3    0    0  0.27428045072E+03 -0.13074971076E+03 -0.15993358494E+03  0.34337152489E+03  0.00000000000E+00 0.  1.
        -11    1    3    3    0    0  0.17751214123E+03 -0.17486537080E+03 -0.13044526384E+03  0.28125508892E+03  0.00000000000E+00 0. -1.
         22    1    1    2    0    0 -0.45179259195E+03  0.30561508156E+03  0.10110550904E+04  0.11488035167E+04  0.00000000000E+00 0.  1.
<mgrwt>
<rscale>  0 0.16203951E+04</rscale>
<asrwt>0</asrwt>
<pdfrwt beam="1">  1        1 0.80981069E-01 0.16203951E+04</pdfrwt>
<pdfrwt beam="2">  1       -1 0.19185434E+00 0.16203951E+04</pdfrwt>
<totfact> 0.67770503E+00</totfact>
</mgrwt>
</event>
<event>
 6    1  0.1001928E-005  0.4514215E+04  0.7818608E-02  0.7908153E-01
          1   -1    0    0  501    0  0.00000000000E+00  0.00000000000E+00  0.21105129033E+04  0.21105129033E+04  0.00000000000E+00 0.  1.
         -1   -1    0    0    0  501 -0.00000000000E+00 -0.00000000000E+00 -0.24138848209E+04  0.24138848209E+04  0.00000000000E+00 0. -1.
         23    2    1    2    0    0  0.21916226740E+04 -0.47519532622E+02  0.38346865742E+03  0.22271780945E+04  0.88351583303E+02 0.  0.
         13    1    3    3    0    0  0.59196313987E+03  0.32535912180E+01  0.67334172554E+02  0.59578925436E+03  0.00000000000E+00 0.  1.
        -13    1    3    3    0    0  0.15996595342E+04 -0.50773123840E+02  0.31613448486E+03  0.16313888402E+04  0.00000000000E+00 0. -1.
         22    1    1    2    0    0 -0.21916226740E+04  0.47519532622E+02 -0.68684057507E+03  0.22972196297E+04  0.00000000000E+00 0.  1.
<mgrwt>
<rscale>  0 0.45142154E+04</rscale>
<asrwt>0</asrwt>
<pdfrwt beam="1">  1        1 0.32469429E+00 0.45142154E+04</pdfrwt>
<pdfrwt beam="2">  1       -1 0.37136690E+00 0.45142154E+04</pdfrwt>
<totfact> 0.21045829E-02</totfact>
</mgrwt>
</event>
<event>
 6    1  0.1001928E-005  0.2657367E+04  0.7818608E-02  0.8348972E-01
         -2   -1    0    0    0  501 -0.00000000000E+00  0.00000000000E+00  0.15005499640E+04  0.15005499640E+04  0.00000000000E+00 0.  1.
          2   -1    0    0  501    0  0.00000000000E+00 -0.00000000000E+00 -0.11765020627E+04  0.11765020627E+04  0.00000000000E+00 0. -1.
         23    2    1    2    0    0  0.91071334261E+03 -0.40950905813E+03  0.10428675785E+04  0.14466869632E+04  0.90740961056E+02 0.  0.
         13    1    3    3    0    0  0.31543775162E+03 -0.15280875253E+03  0.42800169376E+03  0.55320605552E+03  0.00000000000E+00 0. -1.
        -13    1    3    3    0    0  0.59527559099E+03 -0.25670030559E+03  0.61486588476E+03  0.89348090766E+03  0.00000000000E+00 0.  1.
         22    1    1    2    0    0 -0.91071334261E+03  0.40950905813E+03 -0.71881967723E+03  0.12303650635E+04  0.00000000000E+00 0.  1.
<mgrwt>
<rscale>  0 0.26573672E+04</rscale>
<asrwt>0</asrwt>
<pdfrwt beam="1">  1        2 0.18100032E+00 0.26573672E+04</pdfrwt>
<pdfrwt beam="2">  1       -2 0.23085384E+00 0.26573672E+04</pdfrwt>
<totfact> 0.14547190E+00</totfact>
</mgrwt>
</event>
<event>
 6    1  0.1001928E-005  0.2299529E+04  0.7818608E-02  0.8478107E-01
          2   -1    0    0  501    0  0.00000000000E+00  0.00000000000E+00  0.44864694958E+04  0.44864694958E+04  0.00000000000E+00 0. -1.
         -2   -1    0    0    0  501 -0.00000000000E+00 -0.00000000000E+00 -0.29465458785E+03  0.29465458785E+03  0.00000000000E+00 0.  1.
         23    2    1    2    0    0 -0.71676871924E+03 -0.50434415951E+03  0.36407054191E+04  0.37458260122E+04  0.91411906971E+02 0.  0.
         11    1    3    3    0    0 -0.44907993428E+03 -0.35420027915E+03  0.22373238967E+04  0.23092745276E+04  0.00000000000E+00 0. -1.
        -11    1    3    3    0    0 -0.26768878495E+03 -0.15014388036E+03  0.14033815223E+04  0.14365514845E+04  0.00000000000E+00 0.  1.
         22    1    1    2    0    0  0.71676871924E+03  0.50434415951E+03  0.55110948886E+03  0.10352980715E+04  0.00000000000E+00 0.  1.
<mgrwt>
<rscale>  0 0.22995294E+04</rscale>
<asrwt>0</asrwt>
<pdfrwt beam="1">  1        2 0.69022603E+00 0.22995294E+04</pdfrwt>
<pdfrwt beam="2">  1       -2 0.45331478E-01 0.22995294E+04</pdfrwt>
<totfact> 0.53590056E-01</totfact>
</mgrwt>
</event>
<event>
 6    1  0.1001928E-005  0.1935428E+04  0.7818608E-02  0.8637420E-01
         -1   -1    0    0    0  501 -0.00000000000E+00  0.00000000000E+00  0.47570316864E+03  0.47570316864E+03  0.00000000000E+00 0.  1.
          1   -1    0    0  501    0  0.00000000000E+00 -0.00000000000E+00 -0.19686019186E+04  0.19686019186E+04  0.00000000000E+00 0. -1.
         23    2    1    2    0    0 -0.54247441909E+03 -0.57422616041E+03 -0.48195153837E+02  0.79773815592E+03  0.10024576744E+03 0.  0.
         11    1    3    3    0    0 -0.48379548115E+03 -0.47978140260E+03 -0.14338075759E+02  0.68150850492E+03  0.00000000000E+00 0.  1.
        -11    1    3    3    0    0 -0.58678937940E+02 -0.94444757805E+02 -0.33857078079E+02  0.11622965100E+03  0.00000000000E+00 0. -1.
         22    1    1    2    0    0  0.54247441909E+03  0.57422616041E+03 -0.14447035961E+04  0.16465669313E+04  0.00000000000E+00 0. -1.
<mgrwt>
<rscale>  0 0.19354278E+04</rscale>
<asrwt>0</asrwt>
<pdfrwt beam="1">  1        1 0.30286183E+00 0.19354278E+04</pdfrwt>
<pdfrwt beam="2">  1       -1 0.73185103E-01 0.19354278E+04</pdfrwt>
<totfact> 0.54935947E+00</totfact>
</mgrwt>
</event>
<event>
 6    1  0.1001928E-005  0.6387631E+04  0.7818608E-02  0.7644114E-01
          2   -1    0    0  501    0  0.00000000000E+00  0.00000000000E+00  0.54837835447E+04  0.54837835447E+04  0.00000000000E+00 0. -1.
         -2   -1    0    0    0  501 -0.00000000000E+00 -0.00000000000E+00 -0.18601132372E+04  0.18601132372E+04  0.00000000000E+00 0.  1.
         23    2    1    2    0    0  0.22974330006E+04 -0.81154612715E+03 -0.56038264461E+03  0.25020887915E+04  0.98051535772E+02 0.  0.
         11    1    3    3    0    0  0.16107523769E+04 -0.52159832090E+03 -0.38229975058E+03  0.17357249573E+04  0.00000000000E+00 0.  1.
        -11    1    3    3    0    0  0.68668062368E+03 -0.28994780626E+03 -0.17808289404E+03  0.76636383425E+03  0.00000000000E+00 0. -1.
         22    1    1    2    0    0 -0.22974330006E+04  0.81154612715E+03  0.41840529521E+04  0.48418079903E+04  0.00000000000E+00 0. -1.
<mgrwt>
<rscale>  0 0.63876313E+04</rscale>
<asrwt>0</asrwt>
<pdfrwt beam="1">  1        2 0.84365900E+00 0.63876313E+04</pdfrwt>
<pdfrwt beam="2">  1       -2 0.28617127E+00 0.63876313E+04</pdfrwt>
<totfact> 0.15555117E-04</totfact>
</mgrwt>
</event>
<event>
 6    1  0.1001928E-005  0.4766252E+04  0.7818608E-02  0.7865613E-01
         -2   -1    0    0    0  501 -0.00000000000E+00  0.00000000000E+00  0.17896334007E+04  0.17896334007E+04  0.00000000000E+00 0.  1.
          2   -1    0    0  501    0  0.00000000000E+00 -0.00000000000E+00 -0.31734380236E+04  0.31734380236E+04  0.00000000000E+00 0. -1.
         23    2    1    2    0    0  0.21036970982E+04 -0.24453831699E+02 -0.18558442054E+04  0.28069265223E+04  0.92408418459E+02 0.  0.
         11    1    3    3    0    0  0.10305072822E+04 -0.44055285096E+01 -0.96979415050E+03  0.14150849309E+04  0.00000000000E+00 0.  1.
        -11    1    3    3    0    0  0.10731898160E+04 -0.20048303189E+02 -0.88605005493E+03  0.13918415914E+04  0.00000000000E+00 0. -1.
         22    1    1    2    0    0 -0.21036970982E+04  0.24453831699E+02  0.47203958244E+03  0.21561449020E+04  0.00000000000E+00 0.  1.
<mgrwt>
<rscale>  0 0.47662525E+04</rscale>
<asrwt>0</asrwt>
<pdfrwt beam="1">  1        2 0.48822124E+00 0.47662525E+04</pdfrwt>
<pdfrwt beam="2">  1       -2 0.27532821E+00 0.47662525E+04</pdfrwt>
<totfact> 0.44965698E-02</totfact>
</mgrwt>
</event>
<event>
 6    1  0.1001928E-005  0.2158869E+04  0.7818608E-02  0.8535746E-01
          1   -1    0    0  501    0  0.00000000000E+00  0.00000000000E+00  0.15142431482E+04  0.15142431482E+04  0.00000000000E+00 0. -1.
         -1   -1    0    0    0  501 -0.00000000000E+00 -0.00000000000E+00 -0.76947901152E+03  0.76947901152E+03  0.00000000000E+00 0.  1.
         23    2    1    2    0    0 -0.69788435582E+03  0.76377082819E+03  0.54670586620E+02  0.10400913624E+04  0.91720865203E+02 0.  0.
         11    1    3    3    0    0 -0.28232755930E+03  0.24504068515E+03  0.10910573345E+02  0.37399576031E+03  0.00000000000E+00 0.  1.
        -11    1    3    3    0    0 -0.41555679652E+03  0.51873014304E+03  0.43760013275E+02  0.66609560214E+03  0.00000000000E+00 0. -1.
         22    1    1    2    0    0  0.69788435582E+03 -0.76377082819E+03  0.69009355005E+03  0.12436307973E+04  0.00000000000E+00 0. -1.
<mgrwt>
<rscale>  0 0.21588685E+04</rscale>
<asrwt>0</asrwt>
<pdfrwt beam="1">  1        1 0.23296048E+00 0.21588685E+04</pdfrwt>
<pdfrwt beam="2">  1       -1 0.11838139E+00 0.21588685E+04</pdfrwt>
<totfact> 0.37446437E+00</totfact>
</mgrwt>
</event>
<event>
 6    1  0.1001928E-005  0.1015113E+04  0.7818608E-02  0.9292123E-01
          1   -1    0    0  501    0  0.00000000000E+00  0.00000000000E+00  0.10358611865E+04  0.10358611865E+04  0.00000000000E+00 0. -1.
         -1   -1    0    0    0  501 -0.00000000000E+00 -0.00000000000E+00 -0.24869486426E+03  0.24869486426E+03  0.00000000000E+00 0.  1.
         23    2    1    2    0    0 -0.58706143037E+02 -0.13025272415E+02  0.10292822934E+04  0.10350841837E+04  0.91439372166E+02 0.  0.
         13    1    3    3    0    0 -0.77869838073E+02  0.10780763601E+02  0.70759341750E+03  0.71194689481E+03  0.00000000000E+00 0.  1.
        -13    1    3    3    0    0  0.19163695036E+02 -0.23806036016E+02  0.32168887591E+03  0.32313728885E+03  0.00000000000E+00 0. -1.
         22    1    1    2    0    0  0.58706143037E+02  0.13025272415E+02 -0.24211597120E+03  0.24947186707E+03  0.00000000000E+00 0.  1.
<mgrwt>
<rscale>  0 0.10151125E+04</rscale>
<asrwt>0</asrwt>
<pdfrwt beam="1">  1        1 0.15936326E+00 0.10151125E+04</pdfrwt>
<pdfrwt beam="2">  1       -1 0.38260749E-01 0.10151125E+04</pdfrwt>
<totfact> 0.93811435E+01</totfact>
</mgrwt>
</event>
<event>
 6    1  0.1001928E-005  0.5558134E+04  0.7818608E-02  0.7747740E-01
          2   -1    0    0  501    0  0.00000000000E+00  0.00000000000E+00  0.32673416502E+04  0.32673416502E+04  0.00000000000E+00 0.  1.
         -2   -1    0    0    0  501 -0.00000000000E+00 -0.00000000000E+00 -0.23637607250E+04  0.23637607250E+04  0.00000000000E+00 0. -1.
         23    2    1    2    0    0  0.23427413176E+04  0.88320774770E+03  0.16720674368E+04  0.30121208317E+04  0.92572052688E+02 0.  0.
         11    1    3    3    0    0  0.80839014938E+03  0.26859859060E+03  0.53527334112E+03  0.10060603293E+04  0.00000000000E+00 0.  1.
        -11    1    3    3    0    0  0.15343511682E+04  0.61460915711E+03  0.11367940957E+04  0.20060605024E+04  0.00000000000E+00 0. -1.
         22    1    1    2    0    0 -0.23427413176E+04 -0.88320774770E+03 -0.76848651158E+03  0.26189815435E+04  0.00000000000E+00 0. -1.
<mgrwt>
<rscale>  0 0.55581342E+04</rscale>
<asrwt>0</asrwt>
<pdfrwt beam="1">  1        2 0.50266795E+00 0.55581342E+04</pdfrwt>
<pdfrwt beam="2">  1       -2 0.36365549E+00 0.55581342E+04</pdfrwt>
<totfact> 0.10387776E-02</totfact>
</mgrwt>
</event>
<event>
 6    1  0.1001928E-005  0.8120451E+03  0.7818608E-02  0.9542744E-01
          1   -1    0    0  501    0  0.00000000000E+00  0.00000000000E+00  0.29915964950E+04  0.29915964950E+04  0.00000000000E+00 0. -1.
         -1   -1    0    0    0  501 -0.00000000000E+00 -0.00000000000E+00 -0.55105801106E+02  0.55105801106E+02  0.00000000000E+00 0.  1.
         23    2    1    2    0    0  0.39536498243E+03 -0.50178304593E+02  0.16433278569E+04  0.16935203221E+04  0.93023141056E+02 0.  0.
         13    1    3    3    0    0  0.80377073182E+02  0.22963042617E+02  0.41540374824E+03  0.42373110491E+03  0.00000000000E+00 0.  1.
        -13    1    3    3    0    0  0.31498790925E+03 -0.73141347209E+02  0.12279241086E+04  0.12697892172E+04  0.00000000000E+00 0. -1.
         22    1    1    2    0    0 -0.39536498243E+03  0.50178304593E+02  0.12931628370E+04  0.13531819739E+04  0.00000000000E+00 0. -1.
<mgrwt>
<rscale>  0 0.81204513E+03</rscale>
<asrwt>0</asrwt>
<pdfrwt beam="1">  1        1 0.46024549E+00 0.81204513E+03</pdfrwt>
<pdfrwt beam="2">  1       -1 0.84778179E-02 0.81204513E+03</pdfrwt>
<totfact> 0.52087587E+01</totfact>
</mgrwt>
</event>
<event>
 6    1  0.1001928E-005  0.1369001E+04  0.7818608E-02  0.8976568E-01
         -2   -1    0    0    0  501 -0.00000000000E+00  0.00000000000E+00  0.48574210469E+03  0.48574210469E+03  0.00000000000E+00 0.  1.
          2   -1    0    0  501    0  0.00000000000E+00 -0.00000000000E+00 -0.96458788659E+03  0.96458788659E+03  0.00000000000E+00 0. -1.
         23    2    1    2    0    0 -0.31266730053E+03  0.60234129906E+03 -0.30623987524E+03  0.75006669766E+03  0.90781652221E+02 0.  0.
         13    1    3    3    0    0 -0.22793501243E+03  0.48643335748E+03 -0.27349789786E+03  0.60280418155E+03  0.00000000000E+00 0. -1.
        -13    1    3    3    0    0 -0.84732288103E+02  0.11590794159E+03 -0.32741977371E+02  0.14726251611E+03  0.00000000000E+00 0.  1.
         22    1    1    2    0    0  0.31266730053E+03 -0.60234129906E+03 -0.17260590666E+03  0.70026329362E+03  0.00000000000E+00 0.  1.
<mgrwt>
<rscale>  0 0.13690010E+04</rscale>
<asrwt>0</asrwt>
<pdfrwt beam="1">  1        2 0.14839814E+00 0.13690010E+04</pdfrwt>
<pdfrwt beam="2">  1       -2 0.74729555E-01 0.13690010E+04</pdfrwt>
<totfact> 0.41711245E+01</totfact>
</mgrwt>
</event>
<event>
 6    1  0.1001928E-005  0.2557031E+04  0.7818608E-02  0.8382945E-01
          3   -1    0    0  501    0  0.00000000000E+00  0.00000000000E+00  0.10568572192E+04  0.10568572192E+04  0.00000000000E+00 0. -1.
         -3   -1    0    0    0  501 -0.00000000000E+00 -0.00000000000E+00 -0.15466631602E+04  0.15466631602E+04  0.00000000000E+00 0.  1.
         23    2    1    2    0    0 -0.44708533545E+03 -0.84158764097E+03  0.62006643338E+03  0.11406561540E+04  0.91972959626E+02 0.  0.
         13    1    3    3    0    0 -0.24113427601E+03 -0.52175247237E+03  0.41077099679E+03  0.70647306622E+03  0.00000000000E+00 0. -1.
        -13    1    3    3    0    0 -0.20595105944E+03 -0.31983516860E+03  0.20929543659E+03  0.43418308781E+03  0.00000000000E+00 0.  1.
         22    1    1    2    0    0  0.44708533545E+03  0.84158764097E+03 -0.11098723744E+04  0.14628642254E+04  0.00000000000E+00 0.  1.
<mgrwt>
<rscale>  0 0.25570312E+04</rscale>
<asrwt>0</asrwt>
<pdfrwt beam="1">  1        3 0.16259342E+00 0.25570312E+04</pdfrwt>
<pdfrwt beam="2">  1       -3 0.23794818E+00 0.25570312E+04</pdfrwt>
<totfact> 0.52015879E-02</totfact>
</mgrwt>
</event>
<event>
 6    1  0.1001928E-005  0.1864279E+04  0.7818608E-02  0.8672844E-01
          2   -1    0    0  501    0  0.00000000000E+00  0.00000000000E+00  0.10168548997E+04  0.10168548997E+04  0.00000000000E+00 0. -1.
         -2   -1    0    0    0  501 -0.00000000000E+00 -0.00000000000E+00 -0.85448209218E+03  0.85448209218E+03  0.00000000000E+00 0.  1.
         23    2    1    2    0    0  0.73974987879E+03 -0.53493813339E+03  0.25948028958E+03  0.95328549399E+03  0.89635498760E+02 0.  0.
         11    1    3    3    0    0  0.37793393213E+03 -0.28658416849E+03  0.17990837023E+03  0.50727858654E+03  0.00000000000E+00 0.  1.
        -11    1    3    3    0    0  0.36181594666E+03 -0.24835396490E+03  0.79571919349E+02  0.44600690745E+03  0.00000000000E+00 0. -1.
         22    1    1    2    0    0 -0.73974987879E+03  0.53493813339E+03 -0.97107482041E+02  0.91805149790E+03  0.00000000000E+00 0. -1.
<mgrwt>
<rscale>  0 0.18642793E+04</rscale>
<asrwt>0</asrwt>
<pdfrwt beam="1">  1        2 0.15643922E+00 0.18642793E+04</pdfrwt>
<pdfrwt beam="2">  1       -2 0.13145878E+00 0.18642793E+04</pdfrwt>
<totfact> 0.97424487E+00</totfact>
</mgrwt>
</event>
<event>
 6    1  0.1001928E-005  0.1998662E+04  0.7818608E-02  0.8607247E-01
         -2   -1    0    0    0  501 -0.00000000000E+00  0.00000000000E+00  0.49301983871E+03  0.49301983871E+03  0.00000000000E+00 0.  1.
          2   -1    0    0  501    0  0.00000000000E+00 -0.00000000000E+00 -0.20256024857E+04  0.20256024857E+04  0.00000000000E+00 0. -1.
         23    2    1    2    0    0  0.93834291262E+03 -0.98893223011E+02 -0.36082139275E+03  0.10141982724E+04  0.90215115819E+02 0.  0.
         11    1    3    3    0    0  0.58162770410E+03 -0.10452397955E+03 -0.21658936272E+03  0.62938620935E+03  0.00000000000E+00 0.  1.
        -11    1    3    3    0    0  0.35671520851E+03  0.56307565371E+01 -0.14423203003E+03  0.38481206308E+03  0.00000000000E+00 0. -1.
         22    1    1    2    0    0 -0.93834291262E+03  0.98893223011E+02 -0.11717612542E+04  0.15044240519E+04  0.00000000000E+00 0.  1.
<mgrwt>
<rscale>  0 0.19986618E+04</rscale>
<asrwt>0</asrwt>
<pdfrwt beam="1">  1        2 0.31163115E+00 0.19986618E+04</pdfrwt>
<pdfrwt beam="2">  1       -2 0.75849206E-01 0.19986618E+04</pdfrwt>
<totfact> 0.93549548E+00</totfact>
</mgrwt>
</event>
<event>
 6    1  0.1001928E-005  0.2809244E+04  0.7818608E-02  0.8300404E-01
         -1   -1    0    0    0  501 -0.00000000000E+00  0.00000000000E+00  0.67707712287E+03  0.67707712287E+03  0.00000000000E+00 0.  1.
          1   -1    0    0  501    0  0.00000000000E+00 -0.00000000000E+00 -0.29139417521E+04  0.29139417521E+04  0.00000000000E+00 0. -1.
         23    2    1    2    0    0  0.67221928038E+03 -0.27600934896E+03  0.41477732452E+03  0.84160712469E+03  0.90567111901E+02 0.  0.
         11    1    3    3    0    0  0.47779639318E+03 -0.21809194680E+03  0.33863775310E+03  0.62492321002E+03  0.00000000000E+00 0.  1.
        -11    1    3    3    0    0  0.19442288720E+03 -0.57917402162E+02  0.76139571426E+02  0.21668391467E+03  0.00000000000E+00 0. -1.
         22    1    1    2    0    0 -0.67221928038E+03  0.27600934896E+03 -0.26516419537E+04  0.27494117502E+04  0.00000000000E+00 0. -1.
<mgrwt>
<rscale>  0 0.28092442E+04</rscale>
<asrwt>0</asrwt>
<pdfrwt beam="1">  1        1 0.44829873E+00 0.28092442E+04</pdfrwt>
<pdfrwt beam="2">  1       -1 0.10416571E+00 0.28092442E+04</pdfrwt>
<totfact> 0.51760494E-01</totfact>
</mgrwt>
</event>
<event>
 6    1  0.1001928E-005  0.2050589E+04  0.7818608E-02  0.8583327E-01
         -1   -1    0    0    0  501 -0.00000000000E+00  0.00000000000E+00  0.66753449981E+03  0.66753449981E+03  0.00000000000E+00 0.  1.
          1   -1    0    0  501    0  0.00000000000E+00 -0.00000000000E+00 -0.15747931370E+04  0.15747931370E+04  0.00000000000E+00 0. -1.
         23    2    1    2    0    0 -0.38566488563E+03  0.57128187451E+03  0.37247406318E+03  0.78877469022E+03  0.91258972361E+02 0.  0.
         13    1    3    3    0    0 -0.23463853661E+03  0.41945950910E+03  0.24351685069E+03  0.53879678841E+03  0.00000000000E+00 0. -1.
        -13    1    3    3    0    0 -0.15102634902E+03  0.15182236542E+03  0.12895721249E+03  0.24997790181E+03  0.00000000000E+00 0.  1.
         22    1    1    2    0    0  0.38566488563E+03 -0.57128187451E+03 -0.12797327004E+04  0.14535529466E+04  0.00000000000E+00 0. -1.
<mgrwt>
<rscale>  0 0.20505889E+04</rscale>
<asrwt>0</asrwt>
<pdfrwt beam="1">  1        1 0.24227586E+00 0.20505889E+04</pdfrwt>
<pdfrwt beam="2">  1       -1 0.10269762E+00 0.20505889E+04</pdfrwt>
<totfact> 0.48078207E+00</totfact>
</mgrwt>
</event>
<event>
 6    1  0.1001928E-005  0.9405156E+03  0.7818608E-02  0.9376306E-01
          1   -1    0    0  501    0  0.00000000000E+00  0.00000000000E+00  0.19507935589E+03  0.19507935589E+03  0.00000000000E+00 0. -1.
         -1   -1    0    0    0  501 -0.00000000000E+00 -0.00000000000E+00 -0.11336023468E+04  0.11336023468E+04  0.00000000000E+00 0.  1.
         23    2    1    2    0    0 -0.92692762208E+02 -0.26578803180E+03  0.50697856320E+02  0.30019100725E+03  0.91154496223E+02 0.  0.
         11    1    3    3    0    0 -0.53120252915E+01 -0.41202021458E+02 -0.23894575272E+02  0.47924679575E+02  0.00000000000E+00 0.  1.
        -11    1    3    3    0    0 -0.87380736916E+02 -0.22458601034E+03  0.74592431592E+02  0.25226632767E+03  0.00000000000E+00 0. -1.
         22    1    1    2    0    0  0.92692762208E+02  0.26578803180E+03 -0.98922084723E+03  0.10284906954E+04  0.00000000000E+00 0.  1.
<mgrwt>
<rscale>  0 0.94051564E+03</rscale>
<asrwt>0</asrwt>
<pdfrwt beam="1">  1        1 0.30012209E-01 0.94051564E+03</pdfrwt>
<pdfrwt beam="2">  1       -1 0.17440036E+00 0.94051564E+03</pdfrwt>
<totfact> 0.35373603E+01</totfact>
</mgrwt>
</event>
<event>
 6    1  0.1001928E-005  0.1874048E+04  0.7818608E-02  0.8667883E-01
         -2   -1    0    0    0  501 -0.00000000000E+00  0.00000000000E+00  0.50195091346E+03  0.50195091346E+03  0.00000000000E+00 0. -1.
          2   -1    0    0  501    0  0.00000000000E+00 -0.00000000000E+00 -0.17492020613E+04  0.17492020613E+04  0.00000000000E+00 0.  1.
         23    2    1    2    0    0  0.91918273770E+03  0.35041386045E+02 -0.82430688493E+03  0.12387268522E+04  0.94008349945E+02 0.  0.
         11    1    3    3    0    0  0.53032576534E+03  0.27830160558E+02 -0.53657007892E+03  0.75493535141E+03  0.00000000000E+00 0. -1.
        -11    1    3    3    0    0  0.38885697236E+03  0.72112254874E+01 -0.28773680601E+03  0.48379150082E+03  0.00000000000E+00 0.  1.
         22    1    1    2    0    0 -0.91918273770E+03 -0.35041386045E+02 -0.42294426289E+03  0.10124261225E+04  0.00000000000E+00 0. -1.
<mgrwt>
<rscale>  0 0.18740476E+04</rscale>
<asrwt>0</asrwt>
<pdfrwt beam="1">  1        2 0.26910801E+00 0.18740476E+04</pdfrwt>
<pdfrwt beam="2">  1       -2 0.77223218E-01 0.18740476E+04</pdfrwt>
<totfact> 0.12929159E+01</totfact>
</mgrwt>
</event>
<event>
 6    1  0.1001928E-005  0.2170692E+04  0.7818608E-02  0.8530727E-01
          2   -1    0    0  501    0  0.00000000000E+00  0.00000000000E+00  0.30379332796E+04  0.30379332796E+04  0.00000000000E+00 0. -1.
         -2   -1    0    0    0  501 -0.00000000000E+00 -0.00000000000E+00 -0.38775569812E+03  0.38775569812E+03  0.00000000000E+00 0.  1.
         23    2    1    2    0    0  0.60051516105E+03  0.86188533247E+03  0.90904719996E+03  0.13922190885E+04  0.91882499071E+02 0.  0.
         11    1    3    3    0    0  0.37438875083E+03  0.49074525456E+03  0.48476992546E+03  0.78485649787E+03  0.00000000000E+00 0. -1.
        -11    1    3    3    0    0  0.22612641021E+03  0.37114007791E+03  0.42427727450E+03  0.60736259063E+03  0.00000000000E+00 0.  1.
         22    1    1    2    0    0 -0.60051516105E+03 -0.86188533247E+03  0.17411303815E+04  0.20334698892E+04  0.00000000000E+00 0. -1.
<mgrwt>
<rscale>  0 0.21706920E+04</rscale>
<asrwt>0</asrwt>
<pdfrwt beam="1">  1        2 0.46737434E+00 0.21706920E+04</pdfrwt>
<pdfrwt beam="2">  1       -2 0.59654725E-01 0.21706920E+04</pdfrwt>
<totfact> 0.39647932E+00</totfact>
</mgrwt>
</event>
<event>
 6    1  0.1001928E-005  0.2849606E+04  0.7818608E-02  0.8288031E-01
          2   -1    0    0  501    0  0.00000000000E+00  0.00000000000E+00  0.19937496180E+04  0.19937496180E+04  0.00000000000E+00 0. -1.
         -2   -1    0    0    0  501 -0.00000000000E+00 -0.00000000000E+00 -0.10182135811E+04  0.10182135811E+04  0.00000000000E+00 0.  1.
         23    2    1    2    0    0 -0.10723104741E+04 -0.93571368048E+03  0.51157913048E+03  0.15150778142E+04  0.91311179561E+02 0.  0.
         11    1    3    3    0    0 -0.40685723007E+03 -0.30186348096E+03  0.20039077116E+03  0.54480347646E+03  0.00000000000E+00 0.  1.
        -11    1    3    3    0    0 -0.66545324405E+03 -0.63385019952E+03  0.31118835932E+03  0.97027433771E+03  0.00000000000E+00 0. -1.
         22    1    1    2    0    0  0.10723104741E+04  0.93571368048E+03  0.46395690639E+03  0.14968853850E+04  0.00000000000E+00 0. -1.
<mgrwt>
<rscale>  0 0.28496055E+04</rscale>
<asrwt>0</asrwt>
<pdfrwt beam="1">  1        2 0.30673071E+00 0.28496055E+04</pdfrwt>
<pdfrwt beam="2">  1       -2 0.15664824E+00 0.28496055E+04</pdfrwt>
<totfact> 0.15573464E+00</totfact>
</mgrwt>
</event>
<event>
 6    1  0.1001928E-005  0.6143424E+03  0.7818608E-02  0.9876089E-01
          2   -1    0    0  501    0  0.00000000000E+00  0.00000000000E+00  0.12533792994E+04  0.12533792994E+04  0.00000000000E+00 0.  1.
         -2   -1    0    0    0  501 -0.00000000000E+00 -0.00000000000E+00 -0.75279809920E+02  0.75279809920E+02  0.00000000000E+00 0. -1.
         23    2    1    2    0    0 -0.18147868059E+03  0.16063310818E+03  0.21784406843E+03  0.33829151059E+03  0.90816303804E+02 0.  0.
         11    1    3    3    0    0 -0.10522562066E+02  0.15965842520E+02  0.63470233908E+02  0.66288030836E+02  0.00000000000E+00 0.  1.
        -11    1    3    3    0    0 -0.17095611853E+03  0.14466726566E+03  0.15437383452E+03  0.27200347975E+03  0.00000000000E+00 0. -1.
         22    1    1    2    0    0  0.18147868059E+03 -0.16063310818E+03  0.96025542109E+03  0.99036759877E+03  0.00000000000E+00 0.  1.
<mgrwt>
<rscale>  0 0.61434243E+03</rscale>
<asrwt>0</asrwt>
<pdfrwt beam="1">  1        2 0.19282757E+00 0.61434243E+03</pdfrwt>
<pdfrwt beam="2">  1       -2 0.11581510E-01 0.61434243E+03</pdfrwt>
<totfact> 0.96216390E+02</totfact>
</mgrwt>
</event>
<event>
 6    1  0.1001928E-005  0.2141975E+04  0.7818608E-02  0.8542975E-01
         -2   -1    0    0    0  501 -0.00000000000E+00  0.00000000000E+00  0.56648410548E+03  0.56648410548E+03  0.00000000000E+00 0.  1.
          2   -1    0    0  501    0  0.00000000000E+00 -0.00000000000E+00 -0.20247953441E+04  0.20247953441E+04  0.00000000000E+00 0. -1.
         23    2    1    2    0    0 -0.26422942225E+03 -0.94923600927E+03 -0.12321554022E+04  0.15803330360E+04  0.91538956231E+02 0.  0.
         13    1    3    3    0    0 -0.81584327573E+02 -0.30937401360E+03 -0.47004929428E+03  0.56860761677E+03  0.00000000000E+00 0.  1.
        -13    1    3    3    0    0 -0.18264509467E+03 -0.63986199566E+03 -0.76210610795E+03  0.10117254192E+04  0.00000000000E+00 0. -1.
         22    1    1    2    0    0  0.26422942225E+03  0.94923600927E+03 -0.22615583641E+03  0.10109464136E+04  0.00000000000E+00 0.  1.
<mgrwt>
<rscale>  0 0.21419751E+04</rscale>
<asrwt>0</asrwt>
<pdfrwt beam="1">  1        2 0.31150698E+00 0.21419751E+04</pdfrwt>
<pdfrwt beam="2">  1       -2 0.87151401E-01 0.21419751E+04</pdfrwt>
<totfact> 0.67635463E+00</totfact>
</mgrwt>
</event>
<event>
 6    1  0.1001928E-005  0.2186387E+04  0.7818608E-02  0.8524116E-01
          2   -1    0    0  501    0  0.00000000000E+00  0.00000000000E+00  0.31559688173E+04  0.31559688173E+04  0.00000000000E+00 0. -1.
         -2   -1    0    0    0  501 -0.00000000000E+00 -0.00000000000E+00 -0.37867027997E+03  0.37867027997E+03  0.00000000000E+00 0.  1.
         23    2    1    2    0    0 -0.39844940931E+02 -0.26397428727E+03  0.31017111924E+04  0.31145038638E+04  0.90840259142E+02 0.  0.
         13    1    3    3    0    0 -0.42481361815E+02 -0.59453001126E+02  0.59701672244E+03  0.60147177184E+03  0.00000000000E+00 0.  1.
        -13    1    3    3    0    0  0.26364208840E+01 -0.20452128615E+03  0.25046944700E+04  0.25130320919E+04  0.00000000000E+00 0. -1.
         22    1    1    2    0    0  0.39844940931E+02  0.26397428727E+03 -0.32441265508E+03  0.42013523350E+03  0.00000000000E+00 0.  1.
<mgrwt>
<rscale>  0 0.21863866E+04</rscale>
<asrwt>0</asrwt>
<pdfrwt beam="1">  1        2 0.48553365E+00 0.21863866E+04</pdfrwt>
<pdfrwt beam="2">  1       -2 0.58256968E-01 0.21863866E+04</pdfrwt>
<totfact> 0.35000866E+00</totfact>
</mgrwt>
</event>
<event>
 6    1  0.1001928E-005  0.1147094E+04  0.7818608E-02  0.9160468E-01
         -2   -1    0    0    0  501 -0.00000000000E+00  0.00000000000E+00  0.13329804299E+03  0.13329804299E+03  0.00000000000E+00 0.  1.
          2   -1    0    0  501    0  0.00000000000E+00 -0.00000000000E+00 -0.24678261340E+04  0.24678261340E+04  0.00000000000E+00 0. -1.
         23    2    1    2    0    0  0.92781272559E+02 -0.86116119659E+02 -0.24347067198E+04  0.24396927419E+04  0.90991828459E+02 0.  0.
         11    1    3    3    0    0  0.97195836944E+02 -0.10016836744E+03 -0.20780401768E+04  0.20827221872E+04  0.00000000000E+00 0. -1.
        -11    1    3    3    0    0 -0.44145643857E+01  0.14052247784E+02 -0.35666654298E+03  0.35697055470E+03  0.00000000000E+00 0.  1.
         22    1    1    2    0    0 -0.92781272559E+02  0.86116119659E+02  0.10017862873E+03  0.16143143516E+03  0.00000000000E+00 0.  1.
<mgrwt>
<rscale>  0 0.11470944E+04</rscale>
<asrwt>0</asrwt>
<pdfrwt beam="1">  1        2 0.37966558E+00 0.11470944E+04</pdfrwt>
<pdfrwt beam="2">  1       -2 0.20507390E-01 0.11470944E+04</pdfrwt>
<totfact> 0.74099409E+01</totfact>
</mgrwt>
</event>
<event>
 6    1  0.1001928E-005  0.3599669E+04  0.7818608E-02  0.8090568E-01
          2   -1    0    0  501    0  0.00000000000E+00  0.00000000000E+00  0.26789085982E+04  0.26789085982E+04  0.00000000000E+00 0. -1.
         -2   -1    0    0    0  501 -0.00000000000E+00 -0.00000000000E+00 -0.12092251504E+04  0.12092251504E+04  0.00000000000E+00 0.  1.
         23    2    1    2    0    0  0.17426290596E+04  0.44038535728E+03  0.81283369701E+03  0.19744600833E+04  0.84253777679E+02 0.  0.
         11    1    3    3    0    0  0.10869919541E+03  0.48102111986E+02  0.47234761597E+02  0.12790797850E+03  0.00000000000E+00 0. -1.
        -11    1    3    3    0    0  0.16339298642E+04  0.39228324529E+03  0.76559893541E+03  0.18465521048E+04  0.00000000000E+00 0.  1.
         22    1    1    2    0    0 -0.17426290596E+04 -0.44038535728E+03  0.65684975085E+03  0.19136736654E+04  0.00000000000E+00 0. -1.
<mgrwt>
<rscale>  0 0.35996687E+04</rscale>
<asrwt>0</asrwt>
<pdfrwt beam="1">  1        2 0.41213978E+00 0.35996687E+04</pdfrwt>
<pdfrwt beam="2">  1       -2 0.18603464E+00 0.35996687E+04</pdfrwt>
<totfact> 0.36719172E-01</totfact>
</mgrwt>
</event>
<event>
 6    1  0.1001928E-005  0.6497752E+03  0.7818608E-02  0.9807201E-01
         -2   -1    0    0    0  501 -0.00000000000E+00  0.00000000000E+00  0.15647177754E+03  0.15647177754E+03  0.00000000000E+00 0.  1.
          2   -1    0    0  501    0  0.00000000000E+00 -0.00000000000E+00 -0.67457506922E+03  0.67457506922E+03  0.00000000000E+00 0. -1.
         23    2    1    2    0    0 -0.61664568535E+02  0.23135775848E+03 -0.53084736209E+03  0.59127332288E+03  0.10235374490E+03 0.  0.
         11    1    3    3    0    0 -0.30621941198E+02  0.93830098865E+02 -0.33974474563E+03  0.35379129853E+03  0.00000000000E+00 0. -1.
        -11    1    3    3    0    0 -0.31042627337E+02  0.13752765962E+03 -0.19110261646E+03  0.23748202435E+03  0.00000000000E+00 0.  1.
         22    1    1    2    0    0  0.61664568535E+02 -0.23135775848E+03  0.12744070407E+02  0.23977352388E+03  0.00000000000E+00 0.  1.
<mgrwt>
<rscale>  0 0.64977522E+03</rscale>
<asrwt>0</asrwt>
<pdfrwt beam="1">  1        2 0.10378078E+00 0.64977522E+03</pdfrwt>
<pdfrwt beam="2">  1       -2 0.24072582E-01 0.64977522E+03</pdfrwt>
<totfact> 0.66257323E+02</totfact>
</mgrwt>
</event>
<event>
 6    1  0.1001928E-005  0.3291672E+04  0.7818608E-02  0.8165018E-01
         -1   -1    0    0    0  501 -0.00000000000E+00  0.00000000000E+00  0.11135285736E+04  0.11135285736E+04  0.00000000000E+00 0.  1.
          1   -1    0    0  501    0  0.00000000000E+00 -0.00000000000E+00 -0.24326058852E+04  0.24326058852E+04  0.00000000000E+00 0. -1.
         23    2    1    2    0    0 -0.15735642129E+04  0.31849009980E+03 -0.10446449224E+04  0.19173762164E+04  0.86650249501E+02 0.  0.
         11    1    3    3    0    0 -0.80783986930E+03  0.19842729404E+03 -0.57238170899E+03  0.10097521806E+04  0.00000000000E+00 0.  1.
        -11    1    3    3    0    0 -0.76572434360E+03  0.12006280576E+03 -0.47226321336E+03  0.90762403582E+03  0.00000000000E+00 0. -1.
         22    1    1    2    0    0  0.15735642129E+04 -0.31849009980E+03 -0.27443238924E+03  0.16287582424E+04  0.00000000000E+00 0.  1.
<mgrwt>
<rscale>  0 0.32916720E+04</rscale>
<asrwt>0</asrwt>
<pdfrwt beam="1">  1        1 0.37424706E+00 0.32916720E+04</pdfrwt>
<pdfrwt beam="2">  1       -1 0.17131209E+00 0.32916720E+04</pdfrwt>
<totfact> 0.30132394E-01</totfact>
</mgrwt>
</event>
<event>
 6    1  0.1001928E-005  0.3239501E+04  0.7818608E-02  0.8178462E-01
          1   -1    0    0  501    0  0.00000000000E+00  0.00000000000E+00  0.21764928640E+04  0.21764928640E+04  0.00000000000E+00 0. -1.
         -1   -1    0    0    0  501 -0.00000000000E+00 -0.00000000000E+00 -0.12054218234E+04  0.12054218234E+04  0.00000000000E+00 0.  1.
         23    2    1    2    0    0  0.66289523642E+03  0.29861338152E+03  0.19954569597E+04  0.21257432988E+04  0.91301962248E+02 0.  0.
         13    1    3    3    0    0  0.25642094456E+03  0.10603748681E+03  0.89113328489E+03  0.93333497784E+03  0.00000000000E+00 0.  1.
        -13    1    3    3    0    0  0.40647429186E+03  0.19257589471E+03  0.11043236748E+04  0.11924083210E+04  0.00000000000E+00 0. -1.
         22    1    1    2    0    0 -0.66289523642E+03 -0.29861338152E+03 -0.10243859191E+04  0.12561713885E+04  0.00000000000E+00 0.  1.
<mgrwt>
<rscale>  0 0.32395012E+04</rscale>
<asrwt>0</asrwt>
<pdfrwt beam="1">  1        1 0.33484506E+00 0.32395012E+04</pdfrwt>
<pdfrwt beam="2">  1       -1 0.18544951E+00 0.32395012E+04</pdfrwt>
<totfact> 0.35861643E-01</totfact>
</mgrwt>
</event>
<event>
 6    1  0.1001928E-005  0.2473967E+04  0.7818608E-02  0.8412319E-01
          1   -1    0    0  501    0  0.00000000000E+00  0.00000000000E+00  0.11678894496E+04  0.11678894496E+04  0.00000000000E+00 0. -1.
         -1   -1    0    0    0  501 -0.00000000000E+00 -0.00000000000E+00 -0.13101650824E+04  0.13101650824E+04  0.00000000000E+00 0.  1.
         23    2    1    2    0    0  0.71393003380E+03  0.78171636198E+03 -0.70882246303E+03  0.12773248062E+04  0.91393723728E+02 0.  0.
         13    1    3    3    0    0  0.13382654656E+03  0.13234805048E+03 -0.87055216607E+02  0.20737444820E+03  0.00000000000E+00 0.  1.
        -13    1    3    3    0    0  0.58010348724E+03  0.64936831150E+03 -0.62176724643E+03  0.10699503580E+04  0.00000000000E+00 0. -1.
         22    1    1    2    0    0 -0.71393003380E+03 -0.78171636198E+03  0.56654683023E+03  0.12007297259E+04  0.00000000000E+00 0. -1.
<mgrwt>
<rscale>  0 0.24739668E+04</rscale>
<asrwt>0</asrwt>
<pdfrwt beam="1">  1        1 0.17967530E+00 0.24739668E+04</pdfrwt>
<pdfrwt beam="2">  1       -1 0.20156386E+00 0.24739668E+04</pdfrwt>
<totfact> 0.14749559E+00</totfact>
</mgrwt>
</event>
<event>
 6    1  0.1001928E-005  0.1102316E+04  0.7818608E-02  0.9202938E-01
         -2   -1    0    0    0  501 -0.00000000000E+00  0.00000000000E+00  0.41061214192E+03  0.41061214192E+03  0.00000000000E+00 0. -1.
          2   -1    0    0  501    0  0.00000000000E+00 -0.00000000000E+00 -0.73980984817E+03  0.73980984817E+03  0.00000000000E+00 0.  1.
         23    2    1    2    0    0 -0.22392068683E+03  0.21628452144E+03 -0.63576196714E+03  0.71349966947E+03  0.89269430757E+02 0.  0.
         13    1    3    3    0    0 -0.18982990527E+03  0.15034973577E+03 -0.41371859431E+03  0.47937825489E+03  0.00000000000E+00 0. -1.
        -13    1    3    3    0    0 -0.34090781558E+02  0.65934785673E+02 -0.22204337283E+03  0.23412141458E+03  0.00000000000E+00 0.  1.
         22    1    1    2    0    0  0.22392068683E+03 -0.21628452144E+03  0.30656426088E+03  0.43692232062E+03  0.00000000000E+00 0. -1.
<mgrwt>
<rscale>  0 0.11023156E+04</rscale>
<asrwt>0</asrwt>
<pdfrwt beam="1">  1        2 0.11381690E+00 0.11023156E+04</pdfrwt>
<pdfrwt beam="2">  1       -2 0.63171100E-01 0.11023156E+04</pdfrwt>
<totfact> 0.87994193E+01</totfact>
</mgrwt>
</event>
<event>
 6    1  0.1001928E-005  0.2135682E+04  0.7818608E-02  0.8545686E-01
         -2   -1    0    0    0  501 -0.00000000000E+00  0.00000000000E+00  0.78254929113E+03  0.78254929113E+03  0.00000000000E+00 0.  1.
          2   -1    0    0  501    0  0.00000000000E+00 -0.00000000000E+00 -0.14571406617E+04  0.14571406617E+04  0.00000000000E+00 0. -1.
         23    2    1    2    0    0 -0.16209734541E+03  0.96068702472E+03  0.11553135708E+03  0.98530204092E+03  0.90980814015E+02 0.  0.
         13    1    3    3    0    0 -0.14478700960E+03  0.59799182041E+03  0.64981608466E+02  0.61869225377E+03  0.00000000000E+00 0.  1.
        -13    1    3    3    0    0 -0.17310335809E+02  0.36269520430E+03  0.50549748613E+02  0.36660978715E+03  0.00000000000E+00 0. -1.
         22    1    1    2    0    0  0.16209734541E+03 -0.96068702472E+03 -0.79012272770E+03  0.12543879120E+04  0.00000000000E+00 0.  1.
<mgrwt>
<rscale>  0 0.21356820E+04</rscale>
<asrwt>0</asrwt>
<pdfrwt beam="1">  1        2 0.22417548E+00 0.21356820E+04</pdfrwt>
<pdfrwt beam="2">  1       -2 0.12039220E+00 0.21356820E+04</pdfrwt>
<totfact> 0.64980166E+00</totfact>
</mgrwt>
</event>
<event>
 6    1  0.1001928E-005  0.3322773E+04  0.7818608E-02  0.8157125E-01
          2   -1    0    0  501    0  0.00000000000E+00  0.00000000000E+00  0.15886670025E+04  0.15886670025E+04  0.00000000000E+00 0. -1.
         -2   -1    0    0    0  501 -0.00000000000E+00 -0.00000000000E+00 -0.17374348756E+04  0.17374348756E+04  0.00000000000E+00 0.  1.
         23    2    1    2    0    0 -0.80491314676E+02  0.85697780298E+03  0.13460902239E+04  0.16011408534E+04  0.10393909285E+03 0.  0.
         11    1    3    3    0    0 -0.54303149754E+02  0.51948479822E+03  0.90796032267E+03  0.10474756490E+04  0.00000000000E+00 0. -1.
        -11    1    3    3    0    0 -0.26188164923E+02  0.33749300476E+03  0.43812990126E+03  0.55366520445E+03  0.00000000000E+00 0.  1.
         22    1    1    2    0    0  0.80491314676E+02 -0.85697780298E+03 -0.14948580970E+04  0.17249610247E+04  0.00000000000E+00 0.  1.
<mgrwt>
<rscale>  0 0.33227732E+04</rscale>
<asrwt>0</asrwt>
<pdfrwt beam="1">  1        2 0.24441031E+00 0.33227732E+04</pdfrwt>
<pdfrwt beam="2">  1       -2 0.26729767E+00 0.33227732E+04</pdfrwt>
<totfact> 0.47494839E-01</totfact>
</mgrwt>
</event>
<event>
 6    1  0.1001928E-005  0.1851119E+04  0.7818608E-02  0.8679577E-01
          1   -1    0    0  501    0  0.00000000000E+00  0.00000000000E+00  0.12402751655E+04  0.12402751655E+04  0.00000000000E+00 0. -1.
         -1   -1    0    0    0  501 -0.00000000000E+00 -0.00000000000E+00 -0.69070221377E+03  0.69070221377E+03  0.00000000000E+00 0.  1.
         23    2    1    2    0    0  0.19520679264E+02  0.85901747367E+03  0.62812600904E+03  0.10681548832E+04  0.90113784941E+02 0.  0.
         11    1    3    3    0    0  0.38584564683E+02  0.22456351489E+03  0.13998647716E+03  0.26742055762E+03  0.00000000000E+00 0. -1.
        -11    1    3    3    0    0 -0.19063885419E+02  0.63445395878E+03  0.48813953188E+03  0.80073432556E+03  0.00000000000E+00 0.  1.
         22    1    1    2    0    0 -0.19520679264E+02 -0.85901747367E+03 -0.78553057288E+02  0.86282249612E+03  0.00000000000E+00 0.  1.
<mgrwt>
<rscale>  0 0.18511194E+04</rscale>
<asrwt>0</asrwt>
<pdfrwt beam="1">  1        1 0.19081156E+00 0.18511194E+04</pdfrwt>
<pdfrwt beam="2">  1       -1 0.10626188E+00 0.18511194E+04</pdfrwt>
<totfact> 0.77692549E+00</totfact>
</mgrwt>
</event>
<event>
 6    1  0.1001928E-005  0.1817973E+04  0.7818608E-02  0.8696800E-01
          2   -1    0    0  501    0  0.00000000000E+00  0.00000000000E+00  0.12959399758E+04  0.12959399758E+04  0.00000000000E+00 0. -1.
         -2   -1    0    0    0  501 -0.00000000000E+00 -0.00000000000E+00 -0.63757306986E+03  0.63757306986E+03  0.00000000000E+00 0.  1.
         23    2    1    2    0    0 -0.11378242748E+03 -0.19224215733E+03 -0.60457892933E+03  0.65096259024E+03  0.91285947677E+02 0.  0.
         11    1    3    3    0    0 -0.50965268477E+02 -0.35856514806E+02 -0.26019832352E+03  0.26755619187E+03  0.00000000000E+00 0. -1.
        -11    1    3    3    0    0 -0.62817158998E+02 -0.15638564253E+03 -0.34438060581E+03  0.38340639837E+03  0.00000000000E+00 0.  1.
         22    1    1    2    0    0  0.11378242748E+03  0.19224215733E+03  0.12629458353E+04  0.12825504555E+04  0.00000000000E+00 0. -1.
<mgrwt>
<rscale>  0 0.18179730E+04</rscale>
<asrwt>0</asrwt>
<pdfrwt beam="1">  1        2 0.19937538E+00 0.18179730E+04</pdfrwt>
<pdfrwt beam="2">  1       -2 0.98088165E-01 0.18179730E+04</pdfrwt>
<totfact> 0.13549596E+01</totfact>
</mgrwt>
</event>
<event>
 6    1  0.1001928E-005  0.2180430E+04  0.7818608E-02  0.8526618E-01
          1   -1    0    0  501    0  0.00000000000E+00  0.00000000000E+00  0.10206694515E+04  0.10206694515E+04  0.00000000000E+00 0. -1.
         -1   -1    0    0    0  501 -0.00000000000E+00 -0.00000000000E+00 -0.11644994337E+04  0.11644994337E+04  0.00000000000E+00 0.  1.
         23    2    1    2    0    0  0.77572762624E+02 -0.23992973771E+03  0.98897810423E+03  0.10246353987E+04  0.90643240758E+02 0.  0.
         11    1    3    3    0    0 -0.29410726363E+00 -0.93894164609E+02  0.24276832256E+03  0.26029340960E+03  0.00000000000E+00 0. -1.
        -11    1    3    3    0    0  0.77866869888E+02 -0.14603557310E+03  0.74620978167E+03  0.76434198910E+03  0.00000000000E+00 0.  1.
         22    1    1    2    0    0 -0.77572762624E+02  0.23992973771E+03 -0.11328080864E+04  0.11605334865E+04  0.00000000000E+00 0.  1.
<mgrwt>
<rscale>  0 0.21804302E+04</rscale>
<asrwt>0</asrwt>
<pdfrwt beam="1">  1        1 0.15702607E+00 0.21804302E+04</pdfrwt>
<pdfrwt beam="2">  1       -1 0.17915376E+00 0.21804302E+04</pdfrwt>
<totfact> 0.28102771E+00</totfact>
</mgrwt>
</event>
<event>
 6    1  0.1001928E-005  0.1287875E+04  0.7818608E-02  0.9039236E-01
         -2   -1    0    0    0  501 -0.00000000000E+00  0.00000000000E+00  0.52664269568E+03  0.52664269568E+03  0.00000000000E+00 0.  1.
          2   -1    0    0  501    0  0.00000000000E+00 -0.00000000000E+00 -0.78735662622E+03  0.78735662622E+03  0.00000000000E+00 0. -1.
         23    2    1    2    0    0 -0.19032076534E+03 -0.32012007258E+03  0.40089845216E+03  0.55476958096E+03  0.91383064209E+02 0.  0.
         11    1    3    3    0    0 -0.19309122233E+03 -0.26322550822E+03  0.33795208821E+03  0.46987604987E+03  0.00000000000E+00 0.  1.
        -11    1    3    3    0    0  0.27704569896E+01 -0.56894564365E+02  0.62946363948E+02  0.84893531088E+02  0.00000000000E+00 0. -1.
         22    1    1    2    0    0  0.19032076534E+03  0.32012007258E+03 -0.66161238270E+03  0.75922974095E+03  0.00000000000E+00 0. -1.
<mgrwt>
<rscale>  0 0.12878752E+04</rscale>
<asrwt>0</asrwt>
<pdfrwt beam="1">  1        2 0.12113179E+00 0.12878752E+04</pdfrwt>
<pdfrwt beam="2">  1       -2 0.81021954E-01 0.12878752E+04</pdfrwt>
<totfact> 0.46382893E+01</totfact>
</mgrwt>
</event>
<event>
 6    1  0.1001928E-005  0.1006128E+04  0.7818608E-02  0.9301850E-01
         -1   -1    0    0    0  501 -0.00000000000E+00  0.00000000000E+00  0.20823764996E+03  0.20823764996E+03  0.00000000000E+00 0.  1.
          1   -1    0    0  501    0  0.00000000000E+00 -0.00000000000E+00 -0.12153095297E+04  0.12153095297E+04  0.00000000000E+00 0. -1.
         23    2    1    2    0    0  0.44348354640E+03 -0.22695670833E+03 -0.54787045395E+03  0.74601271349E+03  0.90476134966E+02 0.  0.
         11    1    3    3    0    0  0.26673746989E+03 -0.85994170452E+02 -0.30229476900E+03  0.41222081772E+03  0.00000000000E+00 0.  1.
        -11    1    3    3    0    0  0.17674607651E+03 -0.14096253788E+03 -0.24557568495E+03  0.33379189577E+03  0.00000000000E+00 0. -1.
         22    1    1    2    0    0 -0.44348354640E+03  0.22695670833E+03 -0.45920142578E+03  0.67753446616E+03  0.00000000000E+00 0.  1.
<mgrwt>
<rscale>  0 0.10061276E+04</rscale>
<asrwt>0</asrwt>
<pdfrwt beam="1">  1        1 0.18697070E+00 0.10061276E+04</pdfrwt>
<pdfrwt beam="2">  1       -1 0.32036562E-01 0.10061276E+04</pdfrwt>
<totfact> 0.94742705E+01</totfact>
</mgrwt>
</event>
<event>
 6    1  0.1001928E-005  0.1930292E+04  0.7818608E-02  0.8639923E-01
          2   -1    0    0  501    0  0.00000000000E+00  0.00000000000E+00  0.19892200205E+04  0.19892200205E+04  0.00000000000E+00 0. -1.
         -2   -1    0    0    0  501 -0.00000000000E+00 -0.00000000000E+00 -0.46827736649E+03  0.46827736649E+03  0.00000000000E+00 0.  1.
         23    2    1    2    0    0 -0.41582884621E+03  0.85254115634E+03  0.54711842655E+03  0.10980586504E+04  0.81573122871E+02 0.  0.
         13    1    3    3    0    0 -0.27458962240E+03  0.63287889193E+03  0.37398235076E+03  0.78472794729E+03  0.00000000000E+00 0.  1.
        -13    1    3    3    0    0 -0.14123922382E+03  0.21966226442E+03  0.17313607579E+03  0.31333070308E+03  0.00000000000E+00 0. -1.
         22    1    1    2    0    0  0.41582884621E+03 -0.85254115634E+03  0.97382422742E+03  0.13594387366E+04  0.00000000000E+00 0. -1.
<mgrwt>
<rscale>  0 0.19302919E+04</rscale>
<asrwt>0</asrwt>
<pdfrwt beam="1">  1        2 0.30603384E+00 0.19302919E+04</pdfrwt>
<pdfrwt beam="2">  1       -2 0.72042673E-01 0.19302919E+04</pdfrwt>
<totfact> 0.11045040E+01</totfact>
</mgrwt>
</event>
<event>
 6    1  0.1001928E-005  0.2873466E+04  0.7818608E-02  0.8280816E-01
         -2   -1    0    0    0  501 -0.00000000000E+00  0.00000000000E+00  0.80030877077E+03  0.80030877077E+03  0.00000000000E+00 0.  1.
          2   -1    0    0  501    0  0.00000000000E+00 -0.00000000000E+00 -0.25792566672E+04  0.25792566672E+04  0.00000000000E+00 0. -1.
         23    2    1    2    0    0 -0.12816583217E+04  0.58560793931E+03 -0.56956977710E+03  0.15226378283E+04  0.91823270466E+02 0.  0.
         11    1    3    3    0    0 -0.87851791040E+03  0.35413473401E+03 -0.37829898402E+03  0.10199584551E+04  0.00000000000E+00 0.  1.
        -11    1    3    3    0    0 -0.40314041129E+03  0.23147320529E+03 -0.19127079308E+03  0.50267937323E+03  0.00000000000E+00 0. -1.
         22    1    1    2    0    0  0.12816583217E+04 -0.58560793931E+03 -0.12093781194E+04  0.18569276097E+04  0.00000000000E+00 0. -1.
<mgrwt>
<rscale>  0 0.28734660E+04</rscale>
<asrwt>0</asrwt>
<pdfrwt beam="1">  1        2 0.39680871E+00 0.28734660E+04</pdfrwt>
<pdfrwt beam="2">  1       -2 0.12312443E+00 0.28734660E+04</pdfrwt>
<totfact> 0.13477591E+00</totfact>
</mgrwt>
</event>
<event>
 6    1  0.1022793E-005  0.2976975E+04  0.7818608E-02  0.8250336E-01
          2   -1    0    0  501    0  0.00000000000E+00  0.00000000000E+00  0.12136851396E+04  0.12136851396E+04  0.00000000000E+00 0. -1.
         -2   -1    0    0    0  501 -0.00000000000E+00 -0.00000000000E+00 -0.18255106925E+04  0.18255106925E+04  0.00000000000E+00 0.  1.
         23    2    1    2    0    0 -0.10161836492E+04  0.27878103396E+03  0.76592883574E+03  0.13046771008E+04  0.72022788274E+02 0.  0.
         13    1    3    3    0    0 -0.60856976754E+03  0.16209430014E+03  0.50066001933E+03  0.80454470295E+03  0.00000000000E+00 0. -1.
        -13    1    3    3    0    0 -0.40761388166E+03  0.11668673382E+03  0.26526881641E+03  0.50013239780E+03  0.00000000000E+00 0.  1.
         22    1    1    2    0    0  0.10161836492E+04 -0.27878103396E+03 -0.13777543887E+04  0.17345187313E+04  0.00000000000E+00 0.  1.
<mgrwt>
<rscale>  0 0.29769751E+04</rscale>
<asrwt>0</asrwt>
<pdfrwt beam="1">  1        2 0.18672079E+00 0.29769751E+04</pdfrwt>
<pdfrwt beam="2">  1       -2 0.28084780E+00 0.29769751E+04</pdfrwt>
<totfact> 0.66336016E-01</totfact>
</mgrwt>
</event>
<event>
 6    1  0.1001928E-005  0.2766187E+04  0.7818608E-02  0.8313843E-01
         -2   -1    0    0    0  501 -0.00000000000E+00  0.00000000000E+00  0.58657250563E+03  0.58657250563E+03  0.00000000000E+00 0.  1.
          2   -1    0    0  501    0  0.00000000000E+00 -0.00000000000E+00 -0.32612304624E+04  0.32612304624E+04  0.00000000000E+00 0. -1.
         23    2    1    2    0    0 -0.33587808976E+03 -0.37490057551E+03 -0.31285119079E+04  0.31700508440E+04  0.90945385078E+02 0.  0.
         13    1    3    3    0    0 -0.10614355137E+03 -0.15403167246E+03 -0.93714907290E+03  0.95563622496E+03  0.00000000000E+00 0. -1.
        -13    1    3    3    0    0 -0.22973453839E+03 -0.22086890305E+03 -0.21913628350E+04  0.22144146191E+04  0.00000000000E+00 0.  1.
         22    1    1    2    0    0  0.33587808976E+03  0.37490057551E+03  0.45385395111E+03  0.67775212404E+03  0.00000000000E+00 0.  1.
<mgrwt>
<rscale>  0 0.27661874E+04</rscale>
<asrwt>0</asrwt>
<pdfrwt beam="1">  1        2 0.50172778E+00 0.27661874E+04</pdfrwt>
<pdfrwt beam="2">  1       -2 0.90241921E-01 0.27661874E+04</pdfrwt>
<totfact> 0.10828911E+00</totfact>
</mgrwt>
</event>
<event>
 6    1  0.1001928E-005  0.1590791E+04  0.7818608E-02  0.8826226E-01
          2   -1    0    0  501    0  0.00000000000E+00  0.00000000000E+00  0.17373362422E+04  0.17373362422E+04  0.00000000000E+00 0. -1.
         -2   -1    0    0    0  501 -0.00000000000E+00 -0.00000000000E+00 -0.36415155506E+03  0.36415155506E+03  0.00000000000E+00 0.  1.
         23    2    1    2    0    0 -0.55359111777E+03  0.83862423643E+02  0.14303123589E+04  0.15386737936E+04  0.90705939255E+02 0.  0.
         11    1    3    3    0    0 -0.45677729450E+03  0.10365193504E+03  0.11799706253E+04  0.12695353075E+04  0.00000000000E+00 0.  1.
        -11    1    3    3    0    0 -0.96813823263E+02 -0.19789511402E+02  0.25034173361E+03  0.26913848615E+03  0.00000000000E+00 0. -1.
         22    1    1    2    0    0  0.55359111777E+03 -0.83862423643E+02 -0.57127671785E+02  0.56281400360E+03  0.00000000000E+00 0.  1.
<mgrwt>
<rscale>  0 0.15907906E+04</rscale>
<asrwt>0</asrwt>
<pdfrwt beam="1">  1        2 0.26728249E+00 0.15907906E+04</pdfrwt>
<pdfrwt beam="2">  1       -2 0.56023317E-01 0.15907906E+04</pdfrwt>
<totfact> 0.26836806E+01</totfact>
</mgrwt>
</event>
<event>
 6    1  0.1001928E-005  0.2187461E+04  0.7818608E-02  0.8523665E-01
         -1   -1    0    0    0  501 -0.00000000000E+00  0.00000000000E+00  0.13935337571E+04  0.13935337571E+04  0.00000000000E+00 0.  1.
          1   -1    0    0  501    0  0.00000000000E+00 -0.00000000000E+00 -0.85842618194E+03  0.85842618194E+03  0.00000000000E+00 0. -1.
         23    2    1    2    0    0 -0.62154706789E+03 -0.78683491190E+03  0.71280648563E+03  0.12336246116E+04  0.91140881147E+02 0.  0.
         11    1    3    3    0    0 -0.21512139546E+03 -0.32671268306E+03  0.24222326868E+03  0.46009836334E+03  0.00000000000E+00 0. -1.
        -11    1    3    3    0    0 -0.40642567243E+03 -0.46012222884E+03  0.47058321696E+03  0.77352624827E+03  0.00000000000E+00 0.  1.
         22    1    1    2    0    0  0.62154706789E+03  0.78683491190E+03 -0.17769891052E+03  0.10183353274E+04  0.00000000000E+00 0. -1.
<mgrwt>
<rscale>  0 0.21874605E+04</rscale>
<asrwt>0</asrwt>
<pdfrwt beam="1">  1        1 0.13206557E+00 0.21874605E+04</pdfrwt>
<pdfrwt beam="2">  1       -1 0.21438981E+00 0.21874605E+04</pdfrwt>
<totfact> 0.21586478E+00</totfact>
</mgrwt>
</event>
<event>
 6    1  0.1001928E-005  0.2058656E+04  0.7818608E-02  0.8579678E-01
          2   -1    0    0  501    0  0.00000000000E+00  0.00000000000E+00  0.25155950040E+04  0.25155950040E+04  0.00000000000E+00 0.  1.
         -2   -1    0    0    0  501 -0.00000000000E+00 -0.00000000000E+00 -0.42117904255E+03  0.42117904255E+03  0.00000000000E+00 0. -1.
         23    2    1    2    0    0 -0.32738887748E+03 -0.62739054436E+03 -0.12754201414E+02  0.71394511308E+03  0.93555238186E+02 0.  0.
         11    1    3    3    0    0 -0.18349338538E+03 -0.42077890315E+03  0.23070740765E+02  0.45962698669E+03  0.00000000000E+00 0.  1.
        -11    1    3    3    0    0 -0.14389549209E+03 -0.20661164120E+03 -0.35824942179E+02  0.25431812638E+03  0.00000000000E+00 0. -1.
         22    1    1    2    0    0  0.32738887748E+03  0.62739054436E+03  0.21071701628E+04  0.22228289334E+04  0.00000000000E+00 0.  1.
<mgrwt>
<rscale>  0 0.20586558E+04</rscale>
<asrwt>0</asrwt>
<pdfrwt beam="1">  1        2 0.38701461E+00 0.20586558E+04</pdfrwt>
<pdfrwt beam="2">  1       -2 0.64796777E-01 0.20586558E+04</pdfrwt>
<totfact> 0.69317356E+00</totfact>
</mgrwt>
</event>
<event>
 6    1  0.1001928E-005  0.6705686E+03  0.7818608E-02  0.9768931E-01
         -2   -1    0    0    0  501 -0.00000000000E+00  0.00000000000E+00  0.38836852669E+03  0.38836852669E+03  0.00000000000E+00 0.  1.
          2   -1    0    0  501    0  0.00000000000E+00 -0.00000000000E+00 -0.28945590363E+03  0.28945590363E+03  0.00000000000E+00 0. -1.
         23    2    1    2    0    0  0.43678559372E+02 -0.56463146983E+02 -0.27453320128E+03  0.29761700373E+03  0.90063859499E+02 0.  0.
         13    1    3    3    0    0  0.40135590628E+02 -0.53633726016E+01 -0.21631735723E+03  0.22007460199E+03  0.00000000000E+00 0.  1.
        -13    1    3    3    0    0  0.35429687439E+01 -0.51099774381E+02 -0.58215844043E+02  0.77542401736E+02  0.00000000000E+00 0. -1.
         22    1    1    2    0    0 -0.43678559372E+02  0.56463146983E+02  0.37344582435E+03  0.38020742659E+03  0.00000000000E+00 0.  1.
<mgrwt>
<rscale>  0 0.67056860E+03</rscale>
<asrwt>0</asrwt>
<pdfrwt beam="1">  1        2 0.44531677E-01 0.67056860E+03</pdfrwt>
<pdfrwt beam="2">  1       -2 0.59749004E-01 0.67056860E+03</pdfrwt>
<totfact> 0.30153027E+02</totfact>
</mgrwt>
</event>
<event>
 6    1  0.1143781E-005  0.3390448E+04  0.7818608E-02  0.8140255E-01
          2   -1    0    0  501    0  0.00000000000E+00  0.00000000000E+00  0.22897723370E+04  0.22897723370E+04  0.00000000000E+00 0. -1.
         -2   -1    0    0    0  501 -0.00000000000E+00 -0.00000000000E+00 -0.12550523819E+04  0.12550523819E+04  0.00000000000E+00 0.  1.
         23    2    1    2    0    0 -0.45300660527E+03 -0.42824912919E+03 -0.11293864115E+04  0.12927215537E+04  0.83684214632E+02 0.  0.
         11    1    3    3    0    0 -0.18020181571E+03 -0.22293688757E+03 -0.54980495211E+03  0.62004760751E+03  0.00000000000E+00 0.  1.
        -11    1    3    3    0    0 -0.27280478956E+03 -0.20531224162E+03 -0.57958145937E+03  0.67267394614E+03  0.00000000000E+00 0. -1.
         22    1    1    2    0    0  0.45300660527E+03  0.42824912919E+03  0.21641063666E+04  0.22521031653E+04  0.00000000000E+00 0. -1.
<mgrwt>
<rscale>  0 0.33904479E+04</rscale>
<asrwt>0</asrwt>
<pdfrwt beam="1">  1        2 0.35227267E+00 0.33904479E+04</pdfrwt>
<pdfrwt beam="2">  1       -2 0.19308498E+00 0.33904479E+04</pdfrwt>
<totfact> 0.56300467E-01</totfact>
</mgrwt>
</event>
<event>
 6    1  0.1001928E-005  0.8379889E+03  0.7818608E-02  0.9506601E-01
         -1   -1    0    0    0  501 -0.00000000000E+00  0.00000000000E+00  0.81528933800E+02  0.81528933800E+02  0.00000000000E+00 0.  1.
          1   -1    0    0  501    0  0.00000000000E+00 -0.00000000000E+00 -0.21533012820E+04  0.21533012820E+04  0.00000000000E+00 0. -1.
         23    2    1    2    0    0  0.23954826071E+03 -0.22472161704E+03 -0.17205055360E+04  0.17539232105E+04  0.90687125175E+02 0.  0.
         13    1    3    3    0    0 -0.53912145026E+01  0.26392770270E+01 -0.46335324569E+02  0.46722513631E+02  0.00000000000E+00 0. -1.
        -13    1    3    3    0    0  0.24493947521E+03 -0.22736089407E+03 -0.16741702114E+04  0.17072006969E+04  0.00000000000E+00 0.  1.
         22    1    1    2    0    0 -0.23954826071E+03  0.22472161704E+03 -0.35126681225E+03  0.48090700531E+03  0.00000000000E+00 0.  1.
<mgrwt>
<rscale>  0 0.83798892E+03</rscale>
<asrwt>0</asrwt>
<pdfrwt beam="1">  1        1 0.33127711E+00 0.83798892E+03</pdfrwt>
<pdfrwt beam="2">  1       -1 0.12542913E-01 0.83798892E+03</pdfrwt>
<totfact> 0.10559391E+02</totfact>
</mgrwt>
</event>
<event>
 6    1  0.1001928E-005  0.6817352E+03  0.7818608E-02  0.9748987E-01
         -1   -1    0    0    0  501 -0.00000000000E+00  0.00000000000E+00  0.71340873448E+03  0.71340873448E+03  0.00000000000E+00 0.  1.
          1   -1    0    0  501    0  0.00000000000E+00 -0.00000000000E+00 -0.16286699450E+03  0.16286699450E+03  0.00000000000E+00 0. -1.
         23    2    1    2    0    0  0.27026353370E+03 -0.11920616903E+03  0.48271193820E+03  0.57320251936E+03  0.91092395624E+02 0.  0.
         11    1    3    3    0    0  0.22897961928E+03 -0.13357770478E+03  0.40516279061E+03  0.48418132570E+03  0.00000000000E+00 0.  1.
        -11    1    3    3    0    0  0.41283914418E+02  0.14371535750E+02  0.77549147583E+02  0.89021193658E+02  0.00000000000E+00 0. -1.
         22    1    1    2    0    0 -0.27026353370E+03  0.11920616903E+03  0.67829801786E+02  0.30307320962E+03  0.00000000000E+00 0. -1.
<mgrwt>
<rscale>  0 0.68173525E+03</rscale>
<asrwt>0</asrwt>
<pdfrwt beam="1">  1        1 0.25056461E-01 0.68173525E+03</pdfrwt>
<pdfrwt beam="2">  1       -1 0.10975519E+00 0.68173525E+03</pdfrwt>
<totfact> 0.15190940E+02</totfact>
</mgrwt>
</event>
<event>
 6    1  0.1001928E-005  0.1691689E+04  0.7818608E-02  0.8766118E-01
         -2   -1    0    0    0  501 -0.00000000000E+00  0.00000000000E+00  0.18296750824E+03  0.18296750824E+03  0.00000000000E+00 0.  1.
          2   -1    0    0  501    0  0.00000000000E+00 -0.00000000000E+00 -0.39102747566E+04  0.39102747566E+04  0.00000000000E+00 0. -1.
         23    2    1    2    0    0  0.55474594163E+03  0.36447630904E+03 -0.31283876775E+04  0.31992116770E+04  0.86947420797E+02 0.  0.
         13    1    3    3    0    0  0.42907575326E+03  0.28273528710E+03 -0.22330206795E+04  0.22913809373E+04  0.00000000000E+00 0. -1.
        -13    1    3    3    0    0  0.12567018837E+03  0.81741021945E+02 -0.89536699800E+03  0.90783073974E+03  0.00000000000E+00 0.  1.
         22    1    1    2    0    0 -0.55474594163E+03 -0.36447630904E+03 -0.59891957088E+03  0.89403058784E+03  0.00000000000E+00 0.  1.
<mgrwt>
<rscale>  0 0.16916894E+04</rscale>
<asrwt>0</asrwt>
<pdfrwt beam="1">  1        2 0.60158072E+00 0.16916894E+04</pdfrwt>
<pdfrwt beam="2">  1       -2 0.28148848E-01 0.16916894E+04</pdfrwt>
<totfact> 0.45064677E+00</totfact>
</mgrwt>
</event>
<event>
 6    1  0.1001928E-005  0.1640240E+04  0.7818608E-02  0.8796202E-01
          2   -1    0    0  501    0  0.00000000000E+00  0.00000000000E+00  0.24035516872E+04  0.24035516872E+04  0.00000000000E+00 0. -1.
         -2   -1    0    0    0  501 -0.00000000000E+00 -0.00000000000E+00 -0.27983448450E+03  0.27983448450E+03  0.00000000000E+00 0.  1.
         23    2    1    2    0    0  0.77715013981E+03  0.60590915245E+02  0.66095303175E+03  0.10258842505E+04  0.89140263180E+02 0.  0.
         13    1    3    3    0    0  0.38226170987E+03 -0.99631750565E+01  0.34917905558E+03  0.51783133601E+03  0.00000000000E+00 0.  1.
        -13    1    3    3    0    0  0.39488842994E+03  0.70554090301E+02  0.31177397617E+03  0.50805291454E+03  0.00000000000E+00 0. -1.
         22    1    1    2    0    0 -0.77715013981E+03 -0.60590915245E+02  0.14627641709E+04  0.16575019211E+04  0.00000000000E+00 0. -1.
<mgrwt>
<rscale>  0 0.16402398E+04</rscale>
<asrwt>0</asrwt>
<pdfrwt beam="1">  1        2 0.36977717E+00 0.16402398E+04</pdfrwt>
<pdfrwt beam="2">  1       -2 0.43051461E-01 0.16402398E+04</pdfrwt>
<totfact> 0.19378610E+01</totfact>
</mgrwt>
</event>
<event>
 6    1  0.1001928E-005  0.1910516E+04  0.7818608E-02  0.8649640E-01
         -2   -1    0    0    0  501 -0.00000000000E+00  0.00000000000E+00  0.13771288169E+04  0.13771288169E+04  0.00000000000E+00 0.  1.
          2   -1    0    0  501    0  0.00000000000E+00 -0.00000000000E+00 -0.66262339136E+03  0.66262339136E+03  0.00000000000E+00 0. -1.
         23    2    1    2    0    0  0.69566303403E+03  0.25190720979E+03 -0.28331785054E+03  0.79755432163E+03  0.91758336186E+02 0.  0.
         11    1    3    3    0    0  0.56023658798E+03  0.16360053299E+03 -0.22992255235E+03  0.62729143864E+03  0.00000000000E+00 0. -1.
        -11    1    3    3    0    0  0.13542644605E+03  0.88306676803E+02 -0.53395298186E+02  0.17026288299E+03  0.00000000000E+00 0.  1.
         22    1    1    2    0    0 -0.69566303403E+03 -0.25190720979E+03  0.99782327609E+03  0.12421978866E+04  0.00000000000E+00 0.  1.
<mgrwt>
<rscale>  0 0.19105159E+04</rscale>
<asrwt>0</asrwt>
<pdfrwt beam="1">  1        2 0.10194206E+00 0.19105159E+04</pdfrwt>
<pdfrwt beam="2">  1       -2 0.21186597E+00 0.19105159E+04</pdfrwt>
<totfact> 0.45727848E+00</totfact>
</mgrwt>
</event>
<event>
 6    1  0.1001928E-005  0.4638300E+04  0.7818608E-02  0.7886862E-01
         -1   -1    0    0    0  501 -0.00000000000E+00  0.00000000000E+00  0.19992935965E+04  0.19992935965E+04  0.00000000000E+00 0.  1.
          1   -1    0    0  501    0  0.00000000000E+00 -0.00000000000E+00 -0.26901789040E+04  0.26901789040E+04  0.00000000000E+00 0. -1.
         23    2    1    2    0    0  0.12214050266E+04 -0.14254608022E+03  0.16413396488E+04  0.20529173862E+04  0.91237753141E+02 0.  0.
         11    1    3    3    0    0  0.25844899209E+03  0.63125631604E+01  0.33102802345E+03  0.42001819280E+03  0.00000000000E+00 0. -1.
        -11    1    3    3    0    0  0.96295603449E+03 -0.14885864338E+03  0.13103116254E+04  0.16328991934E+04  0.00000000000E+00 0.  1.
         22    1    1    2    0    0 -0.12214050266E+04  0.14254608022E+03 -0.23322249563E+04  0.26365551143E+04  0.00000000000E+00 0. -1.
<mgrwt>
<rscale>  0 0.46383003E+04</rscale>
<asrwt>0</asrwt>
<pdfrwt beam="1">  1        1 0.41387368E+00 0.46383003E+04</pdfrwt>
<pdfrwt beam="2">  1       -1 0.30758363E+00 0.46383003E+04</pdfrwt>
<totfact> 0.21847728E-02</totfact>
</mgrwt>
</event>
<event>
 6    1  0.1001928E-005  0.7263366E+03  0.7818608E-02  0.9673224E-01
          1   -1    0    0  501    0  0.00000000000E+00  0.00000000000E+00  0.69298182885E+03  0.69298182885E+03  0.00000000000E+00 0. -1.
         -1   -1    0    0    0  501 -0.00000000000E+00 -0.00000000000E+00 -0.19032420048E+03  0.19032420048E+03  0.00000000000E+00 0.  1.
         23    2    1    2    0    0  0.23682736355E+03  0.14982593395E+03  0.52516068952E+03  0.60216300812E+03  0.90947940708E+02 0.  0.
         11    1    3    3    0    0  0.12903084184E+03  0.30935715020E+02  0.20814383626E+03  0.24683969126E+03  0.00000000000E+00 0. -1.
        -11    1    3    3    0    0  0.10779652171E+03  0.11889021893E+03  0.31701685327E+03  0.35532331686E+03  0.00000000000E+00 0.  1.
         22    1    1    2    0    0 -0.23682736355E+03 -0.14982593395E+03 -0.22503061149E+02  0.28114302120E+03  0.00000000000E+00 0.  1.
<mgrwt>
<rscale>  0 0.72633660E+03</rscale>
<asrwt>0</asrwt>
<pdfrwt beam="1">  1        1 0.10661259E+00 0.72633660E+03</pdfrwt>
<pdfrwt beam="2">  1       -1 0.29280647E-01 0.72633660E+03</pdfrwt>
<totfact> 0.29783935E+02</totfact>
</mgrwt>
</event>
<event>
 6    1  0.1001928E-005  0.4315026E+04  0.7818608E-02  0.7943845E-01
          2   -1    0    0  501    0  0.00000000000E+00  0.00000000000E+00  0.52176191247E+04  0.52176191247E+04  0.00000000000E+00 0. -1.
         -2   -1    0    0    0  501 -0.00000000000E+00 -0.00000000000E+00 -0.89214314348E+03  0.89214314348E+03  0.00000000000E+00 0.  1.
         23    2    1    2    0    0  0.20718533878E+04  0.45693492015E+03  0.16165389495E+04  0.26688749082E+04  0.91264006626E+02 0.  0.
         13    1    3    3    0    0  0.10088759976E+04  0.25613114130E+03  0.75290836870E+03  0.12846419547E+04  0.00000000000E+00 0. -1.
        -13    1    3    3    0    0  0.10629773902E+04  0.20080377885E+03  0.86363058076E+03  0.13842329536E+04  0.00000000000E+00 0.  1.
         22    1    1    2    0    0 -0.20718533878E+04 -0.45693492015E+03  0.27089370318E+04  0.34408873600E+04  0.00000000000E+00 0.  1.
<mgrwt>
<rscale>  0 0.43150264E+04</rscale>
<asrwt>0</asrwt>
<pdfrwt beam="1">  1        2 0.80271062E+00 0.43150264E+04</pdfrwt>
<pdfrwt beam="2">  1       -2 0.13725279E+00 0.43150264E+04</pdfrwt>
<totfact> 0.49674304E-03</totfact>
</mgrwt>
</event>
<event>
 6    1  0.1001928E-005  0.1751499E+04  0.7818608E-02  0.8732526E-01
         -2   -1    0    0    0  501 -0.00000000000E+00  0.00000000000E+00  0.46747974012E+03  0.46747974012E+03  0.00000000000E+00 0. -1.
          2   -1    0    0  501    0  0.00000000000E+00 -0.00000000000E+00 -0.16405779023E+04  0.16405779023E+04  0.00000000000E+00 0.  1.
         23    2    1    2    0    0 -0.58341248185E+03 -0.63698097768E+03 -0.43282834405E+03  0.97046619840E+03  0.91374925087E+02 0.  0.
         13    1    3    3    0    0 -0.13250346020E+03 -0.15361960018E+03 -0.14571632761E+03  0.24977869536E+03  0.00000000000E+00 0.  1.
        -13    1    3    3    0    0 -0.45090902164E+03 -0.48336137750E+03 -0.28711201644E+03  0.72068750304E+03  0.00000000000E+00 0. -1.
         22    1    1    2    0    0  0.58341248185E+03  0.63698097768E+03 -0.74026981816E+03  0.11375914441E+04  0.00000000000E+00 0.  1.
<mgrwt>
<rscale>  0 0.17514987E+04</rscale>
<asrwt>0</asrwt>
<pdfrwt beam="1">  1        2 0.25239660E+00 0.17514987E+04</pdfrwt>
<pdfrwt beam="2">  1       -2 0.71919961E-01 0.17514987E+04</pdfrwt>
<totfact> 0.17570547E+01</totfact>
</mgrwt>
</event>
<event>
 6    1  0.1001928E-005  0.1195118E+04  0.7818608E-02  0.9117140E-01
          2   -1    0    0  501    0  0.00000000000E+00  0.00000000000E+00  0.18966905426E+04  0.18966905426E+04  0.00000000000E+00 0.  1.
         -2   -1    0    0    0  501 -0.00000000000E+00 -0.00000000000E+00 -0.18826312875E+03  0.18826312875E+03  0.00000000000E+00 0. -1.
         23    2    1    2    0    0 -0.19303390531E+03 -0.38900516499E+03  0.15002950610E+03  0.46718015635E+03  0.84624693789E+02 0.  0.
         11    1    3    3    0    0 -0.25644136093E+02 -0.44192730418E+02  0.49002980002E+02  0.70794852828E+02  0.00000000000E+00 0.  1.
        -11    1    3    3    0    0 -0.16738976921E+03 -0.34481243457E+03  0.10102652610E+03  0.39638530352E+03  0.00000000000E+00 0. -1.
         22    1    1    2    0    0  0.19303390531E+03  0.38900516499E+03  0.15583979078E+04  0.16177735150E+04  0.00000000000E+00 0.  1.
<mgrwt>
<rscale>  0 0.11951182E+04</rscale>
<asrwt>0</asrwt>
<pdfrwt beam="1">  1        2 0.29179853E+00 0.11951182E+04</pdfrwt>
<pdfrwt beam="2">  1       -2 0.28963560E-01 0.11951182E+04</pdfrwt>
<totfact> 0.82470396E+01</totfact>
</mgrwt>
</event>
<event>
 6    1  0.1001928E-005  0.2744757E+04  0.7818608E-02  0.8320627E-01
          3   -1    0    0  501    0  0.00000000000E+00  0.00000000000E+00  0.10131906424E+04  0.10131906424E+04  0.00000000000E+00 0.  1.
         -3   -1    0    0    0  501 -0.00000000000E+00 -0.00000000000E+00 -0.18589020195E+04  0.18589020195E+04  0.00000000000E+00 0. -1.
         23    2    1    2    0    0 -0.71272035538E+03 -0.38933015247E+03 -0.15790152503E+04  0.17778884566E+04  0.89721406926E+02 0.  0.
         11    1    3    3    0    0 -0.48251701994E+03 -0.23337079444E+03 -0.96538280445E+03  0.11041958890E+04  0.00000000000E+00 0. -1.
        -11    1    3    3    0    0 -0.23020333544E+03 -0.15595935802E+03 -0.61363244585E+03  0.67369256757E+03  0.00000000000E+00 0.  1.
         22    1    1    2    0    0  0.71272035538E+03  0.38933015247E+03  0.73330387320E+03  0.10942042054E+04  0.00000000000E+00 0.  1.
<mgrwt>
<rscale>  0 0.27447566E+04</rscale>
<asrwt>0</asrwt>
<pdfrwt beam="1">  1        3 0.15587549E+00 0.27447566E+04</pdfrwt>
<pdfrwt beam="2">  1       -3 0.28598492E+00 0.27447566E+04</pdfrwt>
<totfact> 0.30298242E-02</totfact>
</mgrwt>
</event>
<event>
 6    1  0.1001928E-005  0.1597730E+04  0.7818608E-02  0.8821944E-01
         -2   -1    0    0    0  501 -0.00000000000E+00  0.00000000000E+00  0.16290442556E+03  0.16290442556E+03  0.00000000000E+00 0.  1.
          2   -1    0    0  501    0  0.00000000000E+00 -0.00000000000E+00 -0.39175432041E+04  0.39175432041E+04  0.00000000000E+00 0. -1.
         23    2    1    2    0    0 -0.78015475937E+02 -0.15705716534E+03 -0.38671002662E+04  0.38721186737E+04  0.89917664982E+02 0.  0.
         13    1    3    3    0    0 -0.54237803024E+01 -0.11011285246E+03 -0.22859203706E+04  0.22885773306E+04  0.00000000000E+00 0. -1.
        -13    1    3    3    0    0 -0.72591695634E+02 -0.46944312882E+02 -0.15811798956E+04  0.15835413431E+04  0.00000000000E+00 0.  1.
         22    1    1    2    0    0  0.78015475937E+02  0.15705716534E+03  0.11246148770E+03  0.20832895595E+03  0.00000000000E+00 0.  1.
<mgrwt>
<rscale>  0 0.15977298E+04</rscale>
<asrwt>0</asrwt>
<pdfrwt beam="1">  1        2 0.60269893E+00 0.15977298E+04</pdfrwt>
<pdfrwt beam="2">  1       -2 0.25062220E-01 0.15977298E+04</pdfrwt>
<totfact> 0.55576486E+00</totfact>
</mgrwt>
</event>
<event>
 6    1  0.1001928E-005  0.2451814E+04  0.7818608E-02  0.8420356E-01
          2   -1    0    0  501    0  0.00000000000E+00  0.00000000000E+00  0.26661218454E+04  0.26661218454E+04  0.00000000000E+00 0.  1.
         -2   -1    0    0    0  501 -0.00000000000E+00 -0.00000000000E+00 -0.56368318453E+03  0.56368318453E+03  0.00000000000E+00 0. -1.
         23    2    1    2    0    0 -0.83870167364E+03 -0.88196099712E+03  0.12267788191E+04  0.17304532179E+04  0.90589019774E+02 0.  0.
         13    1    3    3    0    0 -0.65259242177E+03 -0.72074803349E+03  0.10167871210E+04  0.14068442153E+04  0.00000000000E+00 0. -1.
        -13    1    3    3    0    0 -0.18610925187E+03 -0.16121296363E+03  0.20999169804E+03  0.32360900253E+03  0.00000000000E+00 0.  1.
         22    1    1    2    0    0  0.83870167364E+03  0.88196099712E+03  0.87565984178E+03  0.14993518121E+04  0.00000000000E+00 0. -1.
<mgrwt>
<rscale>  0 0.24518141E+04</rscale>
<asrwt>0</asrwt>
<pdfrwt beam="1">  1        2 0.41017258E+00 0.24518141E+04</pdfrwt>
<pdfrwt beam="2">  1       -2 0.86720491E-01 0.24518141E+04</pdfrwt>
<totfact> 0.28665477E+00</totfact>
</mgrwt>
</event>
<event>
 6    1  0.1001928E-005  0.4824812E+04  0.7818608E-02  0.7856115E-01
         -1   -1    0    0    0  501 -0.00000000000E+00  0.00000000000E+00  0.22952912519E+04  0.22952912519E+04  0.00000000000E+00 0.  1.
          1   -1    0    0  501    0  0.00000000000E+00 -0.00000000000E+00 -0.25354959368E+04  0.25354959368E+04  0.00000000000E+00 0. -1.
         23    2    1    2    0    0 -0.14917050903E+04  0.10201956400E+04  0.14785273040E+04  0.23367898210E+04  0.92522747189E+02 0.  0.
         11    1    3    3    0    0 -0.82319049282E+03  0.53503837842E+03  0.85436577518E+03  0.13014797469E+04  0.00000000000E+00 0.  1.
        -11    1    3    3    0    0 -0.66851459745E+03  0.48515726161E+03  0.62416152878E+03  0.10353100741E+04  0.00000000000E+00 0. -1.
         22    1    1    2    0    0  0.14917050903E+04 -0.10201956400E+04 -0.17187319889E+04  0.24939973676E+04  0.00000000000E+00 0. -1.
<mgrwt>
<rscale>  0 0.48248116E+04</rscale>
<asrwt>0</asrwt>
<pdfrwt beam="1">  1        1 0.39007630E+00 0.48248116E+04</pdfrwt>
<pdfrwt beam="2">  1       -1 0.35312173E+00 0.48248116E+04</pdfrwt>
<totfact> 0.13880835E-02</totfact>
</mgrwt>
</event>
<event>
 6    1  0.1001928E-005  0.1908114E+04  0.7818608E-02  0.8650828E-01
         -3   -1    0    0    0  501 -0.00000000000E+00  0.00000000000E+00  0.29003865452E+03  0.29003865452E+03  0.00000000000E+00 0.  1.
          3   -1    0    0  501    0  0.00000000000E+00 -0.00000000000E+00 -0.31382863726E+04  0.31382863726E+04  0.00000000000E+00 0. -1.
         23    2    1    2    0    0  0.67141546252E+03 -0.40999581318E+03 -0.23897245159E+04  0.25177544274E+04  0.96998993230E+02 0.  0.
         11    1    3    3    0    0  0.14006595730E+03 -0.45009297799E+02 -0.49262576972E+03  0.51412494423E+03  0.00000000000E+00 0. -1.
        -11    1    3    3    0    0  0.53134950522E+03 -0.36498651538E+03 -0.18970987462E+04  0.20036294832E+04  0.00000000000E+00 0.  1.
         22    1    1    2    0    0 -0.67141546252E+03  0.40999581318E+03 -0.45852320220E+03  0.91057059973E+03  0.00000000000E+00 0.  1.
<mgrwt>
<rscale>  0 0.19081136E+04</rscale>
<asrwt>0</asrwt>
<pdfrwt beam="1">  1        3 0.48281327E+00 0.19081136E+04</pdfrwt>
<pdfrwt beam="2">  1       -3 0.44621333E-01 0.19081136E+04</pdfrwt>
<totfact> 0.51232648E-02</totfact>
</mgrwt>
</event>
<event>
 6    1  0.1001928E-005  0.2302846E+04  0.7818608E-02  0.8476800E-01
          2   -1    0    0  501    0  0.00000000000E+00  0.00000000000E+00  0.11123102086E+04  0.11123102086E+04  0.00000000000E+00 0.  1.
         -2   -1    0    0    0  501 -0.00000000000E+00 -0.00000000000E+00 -0.11919112482E+04  0.11919112482E+04  0.00000000000E+00 0. -1.
         23    2    1    2    0    0  0.90785942805E+02  0.10430184088E+04 -0.51512352080E+03  0.11702861322E+04  0.89932758673E+02 0.  0.
         13    1    3    3    0    0  0.59954971457E+02  0.37058767047E+03 -0.14784518512E+03  0.40346997269E+03  0.00000000000E+00 0. -1.
        -13    1    3    3    0    0  0.30830971349E+02  0.67243073835E+03 -0.36727833568E+03  0.76681615954E+03  0.00000000000E+00 0.  1.
         22    1    1    2    0    0 -0.90785942805E+02 -0.10430184088E+04  0.43552248121E+03  0.11339353245E+04  0.00000000000E+00 0.  1.
<mgrwt>
<rscale>  0 0.23028461E+04</rscale>
<asrwt>0</asrwt>
<pdfrwt beam="1">  1        2 0.17112465E+00 0.23028461E+04</pdfrwt>
<pdfrwt beam="2">  1       -2 0.18337096E+00 0.23028461E+04</pdfrwt>
<totfact> 0.33353957E+00</totfact>
</mgrwt>
</event>
<event>
 6    1  0.1414410E-005  0.2862217E+04  0.7818608E-02  0.8284208E-01
          1   -1    0    0  501    0  0.00000000000E+00  0.00000000000E+00  0.10950934045E+04  0.10950934045E+04  0.00000000000E+00 0. -1.
         -1   -1    0    0    0  501 -0.00000000000E+00 -0.00000000000E+00 -0.18702259291E+04  0.18702259291E+04  0.00000000000E+00 0.  1.
         23    2    1    2    0    0 -0.14263118749E+04 -0.23799481980E+02 -0.29041002225E+03  0.14587046238E+04  0.92461984691E+02 0.  0.
         11    1    3    3    0    0 -0.67986703186E+03 -0.45932506691E+02 -0.16980507798E+03  0.70225546683E+03  0.00000000000E+00 0.  1.
        -11    1    3    3    0    0 -0.74644484301E+03  0.22133024711E+02 -0.12060494427E+03  0.75644915693E+03  0.00000000000E+00 0. -1.
         22    1    1    2    0    0  0.14263118749E+04  0.23799481980E+02 -0.48472250227E+03  0.15066147099E+04  0.00000000000E+00 0.  1.
<mgrwt>
<rscale>  0 0.28622174E+04</rscale>
<asrwt>0</asrwt>
<pdfrwt beam="1">  1        1 0.16847591E+00 0.28622174E+04</pdfrwt>
<pdfrwt beam="2">  1       -1 0.28772706E+00 0.28622174E+04</pdfrwt>
<totfact> 0.43671717E-01</totfact>
</mgrwt>
</event>
<event>
 6    1  0.1001928E-005  0.1655108E+04  0.7818608E-02  0.8787390E-01
         -2   -1    0    0    0  501 -0.00000000000E+00  0.00000000000E+00  0.72112562801E+03  0.72112562801E+03  0.00000000000E+00 0.  1.
          2   -1    0    0  501    0  0.00000000000E+00 -0.00000000000E+00 -0.94969031222E+03  0.94969031222E+03  0.00000000000E+00 0. -1.
         23    2    1    2    0    0  0.21313985362E+03 -0.35336663122E+03 -0.83587937139E+03  0.93656278054E+03  0.90326879299E+02 0.  0.
         13    1    3    3    0    0  0.58946566064E+02 -0.18247609185E+03 -0.35713990464E+03  0.40536543172E+03  0.00000000000E+00 0. -1.
        -13    1    3    3    0    0  0.15419328755E+03 -0.17089053937E+03 -0.47873946675E+03  0.53119734883E+03  0.00000000000E+00 0.  1.
         22    1    1    2    0    0 -0.21313985362E+03  0.35336663122E+03  0.60731468717E+03  0.73425315969E+03  0.00000000000E+00 0.  1.
<mgrwt>
<rscale>  0 0.16551085E+04</rscale>
<asrwt>0</asrwt>
<pdfrwt beam="1">  1        2 0.14610620E+00 0.16551085E+04</pdfrwt>
<pdfrwt beam="2">  1       -2 0.11094240E+00 0.16551085E+04</pdfrwt>
<totfact> 0.16694022E+01</totfact>
</mgrwt>
</event>
<event>
 6    1  0.1001928E-005  0.1689256E+04  0.7818608E-02  0.8767516E-01
          2   -1    0    0  501    0  0.00000000000E+00  0.00000000000E+00  0.18095558224E+04  0.18095558224E+04  0.00000000000E+00 0. -1.
         -2   -1    0    0    0  501 -0.00000000000E+00 -0.00000000000E+00 -0.39423824222E+03  0.39423824222E+03  0.00000000000E+00 0.  1.
         23    2    1    2    0    0 -0.70503519693E+03 -0.44943868141E+03  0.84060672577E+03  0.11892191175E+04  0.92480725890E+02 0.  0.
         13    1    3    3    0    0 -0.26612415795E+03 -0.19379917033E+03  0.38845446550E+03  0.50919255457E+03  0.00000000000E+00 0.  1.
        -13    1    3    3    0    0 -0.43891103897E+03 -0.25563951108E+03  0.45215226027E+03  0.68002656288E+03  0.00000000000E+00 0. -1.
         22    1    1    2    0    0  0.70503519693E+03  0.44943868141E+03  0.57471085444E+03  0.10145749472E+04  0.00000000000E+00 0. -1.
<mgrwt>
<rscale>  0 0.16892556E+04</rscale>
<asrwt>0</asrwt>
<pdfrwt beam="1">  1        2 0.27839320E+00 0.16892556E+04</pdfrwt>
<pdfrwt beam="2">  1       -2 0.60652038E-01 0.16892556E+04</pdfrwt>
<totfact> 0.20546952E+01</totfact>
</mgrwt>
</event>
<event>
 6    1  0.1001928E-005  0.2723513E+04  0.7818608E-02  0.8327416E-01
          2   -1    0    0  501    0  0.00000000000E+00  0.00000000000E+00  0.13436301395E+04  0.13436301395E+04  0.00000000000E+00 0. -1.
         -2   -1    0    0    0  501 -0.00000000000E+00 -0.00000000000E+00 -0.13801270569E+04  0.13801270569E+04  0.00000000000E+00 0.  1.
         23    2    1    2    0    0  0.90409895017E+03  0.77717223676E+03  0.63658653547E+03  0.13546578823E+04  0.91999802612E+02 0.  0.
         13    1    3    3    0    0  0.34533784963E+03  0.27491528278E+03  0.28267693475E+03  0.52415922441E+03  0.00000000000E+00 0.  1.
        -13    1    3    3    0    0  0.55876110054E+03  0.50225695398E+03  0.35390960072E+03  0.83049865790E+03  0.00000000000E+00 0. -1.
         22    1    1    2    0    0 -0.90409895017E+03 -0.77717223676E+03 -0.67308345282E+03  0.13690993141E+04  0.00000000000E+00 0.  1.
<mgrwt>
<rscale>  0 0.27235127E+04</rscale>
<asrwt>0</asrwt>
<pdfrwt beam="1">  1        2 0.20671233E+00 0.27235127E+04</pdfrwt>
<pdfrwt beam="2">  1       -2 0.21232724E+00 0.27235127E+04</pdfrwt>
<totfact> 0.15105934E+00</totfact>
</mgrwt>
</event>
<event>
 6    1  0.1001928E-005  0.6008443E+04  0.7818608E-02  0.7689356E-01
          1   -1    0    0  501    0  0.00000000000E+00  0.00000000000E+00  0.36602844616E+04  0.36602844616E+04  0.00000000000E+00 0. -1.
         -1   -1    0    0    0  501 -0.00000000000E+00 -0.00000000000E+00 -0.24657500397E+04  0.24657500397E+04  0.00000000000E+00 0.  1.
         23    2    1    2    0    0  0.29541339270E+04  0.37568540547E+03  0.19844485705E+03  0.29859324005E+04  0.91461229540E+02 0.  0.
         11    1    3    3    0    0  0.16439690036E+04  0.25284987751E+03  0.12410589014E+03  0.16679236845E+04  0.00000000000E+00 0. -1.
        -11    1    3    3    0    0  0.13101649234E+04  0.12283552796E+03  0.74338966915E+02  0.13180087160E+04  0.00000000000E+00 0.  1.
         22    1    1    2    0    0 -0.29541339270E+04 -0.37568540547E+03  0.99608956482E+03  0.31401021008E+04  0.00000000000E+00 0.  1.
<mgrwt>
<rscale>  0 0.60084429E+04</rscale>
<asrwt>0</asrwt>
<pdfrwt beam="1">  1        1 0.56312069E+00 0.60084429E+04</pdfrwt>
<pdfrwt beam="2">  1       -1 0.37934616E+00 0.60084429E+04</pdfrwt>
<totfact> 0.12251821E-03</totfact>
</mgrwt>
</event>
<event>
 6    1  0.1001928E-005  0.3757727E+04  0.7818608E-02  0.8055288E-01
         -2   -1    0    0    0  501 -0.00000000000E+00  0.00000000000E+00  0.20220696898E+04  0.20220696898E+04  0.00000000000E+00 0.  1.
          2   -1    0    0  501    0  0.00000000000E+00 -0.00000000000E+00 -0.17457991283E+04  0.17457991283E+04  0.00000000000E+00 0. -1.
         23    2    1    2    0    0 -0.16783562992E+04 -0.84231640872E+03  0.15103978493E+03  0.18858328070E+04  0.84708676886E+02 0.  0.
         11    1    3    3    0    0 -0.72504618355E+03 -0.39319110219E+03  0.33342019464E+02  0.82547132075E+03  0.00000000000E+00 0. -1.
        -11    1    3    3    0    0 -0.95331011564E+03 -0.44912530653E+03  0.11769776547E+03  0.10603614863E+04  0.00000000000E+00 0.  1.
         22    1    1    2    0    0  0.16783562992E+04  0.84231640872E+03  0.12523077655E+03  0.18820360110E+04  0.00000000000E+00 0. -1.
<mgrwt>
<rscale>  0 0.37577267E+04</rscale>
<asrwt>0</asrwt>
<pdfrwt beam="1">  1        2 0.26858448E+00 0.37577267E+04</pdfrwt>
<pdfrwt beam="2">  1       -2 0.31108764E+00 0.37577267E+04</pdfrwt>
<totfact> 0.20217927E-01</totfact>
</mgrwt>
</event>
<event>
 6    1  0.1001928E-005  0.1868148E+04  0.7818608E-02  0.8670875E-01
         -1   -1    0    0    0  501 -0.00000000000E+00  0.00000000000E+00  0.64268363956E+03  0.64268363956E+03  0.00000000000E+00 0.  1.
          1   -1    0    0  501    0  0.00000000000E+00 -0.00000000000E+00 -0.13575801559E+04  0.13575801559E+04  0.00000000000E+00 0. -1.
         23    2    1    2    0    0  0.28153019586E+03  0.11800127438E+03 -0.13007890118E+04  0.13396174694E+04  0.96640360258E+02 0.  0.
         13    1    3    3    0    0  0.91677734435E+02  0.18423170627E+02 -0.24404659765E+03  0.26134835379E+03  0.00000000000E+00 0. -1.
        -13    1    3    3    0    0  0.18985246143E+03  0.99578103754E+02 -0.10567424141E+04  0.10782691156E+04  0.00000000000E+00 0.  1.
         22    1    1    2    0    0 -0.28153019586E+03 -0.11800127438E+03  0.58589249543E+03  0.66064632606E+03  0.00000000000E+00 0.  1.
<mgrwt>
<rscale>  0 0.18681483E+04</rscale>
<asrwt>0</asrwt>
<pdfrwt beam="1">  1        1 0.20885849E+00 0.18681483E+04</pdfrwt>
<pdfrwt beam="2">  1       -1 0.98874406E-01 0.18681483E+04</pdfrwt>
<totfact> 0.75529817E+00</totfact>
</mgrwt>
</event>
<event>
 6    1  0.1001928E-005  0.3520447E+04  0.7818608E-02  0.8108961E-01
         -1   -1    0    0    0  501 -0.00000000000E+00  0.00000000000E+00  0.20375644998E+04  0.20375644998E+04  0.00000000000E+00 0.  1.
          1   -1    0    0  501    0  0.00000000000E+00 -0.00000000000E+00 -0.15206328768E+04  0.15206328768E+04  0.00000000000E+00 0. -1.
         23    2    1    2    0    0 -0.98121843984E+03 -0.14599169822E+04  0.25983539797E+03  0.17804893886E+04  0.92091297395E+02 0.  0.
         11    1    3    3    0    0 -0.45466930458E+03 -0.65785133761E+03  0.16329385155E+03  0.81618468553E+03  0.00000000000E+00 0. -1.
        -11    1    3    3    0    0 -0.52654913526E+03 -0.80206564462E+03  0.96541546414E+02  0.96430470304E+03  0.00000000000E+00 0.  1.
         22    1    1    2    0    0  0.98121843984E+03  0.14599169822E+04  0.25709622506E+03  0.17777079880E+04  0.00000000000E+00 0. -1.
<mgrwt>
<rscale>  0 0.35204475E+04</rscale>
<asrwt>0</asrwt>
<pdfrwt beam="1">  1        1 0.23394352E+00 0.35204475E+04</pdfrwt>
<pdfrwt beam="2">  1       -1 0.31347146E+00 0.35204475E+04</pdfrwt>
<totfact> 0.13913823E-01</totfact>
</mgrwt>
</event>
<event>
 6    1  0.1001928E-005  0.1379469E+04  0.7818608E-02  0.8968815E-01
          1   -1    0    0  501    0  0.00000000000E+00  0.00000000000E+00  0.25603335539E+03  0.25603335539E+03  0.00000000000E+00 0. -1.
         -1   -1    0    0    0  501 -0.00000000000E+00 -0.00000000000E+00 -0.18580929875E+04  0.18580929875E+04  0.00000000000E+00 0.  1.
         23    2    1    2    0    0  0.10643196218E+03  0.48055090896E+03 -0.70331770384E+02  0.50526115864E+03  0.89918528825E+02 0.  0.
         13    1    3    3    0    0  0.11064901716E+03  0.30911081967E+03 -0.35114204115E+02  0.33019041652E+03  0.00000000000E+00 0.  1.
        -13    1    3    3    0    0 -0.42170549850E+01  0.17144008930E+03 -0.35217566269E+02  0.17507074212E+03  0.00000000000E+00 0. -1.
         22    1    1    2    0    0 -0.10643196218E+03 -0.48055090896E+03 -0.15317278617E+04  0.16088651843E+04  0.00000000000E+00 0.  1.
<mgrwt>
<rscale>  0 0.13794691E+04</rscale>
<asrwt>0</asrwt>
<pdfrwt beam="1">  1        1 0.39389748E-01 0.13794691E+04</pdfrwt>
<pdfrwt beam="2">  1       -1 0.28586045E+00 0.13794691E+04</pdfrwt>
<totfact> 0.43061432E+00</totfact>
</mgrwt>
</event>
<event>
 6    1  0.1001928E-005  0.3121932E+04  0.7818608E-02  0.8209745E-01
         -1   -1    0    0    0  501 -0.00000000000E+00  0.00000000000E+00  0.88910873181E+03  0.88910873181E+03  0.00000000000E+00 0.  1.
          1   -1    0    0  501    0  0.00000000000E+00 -0.00000000000E+00 -0.27405139289E+04  0.27405139289E+04  0.00000000000E+00 0. -1.
         23    2    1    2    0    0  0.14513359765E+04 -0.39057276045E+03 -0.44208243659E+03  0.15692552563E+04  0.90564788117E+02 0.  0.
         13    1    3    3    0    0  0.68192403393E+03 -0.17624511835E+03 -0.25374063577E+03  0.74864346657E+03  0.00000000000E+00 0. -1.
        -13    1    3    3    0    0  0.76941194257E+03 -0.21432764210E+03 -0.18834180081E+03  0.82061178975E+03  0.00000000000E+00 0.  1.
         22    1    1    2    0    0 -0.14513359765E+04  0.39057276045E+03 -0.14093227605E+04  0.20603674044E+04  0.00000000000E+00 0. -1.
<mgrwt>
<rscale>  0 0.31219320E+04</rscale>
<asrwt>0</asrwt>
<pdfrwt beam="1">  1        1 0.42161752E+00 0.31219320E+04</pdfrwt>
<pdfrwt beam="2">  1       -1 0.13678596E+00 0.31219320E+04</pdfrwt>
<totfact> 0.34436521E-01</totfact>
</mgrwt>
</event>
<event>
 6    1  0.1001928E-005  0.2957319E+04  0.7818608E-02  0.8256025E-01
         -2   -1    0    0    0  501 -0.00000000000E+00  0.00000000000E+00  0.11857524556E+04  0.11857524556E+04  0.00000000000E+00 0. -1.
          2   -1    0    0  501    0  0.00000000000E+00 -0.00000000000E+00 -0.18439214136E+04  0.18439214136E+04  0.00000000000E+00 0.  1.
         23    2    1    2    0    0  0.92647819810E+03 -0.57954429026E+03  0.68876194769E+03  0.12951836557E+04  0.94203214218E+02 0.  0.
         11    1    3    3    0    0  0.65579329700E+03 -0.37335194582E+03  0.51012879632E+03  0.91087206164E+03  0.00000000000E+00 0. -1.
        -11    1    3    3    0    0  0.27068490110E+03 -0.20619234443E+03  0.17863315137E+03  0.38431159409E+03  0.00000000000E+00 0.  1.
         22    1    1    2    0    0 -0.92647819810E+03  0.57954429026E+03 -0.13469309057E+04  0.17344902135E+04  0.00000000000E+00 0.  1.
<mgrwt>
<rscale>  0 0.29573193E+04</rscale>
<asrwt>0</asrwt>
<pdfrwt beam="1">  1        2 0.28368022E+00 0.29573193E+04</pdfrwt>
<pdfrwt beam="2">  1       -2 0.18242346E+00 0.29573193E+04</pdfrwt>
<totfact> 0.12229011E+00</totfact>
</mgrwt>
</event>
<event>
 6    1  0.1001928E-005  0.4188542E+04  0.7818608E-02  0.7967555E-01
          2   -1    0    0  501    0  0.00000000000E+00  0.00000000000E+00  0.36553678807E+04  0.36553678807E+04  0.00000000000E+00 0. -1.
         -2   -1    0    0    0  501 -0.00000000000E+00 -0.00000000000E+00 -0.11998715138E+04  0.11998715138E+04  0.00000000000E+00 0.  1.
         23    2    1    2    0    0 -0.58437810865E+03 -0.79359884991E+03 -0.91244870940E+03  0.13460584437E+04  0.89519708350E+02 0.  0.
         11    1    3    3    0    0 -0.19618656442E+03 -0.32921331322E+03 -0.32308290998E+03  0.50125157394E+03  0.00000000000E+00 0.  1.
        -11    1    3    3    0    0 -0.38819154423E+03 -0.46438553669E+03 -0.58936579942E+03  0.84480686978E+03  0.00000000000E+00 0. -1.
         22    1    1    2    0    0  0.58437810865E+03  0.79359884991E+03  0.33679450763E+04  0.35091809508E+04  0.00000000000E+00 0. -1.
<mgrwt>
<rscale>  0 0.41885424E+04</rscale>
<asrwt>0</asrwt>
<pdfrwt beam="1">  1        2 0.56236429E+00 0.41885424E+04</pdfrwt>
<pdfrwt beam="2">  1       -2 0.18459562E+00 0.41885424E+04</pdfrwt>
<totfact> 0.82272632E-02</totfact>
</mgrwt>
</event>
<event>
 6    1  0.1001928E-005  0.1487972E+04  0.7818608E-02  0.8892491E-01
         -1   -1    0    0    0  501 -0.00000000000E+00  0.00000000000E+00  0.26008292188E+03  0.26008292188E+03  0.00000000000E+00 0.  1.
          1   -1    0    0  501    0  0.00000000000E+00 -0.00000000000E+00 -0.21282258965E+04  0.21282258965E+04  0.00000000000E+00 0. -1.
         23    2    1    2    0    0  0.35308619876E+03 -0.52073845437E+03 -0.15666674629E+04  0.16906513912E+04  0.89536503709E+02 0.  0.
         13    1    3    3    0    0  0.15708142931E+03 -0.25111194626E+03 -0.62267907361E+03  0.68953681098E+03  0.00000000000E+00 0. -1.
        -13    1    3    3    0    0  0.19600476946E+03 -0.26962650811E+03 -0.94398838929E+03  0.10011145802E+04  0.00000000000E+00 0.  1.
         22    1    1    2    0    0 -0.35308619876E+03  0.52073845437E+03 -0.30147551177E+03  0.69765742726E+03  0.00000000000E+00 0.  1.
<mgrwt>
<rscale>  0 0.14879721E+04</rscale>
<asrwt>0</asrwt>
<pdfrwt beam="1">  1        1 0.32741937E+00 0.14879721E+04</pdfrwt>
<pdfrwt beam="2">  1       -1 0.40012757E-01 0.14879721E+04</pdfrwt>
<totfact> 0.14386905E+01</totfact>
</mgrwt>
</event>
<event>
 6    1  0.1001928E-005  0.1103947E+04  0.7818608E-02  0.9201353E-01
         -2   -1    0    0    0  501 -0.00000000000E+00  0.00000000000E+00  0.23566155415E+03  0.23566155415E+03  0.00000000000E+00 0.  1.
          2   -1    0    0  501    0  0.00000000000E+00 -0.00000000000E+00 -0.12928490675E+04  0.12928490675E+04  0.00000000000E+00 0. -1.
         23    2    1    2    0    0 -0.44647519009E+03  0.23117820614E+03 -0.83447308688E+03  0.97861501875E+03  0.92512506412E+02 0.  0.
         11    1    3    3    0    0 -0.15192863595E+03  0.33213794578E+02 -0.28010182865E+03  0.32037868373E+03  0.00000000000E+00 0.  1.
        -11    1    3    3    0    0 -0.29454655413E+03  0.19796441156E+03 -0.55437125823E+03  0.65823633502E+03  0.00000000000E+00 0. -1.
         22    1    1    2    0    0  0.44647519009E+03 -0.23117820614E+03 -0.22271442651E+03  0.54989560294E+03  0.00000000000E+00 0.  1.
<mgrwt>
<rscale>  0 0.11039471E+04</rscale>
<asrwt>0</asrwt>
<pdfrwt beam="1">  1        2 0.19889986E+00 0.11039471E+04</pdfrwt>
<pdfrwt beam="2">  1       -2 0.36255623E-01 0.11039471E+04</pdfrwt>
<totfact> 0.11850542E+02</totfact>
</mgrwt>
</event>
<event>
 6    1  0.1001928E-005  0.2769512E+04  0.7818608E-02  0.8312797E-01
         -1   -1    0    0    0  501 -0.00000000000E+00  0.00000000000E+00  0.74505106046E+03  0.74505106046E+03  0.00000000000E+00 0.  1.
          1   -1    0    0  501    0  0.00000000000E+00 -0.00000000000E+00 -0.25737153948E+04  0.25737153948E+04  0.00000000000E+00 0. -1.
         23    2    1    2    0    0 -0.12828367155E+04  0.18975955938E+03 -0.33815632735E+03  0.13430911662E+04  0.88687371171E+02 0.  0.
         13    1    3    3    0    0 -0.89894968286E+03  0.10151079387E+03 -0.20824826608E+03  0.92832231144E+03  0.00000000000E+00 0.  1.
        -13    1    3    3    0    0 -0.38388703267E+03  0.88248765507E+02 -0.12990806128E+03  0.41476885472E+03  0.00000000000E+00 0. -1.
         22    1    1    2    0    0  0.12828367155E+04 -0.18975955938E+03 -0.14905080070E+04  0.19756752891E+04  0.00000000000E+00 0.  1.
<mgrwt>
<rscale>  0 0.27695121E+04</rscale>
<asrwt>0</asrwt>
<pdfrwt beam="1">  1        1 0.39595622E+00 0.27695121E+04</pdfrwt>
<pdfrwt beam="2">  1       -1 0.11462324E+00 0.27695121E+04</pdfrwt>
<totfact> 0.72249143E-01</totfact>
</mgrwt>
</event>
<event>
 6    1  0.1001928E-005  0.8799427E+03  0.7818608E-02  0.9451007E-01
         -1   -1    0    0    0  501 -0.00000000000E+00  0.00000000000E+00  0.86163928601E+02  0.86163928601E+02  0.00000000000E+00 0.  1.
          1   -1    0    0  501    0  0.00000000000E+00 -0.00000000000E+00 -0.22465873240E+04  0.22465873240E+04  0.00000000000E+00 0. -1.
         23    2    1    2    0    0 -0.31906272232E+03  0.17956290360E+03 -0.17165015429E+04  0.17573292611E+04  0.88231106710E+02 0.  0.
         13    1    3    3    0    0 -0.17451572163E+03  0.12133166844E+03 -0.80421609909E+03  0.83182969705E+03  0.00000000000E+00 0. -1.
        -13    1    3    3    0    0 -0.14454700069E+03  0.58231235155E+02 -0.91228544379E+03  0.92549956408E+03  0.00000000000E+00 0.  1.
         22    1    1    2    0    0  0.31906272232E+03 -0.17956290360E+03 -0.44392185251E+03  0.57542199146E+03  0.00000000000E+00 0.  1.
<mgrwt>
<rscale>  0 0.87994270E+03</rscale>
<asrwt>0</asrwt>
<pdfrwt beam="1">  1        1 0.34562877E+00 0.87994270E+03</pdfrwt>
<pdfrwt beam="2">  1       -1 0.13255991E-01 0.87994270E+03</pdfrwt>
<totfact> 0.83252427E+01</totfact>
</mgrwt>
</event>
<event>
 6    1  0.1001928E-005  0.1548156E+04  0.7818608E-02  0.8853046E-01
          1   -1    0    0  501    0  0.00000000000E+00  0.00000000000E+00  0.81429536984E+03  0.81429536984E+03  0.00000000000E+00 0. -1.
         -1   -1    0    0    0  501 -0.00000000000E+00 -0.00000000000E+00 -0.73584694725E+03  0.73584694725E+03  0.00000000000E+00 0.  1.
         23    2    1    2    0    0  0.62530350279E+03  0.41152265759E+03  0.22523242779E+03  0.78731801721E+03  0.93726439035E+02 0.  0.
         11    1    3    3    0    0  0.22582559037E+03  0.96577990002E+02  0.79536813590E+02  0.25816779454E+03  0.00000000000E+00 0.  1.
        -11    1    3    3    0    0  0.39947791242E+03  0.31494466759E+03  0.14569561420E+03  0.52915022267E+03  0.00000000000E+00 0. -1.
         22    1    1    2    0    0 -0.62530350279E+03 -0.41152265759E+03 -0.14678400520E+03  0.76282429989E+03  0.00000000000E+00 0.  1.
<mgrwt>
<rscale>  0 0.15481560E+04</rscale>
<asrwt>0</asrwt>
<pdfrwt beam="1">  1        1 0.12527621E+00 0.15481560E+04</pdfrwt>
<pdfrwt beam="2">  1       -1 0.11320722E+00 0.15481560E+04</pdfrwt>
<totfact> 0.14760969E+01</totfact>
</mgrwt>
</event>
<event>
 6    1  0.1001928E-005  0.1248483E+04  0.7818608E-02  0.9071447E-01
         -2   -1    0    0    0  501 -0.00000000000E+00  0.00000000000E+00  0.11829660274E+03  0.11829660274E+03  0.00000000000E+00 0.  1.
          2   -1    0    0  501    0  0.00000000000E+00 -0.00000000000E+00 -0.32940704265E+04  0.32940704265E+04  0.00000000000E+00 0. -1.
         23    2    1    2    0    0  0.40768757229E+03 -0.21400164127E+03 -0.46155326148E+03  0.65936882369E+03  0.98640627582E+02 0.  0.
         11    1    3    3    0    0  0.22785426147E+02 -0.44532117085E+02 -0.41956503075E+02  0.65288844736E+02  0.00000000000E+00 0. -1.
        -11    1    3    3    0    0  0.38490214615E+03 -0.16946952418E+03 -0.41959675840E+03  0.59407997895E+03  0.00000000000E+00 0.  1.
         22    1    1    2    0    0 -0.40768757229E+03  0.21400164127E+03 -0.27142205623E+04  0.27529982056E+04  0.00000000000E+00 0. -1.
<mgrwt>
<rscale>  0 0.12484828E+04</rscale>
<asrwt>0</asrwt>
<pdfrwt beam="1">  1        2 0.50678005E+00 0.12484828E+04</pdfrwt>
<pdfrwt beam="2">  1       -2 0.18199478E-01 0.12484828E+04</pdfrwt>
<totfact> 0.28391143E+01</totfact>
</mgrwt>
</event>
<event>
 6    1  0.1219597E-005  0.4940093E+04  0.7818608E-02  0.7837815E-01
         -2   -1    0    0    0  501 -0.00000000000E+00  0.00000000000E+00  0.16341216946E+04  0.16341216946E+04  0.00000000000E+00 0.  1.
          2   -1    0    0  501    0  0.00000000000E+00 -0.00000000000E+00 -0.37335830597E+04  0.37335830597E+04  0.00000000000E+00 0. -1.
         23    2    1    2    0    0  0.16611745388E+03 -0.13120199083E+04 -0.33158155734E+04  0.35708995873E+04  0.87747920617E+02 0.  0.
         13    1    3    3    0    0  0.62249990449E+02 -0.76520365049E+03 -0.19928444608E+04  0.21356124960E+04  0.00000000000E+00 0.  1.
        -13    1    3    3    0    0  0.10386746343E+03 -0.54681625778E+03 -0.13229711126E+04  0.14352870913E+04  0.00000000000E+00 0. -1.
         22    1    1    2    0    0 -0.16611745388E+03  0.13120199083E+04  0.12163542083E+04  0.17968051670E+04  0.00000000000E+00 0.  1.
<mgrwt>
<rscale>  0 0.49400927E+04</rscale>
<asrwt>0</asrwt>
<pdfrwt beam="1">  1        2 0.57439739E+00 0.49400927E+04</pdfrwt>
<pdfrwt beam="2">  1       -2 0.25140334E+00 0.49400927E+04</pdfrwt>
<totfact> 0.25319318E-02</totfact>
</mgrwt>
</event>
<event>
 6    1  0.1001928E-005  0.2492106E+04  0.7818608E-02  0.8405803E-01
         -1   -1    0    0    0  501 -0.00000000000E+00  0.00000000000E+00  0.95331213525E+03  0.95331213525E+03  0.00000000000E+00 0.  1.
          1   -1    0    0  501    0  0.00000000000E+00 -0.00000000000E+00 -0.16286882028E+04  0.16286882028E+04  0.00000000000E+00 0. -1.
         23    2    1    2    0    0 -0.33885227284E+02 -0.85162623611E+03  0.59938212926E+03  0.10485650068E+04  0.11753374844E+03 0.  0.
         11    1    3    3    0    0 -0.14191126852E+02 -0.30784232623E+03  0.14943039736E+03  0.34248756117E+03  0.00000000000E+00 0. -1.
        -11    1    3    3    0    0 -0.19694100431E+02 -0.54378390988E+03  0.44995173191E+03  0.70607744567E+03  0.00000000000E+00 0.  1.
         22    1    1    2    0    0  0.33885227284E+02  0.85162623611E+03 -0.12747581968E+04  0.15334353312E+04  0.00000000000E+00 0. -1.
<mgrwt>
<rscale>  0 0.24921061E+04</rscale>
<asrwt>0</asrwt>
<pdfrwt beam="1">  1        1 0.25056742E+00 0.24921061E+04</pdfrwt>
<pdfrwt beam="2">  1       -1 0.14666341E+00 0.24921061E+04</pdfrwt>
<totfact> 0.17571281E+00</totfact>
</mgrwt>
</event>
<event>
 6    1  0.1001928E-005  0.9310104E+03  0.7818608E-02  0.9387626E-01
          2   -1    0    0  501    0  0.00000000000E+00  0.00000000000E+00  0.41560299272E+04  0.41560299272E+04  0.00000000000E+00 0. -1.
         -2   -1    0    0    0  501 -0.00000000000E+00 -0.00000000000E+00 -0.52139925101E+02  0.52139925101E+02  0.00000000000E+00 0.  1.
         23    2    1    2    0    0  0.14555289368E+03 -0.15483259717E+03  0.39210295963E+04  0.39278188116E+04  0.90159546416E+02 0.  0.
         13    1    3    3    0    0  0.31058858908E+02 -0.95336188039E+02  0.14929351656E+04  0.14962984496E+04  0.00000000000E+00 0. -1.
        -13    1    3    3    0    0  0.11449403478E+03 -0.59496409134E+02  0.24280944307E+04  0.24315203620E+04  0.00000000000E+00 0.  1.
         22    1    1    2    0    0 -0.14555289368E+03  0.15483259717E+03  0.18286040581E+03  0.28035104070E+03  0.00000000000E+00 0.  1.
<mgrwt>
<rscale>  0 0.93101040E+03</rscale>
<asrwt>0</asrwt>
<pdfrwt beam="1">  1        2 0.63938896E+00 0.93101040E+03</pdfrwt>
<pdfrwt beam="2">  1       -2 0.80215302E-02 0.93101040E+03</pdfrwt>
<totfact> 0.26800762E+01</totfact>
</mgrwt>
</event>
<event>
 6    1  0.1001928E-005  0.2213607E+04  0.7818608E-02  0.8512786E-01
          2   -1    0    0  501    0  0.00000000000E+00  0.00000000000E+00  0.68167930182E+03  0.68167930182E+03  0.00000000000E+00 0. -1.
         -2   -1    0    0    0  501 -0.00000000000E+00 -0.00000000000E+00 -0.17970535796E+04  0.17970535796E+04  0.00000000000E+00 0.  1.
         23    2    1    2    0    0  0.83239716850E+03  0.50611091879E+03  0.25592721790E+02  0.97845324003E+03  0.87649570830E+02 0.  0.
         11    1    3    3    0    0  0.34525028559E+03  0.20890568751E+03 -0.32567683731E+02  0.40484564960E+03  0.00000000000E+00 0. -1.
        -11    1    3    3    0    0  0.48714688291E+03  0.29720523128E+03  0.58160405522E+02  0.57360759043E+03  0.00000000000E+00 0.  1.
         22    1    1    2    0    0 -0.83239716850E+03 -0.50611091879E+03 -0.11409669995E+04  0.15002796414E+04  0.00000000000E+00 0.  1.
<mgrwt>
<rscale>  0 0.22136072E+04</rscale>
<asrwt>0</asrwt>
<pdfrwt beam="1">  1        2 0.10487374E+00 0.22136072E+04</pdfrwt>
<pdfrwt beam="2">  1       -2 0.27646978E+00 0.22136072E+04</pdfrwt>
<totfact> 0.17121127E+00</totfact>
</mgrwt>
</event>
<event>
 6    1  0.1001928E-005  0.5593413E+04  0.7818608E-02  0.7742965E-01
          2   -1    0    0  501    0  0.00000000000E+00  0.00000000000E+00  0.36843093740E+04  0.36843093740E+04  0.00000000000E+00 0. -1.
         -2   -1    0    0    0  501 -0.00000000000E+00 -0.00000000000E+00 -0.21229396647E+04  0.21229396647E+04  0.00000000000E+00 0.  1.
         23    2    1    2    0    0  0.23774515271E+04 -0.10338050781E+04 -0.30626723358E+03  0.26120813665E+04  0.90226068363E+02 0.  0.
         11    1    3    3    0    0  0.11275115851E+04 -0.44808440682E+03 -0.16643343855E+03  0.12246477451E+04  0.00000000000E+00 0.  1.
        -11    1    3    3    0    0  0.12499399420E+04 -0.58572067132E+03 -0.13983379502E+03  0.13874336214E+04  0.00000000000E+00 0. -1.
         22    1    1    2    0    0 -0.23774515271E+04  0.10338050781E+04  0.18676369429E+04  0.31951676723E+04  0.00000000000E+00 0. -1.
<mgrwt>
<rscale>  0 0.55934127E+04</rscale>
<asrwt>0</asrwt>
<pdfrwt beam="1">  1        2 0.56681683E+00 0.55934127E+04</pdfrwt>
<pdfrwt beam="2">  1       -2 0.32660610E+00 0.55934127E+04</pdfrwt>
<totfact> 0.90472714E-03</totfact>
</mgrwt>
</event>
<event>
 6    1  0.1001928E-005  0.3274794E+04  0.7818608E-02  0.8169339E-01
          1   -1    0    0  501    0  0.00000000000E+00  0.00000000000E+00  0.12255885452E+04  0.12255885452E+04  0.00000000000E+00 0. -1.
         -1   -1    0    0    0  501 -0.00000000000E+00 -0.00000000000E+00 -0.21875764918E+04  0.21875764918E+04  0.00000000000E+00 0.  1.
         23    2    1    2    0    0 -0.15317479815E+04  0.40979002188E+03 -0.60933623910E+02  0.15894110422E+04  0.91295200177E+02 0.  0.
         11    1    3    3    0    0 -0.20347016200E+03  0.25804554819E+02  0.51719066500E+01  0.20516512982E+03  0.00000000000E+00 0. -1.
        -11    1    3    3    0    0 -0.13282778195E+04  0.38398546706E+03 -0.66105530560E+02  0.13842459124E+04  0.00000000000E+00 0.  1.
         22    1    1    2    0    0  0.15317479815E+04 -0.40979002188E+03 -0.90105432271E+03  0.18237539948E+04  0.00000000000E+00 0. -1.
<mgrwt>
<rscale>  0 0.32747939E+04</rscale>
<asrwt>0</asrwt>
<pdfrwt beam="1">  1        1 0.18855209E+00 0.32747939E+04</pdfrwt>
<pdfrwt beam="2">  1       -1 0.33655023E+00 0.32747939E+04</pdfrwt>
<totfact> 0.16219145E-01</totfact>
</mgrwt>
</event>
<event>
 6    1  0.1001928E-005  0.2884491E+04  0.7818608E-02  0.8277507E-01
         -2   -1    0    0    0  501 -0.00000000000E+00  0.00000000000E+00  0.15545660349E+04  0.15545660349E+04  0.00000000000E+00 0.  1.
          2   -1    0    0  501    0  0.00000000000E+00 -0.00000000000E+00 -0.13380399573E+04  0.13380399573E+04  0.00000000000E+00 0. -1.
         23    2    1    2    0    0 -0.70350744632E+03 -0.11249816787E+04  0.67155762560E+03  0.14899085144E+04  0.91275585531E+02 0.  0.
         13    1    3    3    0    0 -0.36401265034E+03 -0.49839340150E+03  0.30033386326E+03  0.68636842999E+03  0.00000000000E+00 0. -1.
        -13    1    3    3    0    0 -0.33949479599E+03 -0.62658827718E+03  0.37122376234E+03  0.80354008445E+03  0.00000000000E+00 0.  1.
         22    1    1    2    0    0  0.70350744632E+03  0.11249816787E+04 -0.45503154796E+03  0.14026974777E+04  0.00000000000E+00 0. -1.
<mgrwt>
<rscale>  0 0.28844906E+04</rscale>
<asrwt>0</asrwt>
<pdfrwt beam="1">  1        2 0.20585230E+00 0.28844906E+04</pdfrwt>
<pdfrwt beam="2">  1       -2 0.23916401E+00 0.28844906E+04</pdfrwt>
<totfact> 0.10177560E+00</totfact>
</mgrwt>
</event>
<event>
 6    1  0.1001928E-005  0.3427716E+04  0.7818608E-02  0.8131137E-01
          1   -1    0    0  501    0  0.00000000000E+00  0.00000000000E+00  0.16123393638E+04  0.16123393638E+04  0.00000000000E+00 0. -1.
         -1   -1    0    0    0  501 -0.00000000000E+00 -0.00000000000E+00 -0.18217690161E+04  0.18217690161E+04  0.00000000000E+00 0.  1.
         23    2    1    2    0    0 -0.13166960457E+04  0.60149080200E+03 -0.10216500291E+04  0.17742344081E+04  0.93055313174E+02 0.  0.
         11    1    3    3    0    0 -0.90781966128E+03  0.39467354804E+03 -0.64972201464E+03  0.11840787319E+04  0.00000000000E+00 0.  1.
        -11    1    3    3    0    0 -0.40887638443E+03  0.20681725397E+03 -0.37192801449E+03  0.59015567628E+03  0.00000000000E+00 0. -1.
         22    1    1    2    0    0  0.13166960457E+04 -0.60149080200E+03  0.81222037680E+03  0.16598739718E+04  0.00000000000E+00 0. -1.
<mgrwt>
<rscale>  0 0.34277164E+04</rscale>
<asrwt>0</asrwt>
<pdfrwt beam="1">  1        1 0.24805221E+00 0.34277164E+04</pdfrwt>
<pdfrwt beam="2">  1       -1 0.28027215E+00 0.34277164E+04</pdfrwt>
<totfact> 0.19908637E-01</totfact>
</mgrwt>
</event>
<event>
 6    1  0.1001928E-005  0.1879485E+04  0.7818608E-02  0.8665136E-01
         -2   -1    0    0    0  501 -0.00000000000E+00  0.00000000000E+00  0.88911408112E+03  0.88911408112E+03  0.00000000000E+00 0.  1.
          2   -1    0    0  501    0  0.00000000000E+00 -0.00000000000E+00 -0.99325395374E+03  0.99325395374E+03  0.00000000000E+00 0. -1.
         23    2    1    2    0    0  0.35443352179E+03  0.10702209375E+03  0.81045089979E+03  0.89568007462E+03  0.91297783041E+02 0.  0.
         11    1    3    3    0    0  0.17257195768E+03  0.97568614863E+02  0.39030057569E+03  0.43776164126E+03  0.00000000000E+00 0. -1.
        -11    1    3    3    0    0  0.18186156411E+03  0.94534788905E+01  0.42015032410E+03  0.45791843335E+03  0.00000000000E+00 0.  1.
         22    1    1    2    0    0 -0.35443352179E+03 -0.10702209375E+03 -0.91459077241E+03  0.98668796025E+03  0.00000000000E+00 0. -1.
<mgrwt>
<rscale>  0 0.18794851E+04</rscale>
<asrwt>0</asrwt>
<pdfrwt beam="1">  1        2 0.15280830E+00 0.18794851E+04</pdfrwt>
<pdfrwt beam="2">  1       -2 0.13678678E+00 0.18794851E+04</pdfrwt>
<totfact> 0.91035193E+00</totfact>
</mgrwt>
</event>
<event>
 6    1  0.1001928E-005  0.2397926E+04  0.7818608E-02  0.8440280E-01
         -1   -1    0    0    0  501 -0.00000000000E+00  0.00000000000E+00  0.13984619256E+04  0.13984619256E+04  0.00000000000E+00 0.  1.
          1   -1    0    0  501    0  0.00000000000E+00 -0.00000000000E+00 -0.10279237691E+04  0.10279237691E+04  0.00000000000E+00 0. -1.
         23    2    1    2    0    0 -0.60356626627E+03  0.52479126529E+02  0.12310697348E+04  0.13739785046E+04  0.72373632381E+02 0.  0.
         13    1    3    3    0    0 -0.48483049324E+03  0.34282539484E+02  0.91951997181E+03  0.10400734966E+04  0.00000000000E+00 0.  1.
        -13    1    3    3    0    0 -0.11873577304E+03  0.18196587045E+02  0.31154976295E+03  0.33390500801E+03  0.00000000000E+00 0. -1.
         22    1    1    2    0    0  0.60356626627E+03 -0.52479126529E+02 -0.86053157835E+03  0.10524071901E+04  0.00000000000E+00 0. -1.
<mgrwt>
<rscale>  0 0.23979260E+04</rscale>
<asrwt>0</asrwt>
<pdfrwt beam="1">  1        1 0.15814212E+00 0.23979260E+04</pdfrwt>
<pdfrwt beam="2">  1       -1 0.21514799E+00 0.23979260E+04</pdfrwt>
<totfact> 0.15303502E+00</totfact>
</mgrwt>
</event>
<event>
 6    1  0.1001928E-005  0.7945998E+03  0.7818608E-02  0.9567867E-01
         -2   -1    0    0    0  501 -0.00000000000E+00  0.00000000000E+00  0.17519412261E+03  0.17519412261E+03  0.00000000000E+00 0.  1.
          2   -1    0    0  501    0  0.00000000000E+00 -0.00000000000E+00 -0.90098457309E+03  0.90098457309E+03  0.00000000000E+00 0. -1.
         23    2    1    2    0    0 -0.16810059544E+03  0.17997513138E+01  0.11254216194E+03  0.22115669696E+03  0.89350417468E+02 0.  0.
         11    1    3    3    0    0 -0.12117319055E+03  0.35737607341E+02  0.49861180950E+02  0.13581699471E+03  0.00000000000E+00 0.  1.
        -11    1    3    3    0    0 -0.46927404897E+02 -0.33937856028E+02  0.62680980992E+02  0.85339702251E+02  0.00000000000E+00 0. -1.
         22    1    1    2    0    0  0.16810059544E+03 -0.17997513138E+01 -0.83833261242E+03  0.85502199874E+03  0.00000000000E+00 0. -1.
<mgrwt>
<rscale>  0 0.79459978E+03</rscale>
<asrwt>0</asrwt>
<pdfrwt beam="1">  1        2 0.13861301E+00 0.79459978E+03</pdfrwt>
<pdfrwt beam="2">  1       -2 0.26952942E-01 0.79459978E+03</pdfrwt>
<totfact> 0.36757421E+02</totfact>
</mgrwt>
</event>
<event>
 6    1  0.1001928E-005  0.5502274E+04  0.7818608E-02  0.7755376E-01
          1   -1    0    0  501    0  0.00000000000E+00  0.00000000000E+00  0.36128994171E+04  0.36128994171E+04  0.00000000000E+00 0. -1.
         -1   -1    0    0    0  501 -0.00000000000E+00 -0.00000000000E+00 -0.20949252032E+04  0.20949252032E+04  0.00000000000E+00 0.  1.
         23    2    1    2    0    0 -0.29294755684E+03 -0.79703440694E+03 -0.19545636656E+04  0.21329677783E+04  0.90279031085E+02 0.  0.
         11    1    3    3    0    0 -0.44775434360E+02 -0.52233844356E+02 -0.16627941621E+03  0.17995015497E+03  0.00000000000E+00 0.  1.
        -11    1    3    3    0    0 -0.24817212248E+03 -0.74480056259E+03 -0.17882842493E+04  0.19530176233E+04  0.00000000000E+00 0. -1.
         22    1    1    2    0    0  0.29294755684E+03  0.79703440694E+03  0.34725378795E+04  0.35748568421E+04  0.00000000000E+00 0. -1.
<mgrwt>
<rscale>  0 0.55022737E+04</rscale>
<asrwt>0</asrwt>
<pdfrwt beam="1">  1        1 0.55583068E+00 0.55022737E+04</pdfrwt>
<pdfrwt beam="2">  1       -1 0.32229619E+00 0.55022737E+04</pdfrwt>
<totfact> 0.33279659E-03</totfact>
</mgrwt>
</event>
<event>
 6    1  0.1001928E-005  0.2063672E+04  0.7818608E-02  0.8577417E-01
          2   -1    0    0  501    0  0.00000000000E+00  0.00000000000E+00  0.62383838963E+03  0.62383838963E+03  0.00000000000E+00 0. -1.
         -2   -1    0    0    0  501 -0.00000000000E+00 -0.00000000000E+00 -0.17066683071E+04  0.17066683071E+04  0.00000000000E+00 0.  1.
         23    2    1    2    0    0 -0.31497763505E+03  0.70190035692E+03 -0.13155446770E+04  0.15267460477E+04  0.91764238613E+02 0.  0.
         11    1    3    3    0    0 -0.24998673231E+03  0.47371114834E+03 -0.95972598804E+03  0.10990766991E+04  0.00000000000E+00 0. -1.
        -11    1    3    3    0    0 -0.64990902735E+02  0.22818920857E+03 -0.35581868892E+03  0.42766934860E+03  0.00000000000E+00 0.  1.
         22    1    1    2    0    0  0.31497763505E+03 -0.70190035692E+03  0.23271475950E+03  0.80376064902E+03  0.00000000000E+00 0. -1.
<mgrwt>
<rscale>  0 0.20636717E+04</rscale>
<asrwt>0</asrwt>
<pdfrwt beam="1">  1        2 0.95975138E-01 0.20636717E+04</pdfrwt>
<pdfrwt beam="2">  1       -2 0.26256435E+00 0.20636717E+04</pdfrwt>
<totfact> 0.23525076E+00</totfact>
</mgrwt>
</event>
<event>
 6    1  0.1001928E-005  0.1663066E+04  0.7818608E-02  0.8782714E-01
          2   -1    0    0  501    0  0.00000000000E+00  0.00000000000E+00  0.20306648032E+04  0.20306648032E+04  0.00000000000E+00 0. -1.
         -2   -1    0    0    0  501 -0.00000000000E+00 -0.00000000000E+00 -0.34050272242E+03  0.34050272242E+03  0.00000000000E+00 0.  1.
         23    2    1    2    0    0 -0.33397190730E+03 -0.64011543963E+03  0.14286098820E+04  0.16032517987E+04  0.90582141106E+02 0.  0.
         13    1    3    3    0    0 -0.13322020761E+03 -0.35295210837E+03  0.73381616873E+03  0.82511149793E+03  0.00000000000E+00 0.  1.
        -13    1    3    3    0    0 -0.20075169969E+03 -0.28716333126E+03  0.69479371325E+03  0.77814030080E+03  0.00000000000E+00 0. -1.
         22    1    1    2    0    0  0.33397190730E+03  0.64011543963E+03  0.26155219879E+03  0.76791572690E+03  0.00000000000E+00 0.  1.
<mgrwt>
<rscale>  0 0.16630657E+04</rscale>
<asrwt>0</asrwt>
<pdfrwt beam="1">  1        2 0.31240996E+00 0.16630657E+04</pdfrwt>
<pdfrwt beam="2">  1       -2 0.52385036E-01 0.16630657E+04</pdfrwt>
<totfact> 0.21085754E+01</totfact>
</mgrwt>
</event>
<event>
 6    1  0.1001928E-005  0.3349978E+04  0.7818608E-02  0.8150294E-01
          2   -1    0    0  501    0  0.00000000000E+00  0.00000000000E+00  0.23292452227E+04  0.23292452227E+04  0.00000000000E+00 0. -1.
         -2   -1    0    0    0  501 -0.00000000000E+00 -0.00000000000E+00 -0.12045050794E+04  0.12045050794E+04  0.00000000000E+00 0.  1.
         23    2    1    2    0    0  0.10351916084E+04  0.12584723642E+04  0.15965495246E+03  0.16398749675E+04  0.91246082304E+02 0.  0.
         11    1    3    3    0    0  0.92089438792E+03  0.11605212198E+04  0.14876062333E+03  0.14889545656E+04  0.00000000000E+00 0.  1.
        -11    1    3    3    0    0  0.11429722052E+03  0.97951144417E+02  0.10894329131E+02  0.15092040193E+03  0.00000000000E+00 0. -1.
         22    1    1    2    0    0 -0.10351916084E+04 -0.12584723642E+04  0.96508519078E+03  0.18938753346E+04  0.00000000000E+00 0.  1.
<mgrwt>
<rscale>  0 0.33499777E+04</rscale>
<asrwt>0</asrwt>
<pdfrwt beam="1">  1        2 0.35834542E+00 0.33499777E+04</pdfrwt>
<pdfrwt beam="2">  1       -2 0.18530847E+00 0.33499777E+04</pdfrwt>
<totfact> 0.60516819E-01</totfact>
</mgrwt>
</event>
<event>
 6    1  0.1001928E-005  0.7180915E+04  0.7818608E-02  0.7559060E-01
          2   -1    0    0  501    0  0.00000000000E+00  0.00000000000E+00  0.34777520112E+04  0.34777520112E+04  0.00000000000E+00 0. -1.
         -2   -1    0    0    0  501 -0.00000000000E+00 -0.00000000000E+00 -0.37068152780E+04  0.37068152780E+04  0.00000000000E+00 0.  1.
         23    2    1    2    0    0  0.30072885759E+02 -0.22051669190E+04 -0.29485694069E+04  0.36832276649E+04  0.91863841413E+02 0.  0.
         13    1    3    3    0    0  0.11733468585E+02 -0.17393051827E+04 -0.22646358599E+04  0.28555027176E+04  0.00000000000E+00 0. -1.
        -13    1    3    3    0    0  0.18339417175E+02 -0.46586173634E+03 -0.68393354702E+03  0.82772494727E+03  0.00000000000E+00 0.  1.
         22    1    1    2    0    0 -0.30072885759E+02  0.22051669190E+04  0.27195061400E+04  0.35013396243E+04  0.00000000000E+00 0. -1.
<mgrwt>
<rscale>  0 0.71809148E+04</rscale>
<asrwt>0</asrwt>
<pdfrwt beam="1">  1        2 0.53503877E+00 0.71809148E+04</pdfrwt>
<pdfrwt beam="2">  1       -2 0.57027928E+00 0.71809148E+04</pdfrwt>
<totfact> 0.36164512E-04</totfact>
</mgrwt>
</event>
<event>
 6    1  0.1001928E-005  0.3714200E+04  0.7818608E-02  0.8064822E-01
         -1   -1    0    0    0  501 -0.00000000000E+00  0.00000000000E+00  0.11770944358E+04  0.11770944358E+04  0.00000000000E+00 0.  1.
          1   -1    0    0  501    0  0.00000000000E+00 -0.00000000000E+00 -0.29299437865E+04  0.29299437865E+04  0.00000000000E+00 0. -1.
         23    2    1    2    0    0 -0.14217071325E+04  0.10633559026E+04 -0.27810023978E+03  0.17990386801E+04  0.84991076287E+02 0.  0.
         11    1    3    3    0    0 -0.68817452067E+03  0.46403047309E+03 -0.11745760246E+03  0.83827485900E+03  0.00000000000E+00 0. -1.
        -11    1    3    3    0    0 -0.73353261186E+03  0.59932542946E+03 -0.16064263732E+03  0.96076382113E+03  0.00000000000E+00 0.  1.
         22    1    1    2    0    0  0.14217071325E+04 -0.10633559026E+04 -0.14747491109E+04  0.23079995421E+04  0.00000000000E+00 0. -1.
<mgrwt>
<rscale>  0 0.37142001E+04</rscale>
<asrwt>0</asrwt>
<pdfrwt beam="1">  1        1 0.45076058E+00 0.37142001E+04</pdfrwt>
<pdfrwt beam="2">  1       -1 0.18109145E+00 0.37142001E+04</pdfrwt>
<totfact> 0.11003018E-01</totfact>
</mgrwt>
</event>
<event>
 6    1  0.1001928E-005  0.1697724E+04  0.7818608E-02  0.8762664E-01
          2   -1    0    0  501    0  0.00000000000E+00  0.00000000000E+00  0.16808474977E+04  0.16808474977E+04  0.00000000000E+00 0. -1.
         -2   -1    0    0    0  501 -0.00000000000E+00 -0.00000000000E+00 -0.42869237869E+03  0.42869237869E+03  0.00000000000E+00 0.  1.
         23    2    1    2    0    0 -0.10899534363E+03  0.46100551028E+03  0.14995662861E+04  0.15751071387E+04  0.88641899521E+02 0.  0.
         13    1    3    3    0    0 -0.64359755528E+01  0.19023979941E+03  0.52511145567E+03  0.55854690397E+03  0.00000000000E+00 0. -1.
        -13    1    3    3    0    0 -0.10255936807E+03  0.27076571087E+03  0.97445483048E+03  0.10165602347E+04  0.00000000000E+00 0.  1.
         22    1    1    2    0    0  0.10899534363E+03 -0.46100551028E+03 -0.24741116717E+03  0.53443273766E+03  0.00000000000E+00 0.  1.
<mgrwt>
<rscale>  0 0.16977238E+04</rscale>
<asrwt>0</asrwt>
<pdfrwt beam="1">  1        2 0.25859192E+00 0.16977238E+04</pdfrwt>
<pdfrwt beam="2">  1       -2 0.65952674E-01 0.16977238E+04</pdfrwt>
<totfact> 0.20235842E+01</totfact>
</mgrwt>
</event>
<event>
 6    1  0.1001928E-005  0.1403969E+04  0.7818608E-02  0.8950951E-01
          1   -1    0    0  501    0  0.00000000000E+00  0.00000000000E+00  0.97982825144E+03  0.97982825144E+03  0.00000000000E+00 0. -1.
         -1   -1    0    0    0  501 -0.00000000000E+00 -0.00000000000E+00 -0.50292723775E+03  0.50292723775E+03  0.00000000000E+00 0.  1.
         23    2    1    2    0    0 -0.87496309272E+01 -0.55725690198E+03  0.68500028908E+03  0.88784615219E+03  0.91834541834E+02 0.  0.
         13    1    3    3    0    0 -0.20467005366E+02 -0.31950089595E+03  0.45885449688E+03  0.55950618418E+03  0.00000000000E+00 0. -1.
        -13    1    3    3    0    0  0.11717374439E+02 -0.23775600603E+03  0.22614579220E+03  0.32833996801E+03  0.00000000000E+00 0.  1.
         22    1    1    2    0    0  0.87496309272E+01  0.55725690198E+03 -0.20809927539E+03  0.59490933701E+03  0.00000000000E+00 0.  1.
<mgrwt>
<rscale>  0 0.14039691E+04</rscale>
<asrwt>0</asrwt>
<pdfrwt beam="1">  1        1 0.15074281E+00 0.14039691E+04</pdfrwt>
<pdfrwt beam="2">  1       -1 0.77373421E-01 0.14039691E+04</pdfrwt>
<totfact> 0.25621524E+01</totfact>
</mgrwt>
</event>
<event>
 6    1  0.1001928E-005  0.4369661E+03  0.7818608E-02  0.1031682E+00
          2   -1    0    0  501    0  0.00000000000E+00  0.00000000000E+00  0.21763010665E+03  0.21763010665E+03  0.00000000000E+00 0.  1.
         -2   -1    0    0    0  501 -0.00000000000E+00 -0.00000000000E+00 -0.21933936393E+03  0.21933936393E+03  0.00000000000E+00 0. -1.
         23    2    1    2    0    0 -0.43215093060E+02 -0.16790054395E+03 -0.11793769027E+03  0.22824193153E+03  0.90149562359E+02 0.  0.
         11    1    3    3    0    0 -0.45797708099E+02 -0.61292362462E+02 -0.11140577175E+02  0.77319442724E+02  0.00000000000E+00 0.  1.
        -11    1    3    3    0    0  0.25826150386E+01 -0.10660818148E+03 -0.10679711310E+03  0.15092248880E+03  0.00000000000E+00 0. -1.
         22    1    1    2    0    0  0.43215093060E+02  0.16790054395E+03  0.11622843299E+03  0.20872753906E+03  0.00000000000E+00 0.  1.
<mgrwt>
<rscale>  0 0.43696613E+03</rscale>
<asrwt>0</asrwt>
<pdfrwt beam="1">  1        2 0.33481555E-01 0.43696613E+03</pdfrwt>
<pdfrwt beam="2">  1       -2 0.33744517E-01 0.43696613E+03</pdfrwt>
<totfact> 0.12870244E+03</totfact>
</mgrwt>
</event>
<event>
 6    1  0.1001928E-005  0.2412953E+04  0.7818608E-02  0.8434670E-01
         -2   -1    0    0    0  501 -0.00000000000E+00  0.00000000000E+00  0.70296156951E+03  0.70296156951E+03  0.00000000000E+00 0.  1.
          2   -1    0    0  501    0  0.00000000000E+00 -0.00000000000E+00 -0.20706470686E+04  0.20706470686E+04  0.00000000000E+00 0. -1.
         23    2    1    2    0    0 -0.21502986035E+03 -0.11694388016E+04 -0.90764672496E+03  0.14986731004E+04  0.91507009896E+02 0.  0.
         11    1    3    3    0    0 -0.16014446054E+03 -0.99378433712E+03 -0.73553053385E+03  0.12466991310E+04  0.00000000000E+00 0.  1.
        -11    1    3    3    0    0 -0.54885399814E+02 -0.17565446453E+03 -0.17211619110E+03  0.25197396941E+03  0.00000000000E+00 0. -1.
         22    1    1    2    0    0  0.21502986035E+03  0.11694388016E+04 -0.46003877412E+03  0.12749355377E+04  0.00000000000E+00 0.  1.
<mgrwt>
<rscale>  0 0.24129528E+04</rscale>
<asrwt>0</asrwt>
<pdfrwt beam="1">  1        2 0.31856108E+00 0.24129528E+04</pdfrwt>
<pdfrwt beam="2">  1       -2 0.10814794E+00 0.24129528E+04</pdfrwt>
<totfact> 0.37521319E+00</totfact>
</mgrwt>
</event>
<event>
 6    1  0.1001928E-005  0.8286404E+03  0.7818608E-02  0.9519462E-01
          2   -1    0    0  501    0  0.00000000000E+00  0.00000000000E+00  0.67521512604E+03  0.67521512604E+03  0.00000000000E+00 0. -1.
         -2   -1    0    0    0  501 -0.00000000000E+00 -0.00000000000E+00 -0.25423192872E+03  0.25423192872E+03  0.00000000000E+00 0.  1.
         23    2    1    2    0    0  0.27584019474E+03 -0.34827970553E+02 -0.12376451856E+03  0.31785006775E+03  0.91707191386E+02 0.  0.
         11    1    3    3    0    0  0.35618509890E+02  0.26936436725E+02 -0.21448898048E+02  0.49540943650E+02  0.00000000000E+00 0. -1.
        -11    1    3    3    0    0  0.24022168485E+03 -0.61764407278E+02 -0.10231562051E+03  0.26830912410E+03  0.00000000000E+00 0.  1.
         22    1    1    2    0    0 -0.27584019474E+03  0.34827970553E+02  0.54474771588E+03  0.61159698701E+03  0.00000000000E+00 0. -1.
<mgrwt>
<rscale>  0 0.82864044E+03</rscale>
<asrwt>0</asrwt>
<pdfrwt beam="1">  1        2 0.10387925E+00 0.82864044E+03</pdfrwt>
<pdfrwt beam="2">  1       -2 0.39112605E-01 0.82864044E+03</pdfrwt>
<totfact> 0.26627337E+02</totfact>
</mgrwt>
</event>
<event>
 6    1  0.1001928E-005  0.3728167E+04  0.7818608E-02  0.8061748E-01
         -2   -1    0    0    0  501 -0.00000000000E+00  0.00000000000E+00  0.92256608305E+03  0.92256608305E+03  0.00000000000E+00 0.  1.
          2   -1    0    0  501    0  0.00000000000E+00 -0.00000000000E+00 -0.37664598302E+04  0.37664598302E+04  0.00000000000E+00 0. -1.
         23    2    1    2    0    0  0.96975341278E+03 -0.10576841917E+04 -0.29170504061E+04  0.32521997485E+04  0.92209552810E+02 0.  0.
         11    1    3    3    0    0  0.38087887499E+03 -0.36076350602E+03 -0.10097300732E+04  0.11378812967E+04  0.00000000000E+00 0.  1.
        -11    1    3    3    0    0  0.58887453779E+03 -0.69692068570E+03 -0.19073203329E+04  0.21143184518E+04  0.00000000000E+00 0. -1.
         22    1    1    2    0    0 -0.96975341278E+03  0.10576841917E+04  0.73156658911E+02  0.14368261648E+04  0.00000000000E+00 0.  1.
<mgrwt>
<rscale>  0 0.37281674E+04</rscale>
<asrwt>0</asrwt>
<pdfrwt beam="1">  1        2 0.57945535E+00 0.37281674E+04</pdfrwt>
<pdfrwt beam="2">  1       -2 0.14193324E+00 0.37281674E+04</pdfrwt>
<totfact> 0.14518014E-01</totfact>
</mgrwt>
</event>
<event>
 6    1  0.1001928E-005  0.9750748E+03  0.7818608E-02  0.9336313E-01
          1   -1    0    0  501    0  0.00000000000E+00  0.00000000000E+00  0.16279931536E+04  0.16279931536E+04  0.00000000000E+00 0. -1.
         -1   -1    0    0    0  501 -0.00000000000E+00 -0.00000000000E+00 -0.14600352547E+03  0.14600352547E+03  0.00000000000E+00 0.  1.
         23    2    1    2    0    0 -0.29265364629E+03 -0.22263429976E+03  0.17669376895E+03  0.41789584649E+03  0.90576279505E+02 0.  0.
         11    1    3    3    0    0 -0.27487396000E+03 -0.22016969077E+03  0.18534087473E+03  0.39797189155E+03  0.00000000000E+00 0. -1.
        -11    1    3    3    0    0 -0.17779686296E+02 -0.24646089924E+01 -0.86471057752E+01  0.19923954943E+02  0.00000000000E+00 0.  1.
         22    1    1    2    0    0  0.29265364629E+03  0.22263429976E+03  0.13052958592E+04  0.13561008326E+04  0.00000000000E+00 0. -1.
<mgrwt>
<rscale>  0 0.97507485E+03</rscale>
<asrwt>0</asrwt>
<pdfrwt beam="1">  1        1 0.25046047E+00 0.97507485E+03</pdfrwt>
<pdfrwt beam="2">  1       -1 0.22462082E-01 0.97507485E+03</pdfrwt>
<totfact> 0.90240919E+01</totfact>
</mgrwt>
</event>
<event>
 6    1  0.1001928E-005  0.1418692E+04  0.7818608E-02  0.8940398E-01
         -1   -1    0    0    0  501 -0.00000000000E+00  0.00000000000E+00  0.13454096989E+04  0.13454096989E+04  0.00000000000E+00 0.  1.
          1   -1    0    0  501    0  0.00000000000E+00 -0.00000000000E+00 -0.37399150681E+03  0.37399150681E+03  0.00000000000E+00 0. -1.
         23    2    1    2    0    0  0.60564831832E+03  0.14139952201E+03  0.81254700139E+02  0.63349386495E+03  0.88929412040E+02 0.  0.
         11    1    3    3    0    0  0.35204422356E+03  0.36944867975E+02  0.47596720683E+02  0.35716313700E+03  0.00000000000E+00 0.  1.
        -11    1    3    3    0    0  0.25360409476E+03  0.10445465403E+03  0.33657979456E+02  0.27633072795E+03  0.00000000000E+00 0. -1.
         22    1    1    2    0    0 -0.60564831832E+03 -0.14139952201E+03  0.89016349199E+03  0.10859073408E+04  0.00000000000E+00 0.  1.
<mgrwt>
<rscale>  0 0.14186921E+04</rscale>
<asrwt>0</asrwt>
<pdfrwt beam="1">  1        1 0.57537156E-01 0.14186921E+04</pdfrwt>
<pdfrwt beam="2">  1       -1 0.20698610E+00 0.14186921E+04</pdfrwt>
<totfact> 0.86090474E+00</totfact>
</mgrwt>
</event>
<event>
 6    1  0.1001928E-005  0.4942671E+04  0.7818608E-02  0.7837412E-01
         -3   -1    0    0    0  501 -0.00000000000E+00  0.00000000000E+00  0.31419761835E+04  0.31419761835E+04  0.00000000000E+00 0.  1.
          3   -1    0    0  501    0  0.00000000000E+00 -0.00000000000E+00 -0.19438402265E+04  0.19438402265E+04  0.00000000000E+00 0. -1.
         23    2    1    2    0    0 -0.60211530711E+03 -0.23902228035E+04  0.76987418221E+03  0.25839938661E+04  0.92790896599E+02 0.  0.
         11    1    3    3    0    0 -0.51589638959E+03 -0.18974613909E+04  0.62031459751E+03  0.20618678461E+04  0.00000000000E+00 0. -1.
        -11    1    3    3    0    0 -0.86218917519E+02 -0.49276141259E+03  0.14955958470E+03  0.52212602009E+03  0.00000000000E+00 0.  1.
         22    1    1    2    0    0  0.60211530711E+03  0.23902228035E+04  0.42826177479E+03  0.25018225439E+04  0.00000000000E+00 0.  1.
<mgrwt>
<rscale>  0 0.49426712E+04</rscale>
<asrwt>0</asrwt>
<pdfrwt beam="1">  1        3 0.29905234E+00 0.49426712E+04</pdfrwt>
<pdfrwt beam="2">  1       -3 0.48338095E+00 0.49426712E+04</pdfrwt>
<totfact> 0.27317974E-04</totfact>
</mgrwt>
</event>
<event>
 6    1  0.1001928E-005  0.1849668E+04  0.7818608E-02  0.8680323E-01
         -1   -1    0    0    0  501 -0.00000000000E+00  0.00000000000E+00  0.81560626768E+03  0.81560626768E+03  0.00000000000E+00 0.  1.
          1   -1    0    0  501    0  0.00000000000E+00 -0.00000000000E+00 -0.10486903029E+04  0.10486903029E+04  0.00000000000E+00 0. -1.
         23    2    1    2    0    0  0.15879702317E+03 -0.31291707902E+03  0.74318281683E+03  0.82688124424E+03  0.90985163185E+02 0.  0.
         11    1    3    3    0    0  0.11637503711E+03 -0.13847409805E+03  0.41739743036E+03  0.45490530878E+03  0.00000000000E+00 0. -1.
        -11    1    3    3    0    0  0.42421986066E+02 -0.17444298098E+03  0.32578538648E+03  0.37197593545E+03  0.00000000000E+00 0.  1.
         22    1    1    2    0    0 -0.15879702317E+03  0.31291707902E+03 -0.97626685207E+03  0.10374153264E+04  0.00000000000E+00 0. -1.
<mgrwt>
<rscale>  0 0.18496685E+04</rscale>
<asrwt>0</asrwt>
<pdfrwt beam="1">  1        1 0.16133697E+00 0.18496685E+04</pdfrwt>
<pdfrwt beam="2">  1       -1 0.12547789E+00 0.18496685E+04</pdfrwt>
<totfact> 0.72260321E+00</totfact>
</mgrwt>
</event>
<event>
 6    1  0.1001928E-005  0.1412595E+04  0.7818608E-02  0.8944752E-01
         -2   -1    0    0    0  501 -0.00000000000E+00  0.00000000000E+00  0.23223849829E+03  0.23223849829E+03  0.00000000000E+00 0.  1.
          2   -1    0    0  501    0  0.00000000000E+00 -0.00000000000E+00 -0.21480332650E+04  0.21480332650E+04  0.00000000000E+00 0. -1.
         23    2    1    2    0    0 -0.28352551620E+03 -0.55594932164E+03 -0.15090696765E+04  0.16353612548E+04  0.87457296567E+02 0.  0.
         11    1    3    3    0    0 -0.14349207620E+03 -0.20872974200E+03 -0.53895298583E+03  0.59550684468E+03  0.00000000000E+00 0. -1.
        -11    1    3    3    0    0 -0.14003344000E+03 -0.34721957964E+03 -0.97011669067E+03  0.10398544102E+04  0.00000000000E+00 0.  1.
         22    1    1    2    0    0  0.28352551620E+03  0.55594932164E+03 -0.40672509017E+03  0.74491050841E+03  0.00000000000E+00 0.  1.
<mgrwt>
<rscale>  0 0.14125948E+04</rscale>
<asrwt>0</asrwt>
<pdfrwt beam="1">  1        2 0.33046665E+00 0.14125948E+04</pdfrwt>
<pdfrwt beam="2">  1       -2 0.35729001E-01 0.14125948E+04</pdfrwt>
<totfact> 0.39595599E+01</totfact>
</mgrwt>
</event>
<event>
 6    1  0.1001928E-005  0.1126538E+04  0.7818608E-02  0.9179705E-01
         -2   -1    0    0    0  501 -0.00000000000E+00  0.00000000000E+00  0.26039584577E+03  0.26039584577E+03  0.00000000000E+00 0.  1.
          2   -1    0    0  501    0  0.00000000000E+00 -0.00000000000E+00 -0.12184223462E+04  0.12184223462E+04  0.00000000000E+00 0. -1.
         23    2    1    2    0    0 -0.44751996604E+03 -0.21990494262E+03 -0.14863367446E+03  0.52816102424E+03  0.90718215110E+02 0.  0.
         13    1    3    3    0    0 -0.31574922388E+03 -0.14817518350E+03 -0.60014990580E+02  0.35391419367E+03  0.00000000000E+00 0.  1.
        -13    1    3    3    0    0 -0.13177074216E+03 -0.71729759116E+02 -0.88618683876E+02  0.17424683057E+03  0.00000000000E+00 0. -1.
         22    1    1    2    0    0  0.44751996604E+03  0.21990494262E+03 -0.80939282594E+03  0.95065716769E+03  0.00000000000E+00 0. -1.
<mgrwt>
<rscale>  0 0.11265383E+04</rscale>
<asrwt>0</asrwt>
<pdfrwt beam="1">  1        2 0.18744959E+00 0.11265383E+04</pdfrwt>
<pdfrwt beam="2">  1       -2 0.40060899E-01 0.11265383E+04</pdfrwt>
<totfact> 0.10786512E+02</totfact>
</mgrwt>
</event>
<event>
 6    1  0.1001928E-005  0.1428441E+04  0.7818608E-02  0.8933485E-01
          1   -1    0    0  501    0  0.00000000000E+00  0.00000000000E+00  0.21712585760E+04  0.21712585760E+04  0.00000000000E+00 0. -1.
         -1   -1    0    0    0  501 -0.00000000000E+00 -0.00000000000E+00 -0.23493774342E+03  0.23493774342E+03  0.00000000000E+00 0.  1.
         23    2    1    2    0    0 -0.15154537184E+03  0.33002670344E+03 -0.58291666512E+02  0.37879338803E+03  0.90569794748E+02 0.  0.
         13    1    3    3    0    0 -0.68454048526E+02  0.23967922024E+03 -0.58544968441E+02  0.25604608707E+03  0.00000000000E+00 0. -1.
        -13    1    3    3    0    0 -0.83091323314E+02  0.90347483195E+02  0.25330192836E+00  0.12274730095E+03  0.00000000000E+00 0.  1.
         22    1    1    2    0    0  0.15154537184E+03 -0.33002670344E+03  0.19946124991E+04  0.20274029314E+04  0.00000000000E+00 0. -1.
<mgrwt>
<rscale>  0 0.14284405E+04</rscale>
<asrwt>0</asrwt>
<pdfrwt beam="1">  1        1 0.33403977E+00 0.14284405E+04</pdfrwt>
<pdfrwt beam="2">  1       -1 0.36144270E-01 0.14284405E+04</pdfrwt>
<totfact> 0.16262253E+01</totfact>
</mgrwt>
</event>
<event>
 6    1  0.1001928E-005  0.1089598E+04  0.7818608E-02  0.9215390E-01
         -2   -1    0    0    0  501 -0.00000000000E+00  0.00000000000E+00  0.22415042988E+03  0.22415042988E+03  0.00000000000E+00 0.  1.
          2   -1    0    0  501    0  0.00000000000E+00 -0.00000000000E+00 -0.13241370494E+04  0.13241370494E+04  0.00000000000E+00 0. -1.
         23    2    1    2    0    0  0.28620171275E+03  0.52810675071E+02 -0.12017892631E+04  0.12399627057E+04  0.92247984695E+02 0.  0.
         11    1    3    3    0    0  0.14805667903E+03  0.19360280207E+02 -0.42982635338E+03  0.45502340019E+03  0.00000000000E+00 0. -1.
        -11    1    3    3    0    0  0.13814503372E+03  0.33450394864E+02 -0.77196290974E+03  0.78493930547E+03  0.00000000000E+00 0.  1.
         22    1    1    2    0    0 -0.28620171275E+03 -0.52810675071E+02  0.10180264361E+03  0.30832477362E+03  0.00000000000E+00 0.  1.
<mgrwt>
<rscale>  0 0.10895979E+04</rscale>
<asrwt>0</asrwt>
<pdfrwt beam="1">  1        2 0.20371339E+00 0.10895979E+04</pdfrwt>
<pdfrwt beam="2">  1       -2 0.34484681E-01 0.10895979E+04</pdfrwt>
<totfact> 0.12519103E+02</totfact>
</mgrwt>
</event>
<event>
 6    1  0.1001928E-005  0.2330128E+04  0.7818608E-02  0.8466136E-01
         -1   -1    0    0    0  501 -0.00000000000E+00  0.00000000000E+00  0.48564816585E+03  0.48564816585E+03  0.00000000000E+00 0.  1.
          1   -1    0    0  501    0  0.00000000000E+00 -0.00000000000E+00 -0.27949739393E+04  0.27949739393E+04  0.00000000000E+00 0. -1.
         23    2    1    2    0    0 -0.69360038993E+03 -0.92548281231E+03 -0.13323103392E+04  0.17666342929E+04  0.91356161056E+02 0.  0.
         13    1    3    3    0    0 -0.35754271871E+03 -0.50458429517E+03 -0.77654819962E+03  0.99270802000E+03  0.00000000000E+00 0.  1.
        -13    1    3    3    0    0 -0.33605767122E+03 -0.42089851714E+03 -0.55576213958E+03  0.77392627291E+03  0.00000000000E+00 0. -1.
         22    1    1    2    0    0  0.69360038993E+03  0.92548281231E+03 -0.97701543421E+03  0.15139878122E+04  0.00000000000E+00 0.  1.
<mgrwt>
<rscale>  0 0.23301279E+04</rscale>
<asrwt>0</asrwt>
<pdfrwt beam="1">  1        1 0.42999599E+00 0.23301279E+04</pdfrwt>
<pdfrwt beam="2">  1       -1 0.74715102E-01 0.23301279E+04</pdfrwt>
<totfact> 0.13654707E+00</totfact>
</mgrwt>
</event>
<event>
 6    1  0.1001928E-005  0.5295479E+04  0.7818608E-02  0.7784476E-01
          2   -1    0    0  501    0  0.00000000000E+00  0.00000000000E+00  0.23850630282E+04  0.23850630282E+04  0.00000000000E+00 0. -1.
         -2   -1    0    0    0  501 -0.00000000000E+00 -0.00000000000E+00 -0.29393460294E+04  0.29393460294E+04  0.00000000000E+00 0.  1.
         23    2    1    2    0    0 -0.12610188371E+04  0.20912896780E+04  0.74951394876E+03  0.25560977472E+04  0.90573223795E+02 0.  0.
         11    1    3    3    0    0 -0.99064425703E+03  0.15679082113E+04  0.56968787196E+03  0.19401691871E+04  0.00000000000E+00 0. -1.
        -11    1    3    3    0    0 -0.27037458005E+03  0.52338146668E+03  0.17982607679E+03  0.61592856006E+03  0.00000000000E+00 0.  1.
         22    1    1    2    0    0  0.12610188371E+04 -0.20912896780E+04 -0.13037969500E+04  0.27683113105E+04  0.00000000000E+00 0.  1.
<mgrwt>
<rscale>  0 0.52954794E+04</rscale>
<asrwt>0</asrwt>
<pdfrwt beam="1">  1        2 0.36693277E+00 0.52954794E+04</pdfrwt>
<pdfrwt beam="2">  1       -2 0.45220708E+00 0.52954794E+04</pdfrwt>
<totfact> 0.97136054E-03</totfact>
</mgrwt>
</event>
<event>
 6    1  0.1001928E-005  0.2235872E+04  0.7818608E-02  0.8503644E-01
         -2   -1    0    0    0  501 -0.00000000000E+00  0.00000000000E+00  0.94916360509E+03  0.94916360509E+03  0.00000000000E+00 0. -1.
          2   -1    0    0  501    0  0.00000000000E+00 -0.00000000000E+00 -0.13167186159E+04  0.13167186159E+04  0.00000000000E+00 0.  1.
         23    2    1    2    0    0 -0.10688037317E+02 -0.34118898098E+03  0.89291757823E+03  0.96000500524E+03  0.88225017332E+02 0.  0.
         13    1    3    3    0    0 -0.34231643350E+02 -0.69767133935E+02  0.15477139162E+03  0.17318614855E+03  0.00000000000E+00 0.  1.
        -13    1    3    3    0    0  0.23543606032E+02 -0.27142184705E+03  0.73814618661E+03  0.78681885670E+03  0.00000000000E+00 0. -1.
         22    1    1    2    0    0  0.10688037317E+02  0.34118898098E+03 -0.12604725891E+04  0.13058772158E+04  0.00000000000E+00 0.  1.
<mgrwt>
<rscale>  0 0.22358724E+04</rscale>
<asrwt>0</asrwt>
<pdfrwt beam="1">  1        2 0.20257209E+00 0.22358724E+04</pdfrwt>
<pdfrwt beam="2">  1       -2 0.14602517E+00 0.22358724E+04</pdfrwt>
<totfact> 0.47393510E+00</totfact>
</mgrwt>
</event>
<event>
 6    1  0.1001928E-005  0.1734912E+04  0.7818608E-02  0.8741700E-01
         -3   -1    0    0    0  501 -0.00000000000E+00  0.00000000000E+00  0.57640833474E+03  0.57640833474E+03  0.00000000000E+00 0.  1.
          3   -1    0    0  501    0  0.00000000000E+00 -0.00000000000E+00 -0.13054629492E+04  0.13054629492E+04  0.00000000000E+00 0. -1.
         23    2    1    2    0    0 -0.35323501980E+02  0.63481431841E+03  0.27083104482E+03  0.69696272195E+03  0.90391439340E+02 0.  0.
         11    1    3    3    0    0  0.28516918122E+01  0.51025372407E+03  0.19521722894E+03  0.54633026783E+03  0.00000000000E+00 0.  1.
        -11    1    3    3    0    0 -0.38175193792E+02  0.12456059434E+03  0.75613815879E+02  0.15063245412E+03  0.00000000000E+00 0. -1.
         22    1    1    2    0    0  0.35323501980E+02 -0.63481431841E+03 -0.99988565932E+03  0.11849085620E+04  0.00000000000E+00 0. -1.
<mgrwt>
<rscale>  0 0.17349118E+04</rscale>
<asrwt>0</asrwt>
<pdfrwt beam="1">  1        3 0.20084045E+00 0.17349118E+04</pdfrwt>
<pdfrwt beam="2">  1       -3 0.88678206E-01 0.17349118E+04</pdfrwt>
<totfact> 0.41663973E-01</totfact>
</mgrwt>
</event>
<event>
 6    1  0.1001928E-005  0.2724214E+04  0.7818608E-02  0.8327191E-01
         -2   -1    0    0    0  501 -0.00000000000E+00  0.00000000000E+00  0.81832445440E+03  0.81832445440E+03  0.00000000000E+00 0. -1.
          2   -1    0    0  501    0  0.00000000000E+00 -0.00000000000E+00 -0.22672373682E+04  0.22672373682E+04  0.00000000000E+00 0.  1.
         23    2    1    2    0    0 -0.43941721511E+01 -0.13582294083E+04 -0.63362604205E+03  0.15014219558E+04  0.89328011407E+02 0.  0.
         11    1    3    3    0    0  0.13049628510E+02 -0.71222378458E+03 -0.28596740055E+03  0.76760039493E+03  0.00000000000E+00 0. -1.
        -11    1    3    3    0    0 -0.17443800661E+02 -0.64600562376E+03 -0.34765864150E+03  0.73382156082E+03  0.00000000000E+00 0.  1.
         22    1    1    2    0    0  0.43941721511E+01  0.13582294083E+04 -0.81528687170E+03  0.15841398668E+04  0.00000000000E+00 0.  1.
<mgrwt>
<rscale>  0 0.27242142E+04</rscale>
<asrwt>0</asrwt>
<pdfrwt beam="1">  1        2 0.34880574E+00 0.27242142E+04</pdfrwt>
<pdfrwt beam="2">  1       -2 0.12589607E+00 0.27242142E+04</pdfrwt>
<totfact> 0.19508733E+00</totfact>
</mgrwt>
</event>
<event>
 6    1  0.1001928E-005  0.9022330E+03  0.7818608E-02  0.9422794E-01
         -1   -1    0    0    0  501 -0.00000000000E+00  0.00000000000E+00  0.64262431777E+03  0.64262431777E+03  0.00000000000E+00 0.  1.
          1   -1    0    0  501    0  0.00000000000E+00 -0.00000000000E+00 -0.31667972390E+03  0.31667972390E+03  0.00000000000E+00 0. -1.
         23    2    1    2    0    0 -0.39212633939E+03  0.15271530873E+03  0.32426917797E+03  0.53848598290E+03  0.87929644775E+02 0.  0.
         11    1    3    3    0    0 -0.24448659803E+02 -0.48850243676E+01  0.42179825005E+02  0.48997327139E+02  0.00000000000E+00 0. -1.
        -11    1    3    3    0    0 -0.36767767959E+03  0.15760033310E+03  0.28208935296E+03  0.48948865576E+03  0.00000000000E+00 0.  1.
         22    1    1    2    0    0  0.39212633939E+03 -0.15271530873E+03  0.16754158984E+01  0.42081805877E+03  0.00000000000E+00 0. -1.
<mgrwt>
<rscale>  0 0.90223299E+03</rscale>
<asrwt>0</asrwt>
<pdfrwt beam="1">  1        1 0.48719958E-01 0.90223299E+03</pdfrwt>
<pdfrwt beam="2">  1       -1 0.98865279E-01 0.90223299E+03</pdfrwt>
<totfact> 0.80579701E+01</totfact>
</mgrwt>
</event>
<event>
 6    1  0.1001928E-005  0.9524825E+03  0.7818608E-02  0.9362254E-01
         -1   -1    0    0    0  501 -0.00000000000E+00  0.00000000000E+00  0.92283580795E+03  0.92283580795E+03  0.00000000000E+00 0.  1.
          1   -1    0    0  501    0  0.00000000000E+00 -0.00000000000E+00 -0.24577038292E+03  0.24577038292E+03  0.00000000000E+00 0. -1.
         23    2    1    2    0    0  0.19200202049E+03  0.18177497312E+03  0.82119757968E+03  0.86747333858E+03  0.90761288807E+02 0.  0.
         11    1    3    3    0    0  0.18329182613E+03  0.13283827298E+03  0.71966615921E+03  0.75442778383E+03  0.00000000000E+00 0.  1.
        -11    1    3    3    0    0  0.87101943580E+01  0.48936700145E+02  0.10153142047E+03  0.11304555475E+03  0.00000000000E+00 0. -1.
         22    1    1    2    0    0 -0.19200202049E+03 -0.18177497312E+03 -0.14413215465E+03  0.30113285230E+03  0.00000000000E+00 0. -1.
<mgrwt>
<rscale>  0 0.95248246E+03</rscale>
<asrwt>0</asrwt>
<pdfrwt beam="1">  1        1 0.37810828E-01 0.95248246E+03</pdfrwt>
<pdfrwt beam="2">  1       -1 0.14197474E+00 0.95248246E+03</pdfrwt>
<totfact> 0.46203358E+01</totfact>
</mgrwt>
</event>
<event>
 6    1  0.1001928E-005  0.4726957E+04  0.7818608E-02  0.7872065E-01
         -1   -1    0    0    0  501 -0.00000000000E+00  0.00000000000E+00  0.18140088377E+04  0.18140088377E+04  0.00000000000E+00 0.  1.
          1   -1    0    0  501    0  0.00000000000E+00 -0.00000000000E+00 -0.30793848824E+04  0.30793848824E+04  0.00000000000E+00 0. -1.
         23    2    1    2    0    0  0.17260413866E+04 -0.80293991211E+03  0.81545101934E+03  0.20731503545E+04  0.95187482887E+02 0.  0.
         13    1    3    3    0    0  0.14800063230E+04 -0.71651210676E+03  0.68113773358E+03  0.17798193525E+04  0.00000000000E+00 0. -1.
        -13    1    3    3    0    0  0.24603506352E+03 -0.86427805346E+02  0.13431328577E+03  0.29333100203E+03  0.00000000000E+00 0.  1.
         22    1    1    2    0    0 -0.17260413866E+04  0.80293991211E+03 -0.20808270640E+04  0.28202433656E+04  0.00000000000E+00 0.  1.
<mgrwt>
<rscale>  0 0.47269573E+04</rscale>
<asrwt>0</asrwt>
<pdfrwt beam="1">  1        1 0.47375152E+00 0.47269573E+04</pdfrwt>
<pdfrwt beam="2">  1       -1 0.27907828E+00 0.47269573E+04</pdfrwt>
<totfact> 0.17394632E-02</totfact>
</mgrwt>
</event>
<event>
 6    1  0.1001928E-005  0.2532243E+04  0.7818608E-02  0.8391588E-01
          2   -1    0    0  501    0  0.00000000000E+00  0.00000000000E+00  0.12096904580E+04  0.12096904580E+04  0.00000000000E+00 0. -1.
         -2   -1    0    0    0  501 -0.00000000000E+00 -0.00000000000E+00 -0.13251844924E+04  0.13251844924E+04  0.00000000000E+00 0.  1.
         23    2    1    2    0    0  0.10891150630E+04  0.56312060519E+03 -0.36725101010E+03  0.12832128509E+04  0.92116663561E+02 0.  0.
         11    1    3    3    0    0  0.15634937905E+03  0.46360052817E+02 -0.54658225118E+02  0.17199390803E+03  0.00000000000E+00 0. -1.
        -11    1    3    3    0    0  0.93276568400E+03  0.51676055237E+03 -0.31259278498E+03  0.11112189429E+04  0.00000000000E+00 0.  1.
         22    1    1    2    0    0 -0.10891150630E+04 -0.56312060519E+03  0.25175697576E+03  0.12516620995E+04  0.00000000000E+00 0. -1.
<mgrwt>
<rscale>  0 0.25322425E+04</rscale>
<asrwt>0</asrwt>
<pdfrwt beam="1">  1        2 0.18610622E+00 0.25322425E+04</pdfrwt>
<pdfrwt beam="2">  1       -2 0.20387454E+00 0.25322425E+04</pdfrwt>
<totfact> 0.20856805E+00</totfact>
</mgrwt>
</event>
<event>
 6    1  0.1001928E-005  0.1756961E+04  0.7818608E-02  0.8729528E-01
         -2   -1    0    0    0  501 -0.00000000000E+00  0.00000000000E+00  0.23779348907E+03  0.23779348907E+03  0.00000000000E+00 0.  1.
          2   -1    0    0  501    0  0.00000000000E+00 -0.00000000000E+00 -0.32453694646E+04  0.32453694646E+04  0.00000000000E+00 0. -1.
         23    2    1    2    0    0 -0.41186073309E+03 -0.76352974487E+03 -0.12666300981E+04  0.15380409824E+04  0.92797217226E+02 0.  0.
         13    1    3    3    0    0 -0.31360303738E+03 -0.64587416581E+03 -0.10118363161E+04  0.12406905471E+04  0.00000000000E+00 0. -1.
        -13    1    3    3    0    0 -0.98257695710E+02 -0.11765557905E+03 -0.25479378199E+03  0.29735043533E+03  0.00000000000E+00 0.  1.
         22    1    1    2    0    0  0.41186073309E+03  0.76352974487E+03 -0.17409458774E+04  0.19451219712E+04  0.00000000000E+00 0.  1.
<mgrwt>
<rscale>  0 0.17569607E+04</rscale>
<asrwt>0</asrwt>
<pdfrwt beam="1">  1        2 0.49928760E+00 0.17569607E+04</pdfrwt>
<pdfrwt beam="2">  1       -2 0.36583615E-01 0.17569607E+04</pdfrwt>
<totfact> 0.81215702E+00</totfact>
</mgrwt>
</event>
<event>
 6    1  0.1001928E-005  0.5221020E+03  0.7818608E-02  0.1008166E+00
          1   -1    0    0  501    0  0.00000000000E+00  0.00000000000E+00  0.51873265338E+03  0.51873265338E+03  0.00000000000E+00 0. -1.
         -1   -1    0    0    0  501 -0.00000000000E+00 -0.00000000000E+00 -0.13137330654E+03  0.13137330654E+03  0.00000000000E+00 0.  1.
         23    2    1    2    0    0  0.14917531379E+03 -0.12827842252E+03  0.39768988459E+03  0.45308984905E+03  0.91785287932E+02 0.  0.
         11    1    3    3    0    0 -0.66523382639E+01 -0.29856138864E+02  0.82231576873E+02  0.87736394201E+02  0.00000000000E+00 0. -1.
        -11    1    3    3    0    0  0.15582765206E+03 -0.98422283653E+02  0.31545830772E+03  0.36535345485E+03  0.00000000000E+00 0.  1.
         22    1    1    2    0    0 -0.14917531379E+03  0.12827842252E+03 -0.10330537748E+02  0.19701611086E+03  0.00000000000E+00 0.  1.
<mgrwt>
<rscale>  0 0.52210200E+03</rscale>
<asrwt>0</asrwt>
<pdfrwt beam="1">  1        1 0.79805023E-01 0.52210200E+03</pdfrwt>
<pdfrwt beam="2">  1       -1 0.20211278E-01 0.52210200E+03</pdfrwt>
<totfact> 0.85119522E+02</totfact>
</mgrwt>
</event>
<event>
 6    1  0.1001928E-005  0.1790636E+04  0.7818608E-02  0.8711295E-01
          2   -1    0    0  501    0  0.00000000000E+00  0.00000000000E+00  0.85110648886E+03  0.85110648886E+03  0.00000000000E+00 0. -1.
         -2   -1    0    0    0  501 -0.00000000000E+00 -0.00000000000E+00 -0.94182658987E+03  0.94182658987E+03  0.00000000000E+00 0.  1.
         23    2    1    2    0    0  0.19238527088E+02  0.50313218675E+03 -0.78377290011E+03  0.93629178823E+03  0.93969332661E+02 0.  0.
         13    1    3    3    0    0  0.39884275690E+02  0.13903910003E+03 -0.17979703471E+03  0.23075874952E+03  0.00000000000E+00 0. -1.
        -13    1    3    3    0    0 -0.20645748602E+02  0.36409308671E+03 -0.60397586540E+03  0.70553303871E+03  0.00000000000E+00 0.  1.
         22    1    1    2    0    0 -0.19238527088E+02 -0.50313218675E+03  0.69305279910E+03  0.85664129051E+03  0.00000000000E+00 0. -1.
<mgrwt>
<rscale>  0 0.17906364E+04</rscale>
<asrwt>0</asrwt>
<pdfrwt beam="1">  1        2 0.13093946E+00 0.17906364E+04</pdfrwt>
<pdfrwt beam="2">  1       -2 0.14489640E+00 0.17906364E+04</pdfrwt>
<totfact> 0.98239951E+00</totfact>
</mgrwt>
</event>
<event>
 6    1  0.1001928E-005  0.3772355E+04  0.7818608E-02  0.8052114E-01
         -2   -1    0    0    0  501 -0.00000000000E+00  0.00000000000E+00  0.20234228563E+04  0.20234228563E+04  0.00000000000E+00 0. -1.
          2   -1    0    0  501    0  0.00000000000E+00 -0.00000000000E+00 -0.17582408535E+04  0.17582408535E+04  0.00000000000E+00 0.  1.
         23    2    1    2    0    0  0.11065589128E+04 -0.10036796743E+04  0.12851718028E+04  0.19727345491E+04  0.90385409785E+02 0.  0.
         11    1    3    3    0    0  0.33959063515E+03 -0.36516080198E+03  0.43450790910E+03  0.66140859826E+03  0.00000000000E+00 0. -1.
        -11    1    3    3    0    0  0.76696827765E+03 -0.63851887229E+03  0.85066389373E+03  0.13113259508E+04  0.00000000000E+00 0.  1.
         22    1    1    2    0    0 -0.11065589128E+04  0.10036796743E+04 -0.10199898000E+04  0.18089291606E+04  0.00000000000E+00 0.  1.
<mgrwt>
<rscale>  0 0.37723546E+04</rscale>
<asrwt>0</asrwt>
<pdfrwt beam="1">  1        2 0.27049859E+00 0.37723546E+04</pdfrwt>
<pdfrwt beam="2">  1       -2 0.31129582E+00 0.37723546E+04</pdfrwt>
<totfact> 0.19816343E-01</totfact>
</mgrwt>
</event>
<event>
 6    1  0.1001928E-005  0.1379509E+04  0.7818608E-02  0.8968786E-01
          1   -1    0    0  501    0  0.00000000000E+00  0.00000000000E+00  0.17642015674E+04  0.17642015674E+04  0.00000000000E+00 0. -1.
         -1   -1    0    0    0  501 -0.00000000000E+00 -0.00000000000E+00 -0.26967517017E+03  0.26967517017E+03  0.00000000000E+00 0.  1.
         23    2    1    2    0    0 -0.38048687383E+02  0.11302160519E+03  0.17476397388E+04  0.17540768992E+04  0.91211434812E+02 0.  0.
         11    1    3    3    0    0 -0.25205836089E+02  0.88731190290E+02  0.16518730609E+04  0.16544464838E+04  0.00000000000E+00 0. -1.
        -11    1    3    3    0    0 -0.12842851295E+02  0.24290414897E+02  0.95766677873E+02  0.99630415416E+02  0.00000000000E+00 0.  1.
         22    1    1    2    0    0  0.38048687383E+02 -0.11302160519E+03 -0.25311334159E+03  0.27979983835E+03  0.00000000000E+00 0.  1.
<mgrwt>
<rscale>  0 0.13795091E+04</rscale>
<asrwt>0</asrwt>
<pdfrwt beam="1">  1        1 0.27141562E+00 0.13795091E+04</pdfrwt>
<pdfrwt beam="2">  1       -1 0.41488489E-01 0.13795091E+04</pdfrwt>
<totfact> 0.23973307E+01</totfact>
</mgrwt>
</event>
<event>
 6    1  0.1001928E-005  0.2453910E+04  0.7818608E-02  0.8419592E-01
         -1   -1    0    0    0  501 -0.00000000000E+00  0.00000000000E+00  0.63379356160E+03  0.63379356160E+03  0.00000000000E+00 0.  1.
          1   -1    0    0  501    0  0.00000000000E+00 -0.00000000000E+00 -0.23752504533E+04  0.23752504533E+04  0.00000000000E+00 0. -1.
         23    2    1    2    0    0  0.76497964195E+03 -0.13346159960E+03  0.29003031203E+03  0.83420008715E+03  0.93628800775E+02 0.  0.
         13    1    3    3    0    0  0.33065243813E+03 -0.10465269861E+03  0.13367764375E+03  0.37168929848E+03  0.00000000000E+00 0. -1.
        -13    1    3    3    0    0  0.43432720382E+03 -0.28808900995E+02  0.15635266828E+03  0.46251078867E+03  0.00000000000E+00 0.  1.
         22    1    1    2    0    0 -0.76497964195E+03  0.13346159960E+03 -0.20314872037E+04  0.21748439277E+04  0.00000000000E+00 0. -1.
<mgrwt>
<rscale>  0 0.24539099E+04</rscale>
<asrwt>0</asrwt>
<pdfrwt beam="1">  1        1 0.36542314E+00 0.24539099E+04</pdfrwt>
<pdfrwt beam="2">  1       -1 0.97506703E-01 0.24539099E+04</pdfrwt>
<totfact> 0.14874784E+00</totfact>
</mgrwt>
</event>
<event>
 6    1  0.1001928E-005  0.4024894E+04  0.7818608E-02  0.7999543E-01
         -1   -1    0    0    0  501 -0.00000000000E+00  0.00000000000E+00  0.12951864169E+04  0.12951864169E+04  0.00000000000E+00 0.  1.
          1   -1    0    0  501    0  0.00000000000E+00 -0.00000000000E+00 -0.31269184780E+04  0.31269184780E+04  0.00000000000E+00 0. -1.
         23    2    1    2    0    0 -0.25650200850E+03  0.78492310961E+03  0.10986145485E+04  0.13776297643E+04  0.94932992016E+02 0.  0.
         13    1    3    3    0    0 -0.76216145282E+02  0.23658255932E+03  0.40576918469E+03  0.47584539445E+03  0.00000000000E+00 0. -1.
        -13    1    3    3    0    0 -0.18028586321E+03  0.54834055028E+03  0.69284536376E+03  0.90178436982E+03  0.00000000000E+00 0.  1.
         22    1    1    2    0    0  0.25650200850E+03 -0.78492310961E+03 -0.29303466096E+04  0.30444751306E+04  0.00000000000E+00 0. -1.
<mgrwt>
<rscale>  0 0.40248937E+04</rscale>
<asrwt>0</asrwt>
<pdfrwt beam="1">  1        1 0.48106437E+00 0.40248937E+04</pdfrwt>
<pdfrwt beam="2">  1       -1 0.19925945E+00 0.40248937E+04</pdfrwt>
<totfact> 0.57289461E-02</totfact>
</mgrwt>
</event>
<event>
 6    1  0.1001928E-005  0.4964441E+03  0.7818608E-02  0.1014711E+00
         -2   -1    0    0    0  501 -0.00000000000E+00  0.00000000000E+00  0.25977210553E+03  0.25977210553E+03  0.00000000000E+00 0.  1.
          2   -1    0    0  501    0  0.00000000000E+00 -0.00000000000E+00 -0.23718551500E+03  0.23718551500E+03  0.00000000000E+00 0. -1.
         23    2    1    2    0    0 -0.21924886321E+03 -0.84750912567E+02  0.59872440064E+02  0.25895968825E+03  0.90678717787E+02 0.  0.
         13    1    3    3    0    0 -0.15376788622E+03 -0.46596573225E+02  0.81482016655E+02  0.18015305300E+03  0.00000000000E+00 0. -1.
        -13    1    3    3    0    0 -0.65480976990E+02 -0.38154339342E+02 -0.21609576591E+02  0.78806635245E+02  0.00000000000E+00 0.  1.
         22    1    1    2    0    0  0.21924886321E+03  0.84750912567E+02 -0.37285849536E+02  0.23799793229E+03  0.00000000000E+00 0. -1.
<mgrwt>
<rscale>  0 0.49644408E+03</rscale>
<asrwt>0</asrwt>
<pdfrwt beam="1">  1        2 0.36490079E-01 0.49644408E+03</pdfrwt>
<pdfrwt beam="2">  1       -2 0.39964940E-01 0.49644408E+03</pdfrwt>
<totfact> 0.84844594E+02</totfact>
</mgrwt>
</event>
<event>
 6    1  0.1001928E-005  0.1059797E+04  0.7818608E-02  0.9245288E-01
         -1   -1    0    0    0  501 -0.00000000000E+00  0.00000000000E+00  0.78089448865E+03  0.78089448865E+03  0.00000000000E+00 0.  1.
          1   -1    0    0  501    0  0.00000000000E+00 -0.00000000000E+00 -0.35957766320E+03  0.35957766320E+03  0.00000000000E+00 0. -1.
         23    2    1    2    0    0 -0.16861205014E+03  0.43939004342E+03 -0.41642984291E+02  0.48030140186E+03  0.86380928326E+02 0.  0.
         13    1    3    3    0    0 -0.60212394486E+02  0.19288922294E+03 -0.58866114480E+02  0.21046853497E+03  0.00000000000E+00 0.  1.
        -13    1    3    3    0    0 -0.10839965566E+03  0.24650082047E+03  0.17223130188E+02  0.26983286689E+03  0.00000000000E+00 0. -1.
         22    1    1    2    0    0  0.16861205014E+03 -0.43939004342E+03  0.46295980975E+03  0.66017074999E+03  0.00000000000E+00 0.  1.
<mgrwt>
<rscale>  0 0.10597966E+04</rscale>
<asrwt>0</asrwt>
<pdfrwt beam="1">  1        1 0.55319641E-01 0.10597966E+04</pdfrwt>
<pdfrwt beam="2">  1       -1 0.12013761E+00 0.10597966E+04</pdfrwt>
<totfact> 0.42640353E+01</totfact>
</mgrwt>
</event>
<event>
 6    1  0.1001928E-005  0.2321903E+04  0.7818608E-02  0.8469335E-01
         -1   -1    0    0    0  501 -0.00000000000E+00  0.00000000000E+00  0.16508548617E+04  0.16508548617E+04  0.00000000000E+00 0.  1.
          1   -1    0    0  501    0  0.00000000000E+00 -0.00000000000E+00 -0.81643072577E+03  0.81643072577E+03  0.00000000000E+00 0. -1.
         23    2    1    2    0    0 -0.89163258446E+03  0.72073651586E+03  0.23602545075E+03  0.11740142403E+04  0.90175562421E+02 0.  0.
         13    1    3    3    0    0 -0.59798609027E+03  0.44983098637E+03  0.18857704583E+03  0.77168425062E+03  0.00000000000E+00 0. -1.
        -13    1    3    3    0    0 -0.29364649419E+03  0.27090552949E+03  0.47448404923E+02  0.40232998967E+03  0.00000000000E+00 0.  1.
         22    1    1    2    0    0  0.89163258446E+03 -0.72073651586E+03  0.59839868518E+03  0.12932713472E+04  0.00000000000E+00 0. -1.
<mgrwt>
<rscale>  0 0.23219032E+04</rscale>
<asrwt>0</asrwt>
<pdfrwt beam="1">  1        1 0.12560473E+00 0.23219032E+04</pdfrwt>
<pdfrwt beam="2">  1       -1 0.25397767E+00 0.23219032E+04</pdfrwt>
<totfact> 0.12675493E+00</totfact>
</mgrwt>
</event>
<event>
 6    1  0.1001928E-005  0.2747394E+04  0.7818608E-02  0.8319789E-01
          2   -1    0    0  501    0  0.00000000000E+00  0.00000000000E+00  0.23387836864E+04  0.23387836864E+04  0.00000000000E+00 0.  1.
         -2   -1    0    0    0  501 -0.00000000000E+00 -0.00000000000E+00 -0.80684811848E+03  0.80684811848E+03  0.00000000000E+00 0. -1.
         23    2    1    2    0    0 -0.32058938625E+03  0.33304215787E+03 -0.71315555031E+03  0.85344316460E+03  0.77972833477E+02 0.  0.
         11    1    3    3    0    0 -0.13406668095E+03  0.17198914984E+03 -0.27764586419E+03  0.35304584476E+03  0.00000000000E+00 0. -1.
        -11    1    3    3    0    0 -0.18652270530E+03  0.16105300803E+03 -0.43550968612E+03  0.50039731983E+03  0.00000000000E+00 0.  1.
         22    1    1    2    0    0  0.32058938625E+03 -0.33304215787E+03  0.22450911182E+04  0.22921886402E+04  0.00000000000E+00 0.  1.
<mgrwt>
<rscale>  0 0.27473938E+04</rscale>
<asrwt>0</asrwt>
<pdfrwt beam="1">  1        2 0.35981287E+00 0.27473938E+04</pdfrwt>
<pdfrwt beam="2">  1       -2 0.12413048E+00 0.27473938E+04</pdfrwt>
<totfact> 0.18372426E+00</totfact>
</mgrwt>
</event>
<event>
 6    1  0.1001928E-005  0.8141652E+03  0.7818608E-02  0.9539737E-01
          3   -1    0    0  501    0  0.00000000000E+00  0.00000000000E+00  0.10321199652E+04  0.10321199652E+04  0.00000000000E+00 0. -1.
         -3   -1    0    0    0  501 -0.00000000000E+00 -0.00000000000E+00 -0.16055909518E+03  0.16055909518E+03  0.00000000000E+00 0.  1.
         23    2    1    2    0    0 -0.31416433977E+03 -0.22305463307E+03  0.60827332118E+03  0.72601758234E+03  0.93018787843E+02 0.  0.
         13    1    3    3    0    0 -0.21175683418E+03 -0.11304012282E+03  0.43335792908E+03  0.49539693266E+03  0.00000000000E+00 0. -1.
        -13    1    3    3    0    0 -0.10240750559E+03 -0.11001451026E+03  0.17491539210E+03  0.23062064969E+03  0.00000000000E+00 0.  1.
         22    1    1    2    0    0  0.31416433977E+03  0.22305463307E+03  0.26328754887E+03  0.46666147807E+03  0.00000000000E+00 0. -1.
<mgrwt>
<rscale>  0 0.81416521E+03</rscale>
<asrwt>0</asrwt>
<pdfrwt beam="1">  1        3 0.15878768E+00 0.81416521E+03</pdfrwt>
<pdfrwt beam="2">  1       -3 0.24701400E-01 0.81416521E+03</pdfrwt>
<totfact> 0.11490112E+01</totfact>
</mgrwt>
</event>
<event>
 6    1  0.1001928E-005  0.5645502E+04  0.7818608E-02  0.7735979E-01
         -1   -1    0    0    0  501 -0.00000000000E+00  0.00000000000E+00  0.25807421528E+04  0.25807421528E+04  0.00000000000E+00 0.  1.
          1   -1    0    0  501    0  0.00000000000E+00 -0.00000000000E+00 -0.30874545252E+04  0.30874545252E+04  0.00000000000E+00 0. -1.
         23    2    1    2    0    0  0.19360339240E+04  0.15892847473E+03  0.18018141118E+04  0.26511152832E+04  0.91610786867E+02 0.  0.
         11    1    3    3    0    0  0.78480576844E+03  0.26059250332E+02  0.76008852828E+03  0.10928557771E+04  0.00000000000E+00 0. -1.
        -11    1    3    3    0    0  0.11512281556E+04  0.13286922440E+03  0.10417255835E+04  0.15582595061E+04  0.00000000000E+00 0.  1.
         22    1    1    2    0    0 -0.19360339240E+04 -0.15892847473E+03 -0.23085264841E+04  0.30170813948E+04  0.00000000000E+00 0. -1.
<mgrwt>
<rscale>  0 0.56455023E+04</rscale>
<asrwt>0</asrwt>
<pdfrwt beam="1">  1        1 0.47499300E+00 0.56455023E+04</pdfrwt>
<pdfrwt beam="2">  1       -1 0.39703725E+00 0.56455023E+04</pdfrwt>
<totfact> 0.26534728E-03</totfact>
</mgrwt>
</event>
<event>
 6    1  0.1001928E-005  0.2482641E+04  0.7818608E-02  0.8409196E-01
          1   -1    0    0  501    0  0.00000000000E+00  0.00000000000E+00  0.10770986600E+04  0.10770986600E+04  0.00000000000E+00 0. -1.
         -1   -1    0    0    0  501 -0.00000000000E+00 -0.00000000000E+00 -0.14305810417E+04  0.14305810417E+04  0.00000000000E+00 0.  1.
         23    2    1    2    0    0 -0.81195950441E+03  0.26839191077E+03  0.72955057155E+03  0.11277257776E+04  0.90603192496E+02 0.  0.
         11    1    3    3    0    0 -0.12549451883E+03  0.12054958447E+02  0.87390315368E+02  0.15339903357E+03  0.00000000000E+00 0. -1.
        -11    1    3    3    0    0 -0.68646498558E+03  0.25633695233E+03  0.64216025619E+03  0.97432674405E+03  0.00000000000E+00 0.  1.
         22    1    1    2    0    0  0.81195950441E+03 -0.26839191077E+03 -0.10830329533E+04  0.13799539240E+04  0.00000000000E+00 0.  1.
<mgrwt>
<rscale>  0 0.24826413E+04</rscale>
<asrwt>0</asrwt>
<pdfrwt beam="1">  1        1 0.16570749E+00 0.24826413E+04</pdfrwt>
<pdfrwt beam="2">  1       -1 0.22008939E+00 0.24826413E+04</pdfrwt>
<totfact> 0.12902044E+00</totfact>
</mgrwt>
</event>
<event>
 6    1  0.1001928E-005  0.3107551E+04  0.7818608E-02  0.8213669E-01
          1   -1    0    0  501    0  0.00000000000E+00  0.00000000000E+00  0.23412337428E+04  0.23412337428E+04  0.00000000000E+00 0. -1.
         -1   -1    0    0    0  501 -0.00000000000E+00 -0.00000000000E+00 -0.10311737165E+04  0.10311737165E+04  0.00000000000E+00 0.  1.
         23    2    1    2    0    0  0.12777979811E+04  0.40874012579E+03  0.15036318692E+04  0.20169347634E+04  0.85328019185E+02 0.  0.
         11    1    3    3    0    0  0.12745311526E+03  0.53289141771E+02  0.19129184305E+03  0.23595889142E+03  0.00000000000E+00 0. -1.
        -11    1    3    3    0    0  0.11503448658E+04  0.35545098402E+03  0.13123400261E+04  0.17809758720E+04  0.00000000000E+00 0.  1.
         22    1    1    2    0    0 -0.12777979811E+04 -0.40874012579E+03 -0.19357184290E+03  0.13554726959E+04  0.00000000000E+00 0.  1.
<mgrwt>
<rscale>  0 0.31075513E+04</rscale>
<asrwt>0</asrwt>
<pdfrwt beam="1">  1        1 0.36018981E+00 0.31075513E+04</pdfrwt>
<pdfrwt beam="2">  1       -1 0.15864211E+00 0.31075513E+04</pdfrwt>
<totfact> 0.43997092E-01</totfact>
</mgrwt>
</event>
<event>
 6    1  0.1001928E-005  0.2596485E+04  0.7818608E-02  0.8369396E-01
         -1   -1    0    0    0  501 -0.00000000000E+00  0.00000000000E+00  0.93302083710E+03  0.93302083710E+03  0.00000000000E+00 0.  1.
          1   -1    0    0  501    0  0.00000000000E+00 -0.00000000000E+00 -0.18064269348E+04  0.18064269348E+04  0.00000000000E+00 0. -1.
         23    2    1    2    0    0  0.28070671762E+03  0.90486086262E+03 -0.13712485501E+04  0.16692064210E+04  0.91422358940E+02 0.  0.
         11    1    3    3    0    0  0.12696708422E+03  0.55458362777E+03 -0.84169580937E+03  0.10159406854E+04  0.00000000000E+00 0.  1.
        -11    1    3    3    0    0  0.15373963340E+03  0.35027723486E+03 -0.52955274069E+03  0.65326573560E+03  0.00000000000E+00 0. -1.
         22    1    1    2    0    0 -0.28070671762E+03 -0.90486086262E+03  0.49784245232E+03  0.10702413510E+04  0.00000000000E+00 0.  1.
<mgrwt>
<rscale>  0 0.25964853E+04</rscale>
<asrwt>0</asrwt>
<pdfrwt beam="1">  1        1 0.27791183E+00 0.25964853E+04</pdfrwt>
<pdfrwt beam="2">  1       -1 0.14354167E+00 0.25964853E+04</pdfrwt>
<totfact> 0.13944944E+00</totfact>
</mgrwt>
</event>
<event>
 6    1  0.1001928E-005  0.1560819E+04  0.7818608E-02  0.8844986E-01
          1   -1    0    0  501    0  0.00000000000E+00  0.00000000000E+00  0.10943427269E+04  0.10943427269E+04  0.00000000000E+00 0. -1.
         -1   -1    0    0    0  501 -0.00000000000E+00 -0.00000000000E+00 -0.55653428563E+03  0.55653428563E+03  0.00000000000E+00 0.  1.
         23    2    1    2    0    0  0.48390135997E+02  0.42256880126E+03  0.95872670267E+03  0.10524806725E+04  0.87479589051E+02 0.  0.
         11    1    3    3    0    0  0.11568814243E+02  0.20548563684E+03  0.56576399519E+03  0.60203578188E+03  0.00000000000E+00 0. -1.
        -11    1    3    3    0    0  0.36821321754E+02  0.21708316442E+03  0.39296270748E+03  0.45044489061E+03  0.00000000000E+00 0.  1.
         22    1    1    2    0    0 -0.48390135997E+02 -0.42256880126E+03 -0.42091826136E+03  0.59839634007E+03  0.00000000000E+00 0.  1.
<mgrwt>
<rscale>  0 0.15608193E+04</rscale>
<asrwt>0</asrwt>
<pdfrwt beam="1">  1        1 0.16836042E+00 0.15608193E+04</pdfrwt>
<pdfrwt beam="2">  1       -1 0.85620659E-01 0.15608193E+04</pdfrwt>
<totfact> 0.16612316E+01</totfact>
</mgrwt>
</event>
<event>
 6    1  0.1001928E-005  0.1362596E+04  0.7818608E-02  0.8981347E-01
          1   -1    0    0  501    0  0.00000000000E+00  0.00000000000E+00  0.14129841815E+04  0.14129841815E+04  0.00000000000E+00 0. -1.
         -1   -1    0    0    0  501 -0.00000000000E+00 -0.00000000000E+00 -0.32850123495E+03  0.32850123495E+03  0.00000000000E+00 0.  1.
         23    2    1    2    0    0  0.40423183685E+03  0.53079435414E+03  0.69867179356E+03  0.97077388151E+03  0.95465331952E+02 0.  0.
         13    1    3    3    0    0  0.35762768071E+03  0.41078737381E+03  0.54861538906E+03  0.77306058599E+03  0.00000000000E+00 0.  1.
        -13    1    3    3    0    0  0.46604156141E+02  0.12000698032E+03  0.15005640450E+03  0.19771329553E+03  0.00000000000E+00 0. -1.
         22    1    1    2    0    0 -0.40423183685E+03 -0.53079435414E+03  0.38581115299E+03  0.77071153493E+03  0.00000000000E+00 0.  1.
<mgrwt>
<rscale>  0 0.13625961E+04</rscale>
<asrwt>0</asrwt>
<pdfrwt beam="1">  1        1 0.21738218E+00 0.13625961E+04</pdfrwt>
<pdfrwt beam="2">  1       -1 0.50538652E-01 0.13625961E+04</pdfrwt>
<totfact> 0.28927586E+01</totfact>
</mgrwt>
</event>
<event>
 6    1  0.1001928E-005  0.1480768E+04  0.7818608E-02  0.8897344E-01
         -2   -1    0    0    0  501 -0.00000000000E+00  0.00000000000E+00  0.81810347577E+03  0.81810347577E+03  0.00000000000E+00 0.  1.
          2   -1    0    0  501    0  0.00000000000E+00 -0.00000000000E+00 -0.67004772036E+03  0.67004772036E+03  0.00000000000E+00 0. -1.
         23    2    1    2    0    0  0.88979613959E+02  0.53844120508E+03 -0.42433809599E+03  0.69728393536E+03  0.91135963175E+02 0.  0.
         13    1    3    3    0    0  0.36017861261E+02  0.15546723589E+03 -0.75465910354E+02  0.17652889676E+03  0.00000000000E+00 0. -1.
        -13    1    3    3    0    0  0.52961752699E+02  0.38297396919E+03 -0.34887218563E+03  0.52075503861E+03  0.00000000000E+00 0.  1.
         22    1    1    2    0    0 -0.88979613959E+02 -0.53844120508E+03  0.57239385140E+03  0.79086726076E+03  0.00000000000E+00 0.  1.
<mgrwt>
<rscale>  0 0.14807679E+04</rscale>
<asrwt>0</asrwt>
<pdfrwt beam="1">  1        2 0.10308426E+00 0.14807679E+04</pdfrwt>
<pdfrwt beam="2">  1       -2 0.12586207E+00 0.14807679E+04</pdfrwt>
<totfact> 0.19736278E+01</totfact>
</mgrwt>
</event>
<event>
 6    1  0.1001928E-005  0.5614761E+03  0.7818608E-02  0.9988720E-01
          1   -1    0    0  501    0  0.00000000000E+00  0.00000000000E+00  0.65148314174E+03  0.65148314174E+03  0.00000000000E+00 0. -1.
         -1   -1    0    0    0  501 -0.00000000000E+00 -0.00000000000E+00 -0.12097603462E+03  0.12097603462E+03  0.00000000000E+00 0.  1.
         23    2    1    2    0    0 -0.18372205030E+03 -0.11431903980E+03  0.43121500030E+02  0.23919811025E+03  0.92377689700E+02 0.  0.
         13    1    3    3    0    0 -0.10204916086E+03 -0.10193036866E+03  0.57637647997E+02  0.15532523862E+03  0.00000000000E+00 0.  1.
        -13    1    3    3    0    0 -0.81672889447E+02 -0.12388671138E+02 -0.14516147967E+02  0.83872871628E+02  0.00000000000E+00 0. -1.
         22    1    1    2    0    0  0.18372205030E+03  0.11431903980E+03  0.48738560710E+03  0.53326106611E+03  0.00000000000E+00 0. -1.
<mgrwt>
<rscale>  0 0.56147608E+03</rscale>
<asrwt>0</asrwt>
<pdfrwt beam="1">  1        1 0.10022817E+00 0.56147608E+03</pdfrwt>
<pdfrwt beam="2">  1       -1 0.18611698E-01 0.56147608E+03</pdfrwt>
<totfact> 0.70610760E+02</totfact>
</mgrwt>
</event>
<event>
 6    1  0.1001928E-005  0.3966673E+03  0.7818608E-02  0.1044940E+00
         -2   -1    0    0    0  501 -0.00000000000E+00  0.00000000000E+00  0.27349494315E+03  0.27349494315E+03  0.00000000000E+00 0.  1.
          2   -1    0    0  501    0  0.00000000000E+00 -0.00000000000E+00 -0.14382803284E+03  0.14382803284E+03  0.00000000000E+00 0. -1.
         23    2    1    2    0    0  0.13945040252E+03 -0.11084900250E+03  0.12949820802E+03  0.23918273748E+03  0.93298874097E+02 0.  0.
         13    1    3    3    0    0  0.10351893794E+03 -0.12343037635E+03  0.90908456320E+02  0.18497452730E+03  0.00000000000E+00 0. -1.
        -13    1    3    3    0    0  0.35931464574E+02  0.12581373847E+02  0.38589751703E+02  0.54208210179E+02  0.00000000000E+00 0.  1.
         22    1    1    2    0    0 -0.13945040252E+03  0.11084900250E+03  0.16870228283E+00  0.17814023852E+03  0.00000000000E+00 0. -1.
<mgrwt>
<rscale>  0 0.39666731E+03</rscale>
<asrwt>0</asrwt>
<pdfrwt beam="1">  1        2 0.22127390E-01 0.39666731E+03</pdfrwt>
<pdfrwt beam="2">  1       -2 0.42076145E-01 0.39666731E+03</pdfrwt>
<totfact> 0.13446858E+03</totfact>
</mgrwt>
</event>
<event>
 6    1  0.1001928E-005  0.4263816E+04  0.7818608E-02  0.7953343E-01
          2   -1    0    0  501    0  0.00000000000E+00  0.00000000000E+00  0.24506157502E+04  0.24506157502E+04  0.00000000000E+00 0. -1.
         -2   -1    0    0    0  501 -0.00000000000E+00 -0.00000000000E+00 -0.18546488637E+04  0.18546488637E+04  0.00000000000E+00 0.  1.
         23    2    1    2    0    0  0.62677793782E+03 -0.15679645839E+04 -0.10143527849E+04  0.19719208835E+04  0.90536615596E+02 0.  0.
         13    1    3    3    0    0  0.51956523448E+03 -0.12326346441E+04 -0.77101708492E+03  0.15439571056E+04  0.00000000000E+00 0. -1.
        -13    1    3    3    0    0  0.10721270334E+03 -0.33532993982E+03 -0.24333570003E+03  0.42796377792E+03  0.00000000000E+00 0.  1.
         22    1    1    2    0    0 -0.62677793782E+03  0.15679645839E+04  0.16103196714E+04  0.23333437303E+04  0.00000000000E+00 0. -1.
<mgrwt>
<rscale>  0 0.42638160E+04</rscale>
<asrwt>0</asrwt>
<pdfrwt beam="1">  1        2 0.37701781E+00 0.42638160E+04</pdfrwt>
<pdfrwt beam="2">  1       -2 0.28533059E+00 0.42638160E+04</pdfrwt>
<totfact> 0.11218987E-01</totfact>
</mgrwt>
</event>
<event>
 6    1  0.1001928E-005  0.9029926E+03  0.7818608E-02  0.9421848E-01
          2   -1    0    0  501    0  0.00000000000E+00  0.00000000000E+00  0.10710876498E+04  0.10710876498E+04  0.00000000000E+00 0. -1.
         -2   -1    0    0    0  501 -0.00000000000E+00 -0.00000000000E+00 -0.19031955740E+03  0.19031955740E+03  0.00000000000E+00 0.  1.
         23    2    1    2    0    0 -0.18787660687E+03  0.13081355361E+02 -0.12125060711E+03  0.24184346940E+03  0.91202043283E+02 0.  0.
         11    1    3    3    0    0 -0.72300967603E+02  0.33383997249E+02 -0.10208768550E+02  0.80287858011E+02  0.00000000000E+00 0.  1.
        -11    1    3    3    0    0 -0.11557563926E+03 -0.20302641888E+02 -0.11104183856E+03  0.16155561138E+03  0.00000000000E+00 0. -1.
         22    1    1    2    0    0  0.18787660687E+03 -0.13081355361E+02  0.10020186995E+04  0.10195637378E+04  0.00000000000E+00 0. -1.
<mgrwt>
<rscale>  0 0.90299264E+03</rscale>
<asrwt>0</asrwt>
<pdfrwt beam="1">  1        2 0.16478271E+00 0.90299264E+03</pdfrwt>
<pdfrwt beam="2">  1       -2 0.29279933E-01 0.90299264E+03</pdfrwt>
<totfact> 0.24386377E+02</totfact>
</mgrwt>
</event>
<event>
 6    1  0.1001928E-005  0.1049245E+04  0.7818608E-02  0.9256124E-01
          1   -1    0    0  501    0  0.00000000000E+00  0.00000000000E+00  0.88217636022E+03  0.88217636022E+03  0.00000000000E+00 0. -1.
         -1   -1    0    0    0  501 -0.00000000000E+00 -0.00000000000E+00 -0.31198819807E+03  0.31198819807E+03  0.00000000000E+00 0.  1.
         23    2    1    2    0    0  0.46358384324E+03  0.13720211883E+03  0.50720985347E+03  0.70661900300E+03  0.91182118986E+02 0.  0.
         13    1    3    3    0    0  0.18361288670E+03  0.22501181908E+02  0.23954557883E+03  0.30265835473E+03  0.00000000000E+00 0. -1.
        -13    1    3    3    0    0  0.27997095653E+03  0.11470093692E+03  0.26766427464E+03  0.40396064827E+03  0.00000000000E+00 0.  1.
         22    1    1    2    0    0 -0.46358384324E+03 -0.13720211883E+03  0.62978308683E+02  0.48754555529E+03  0.00000000000E+00 0. -1.
<mgrwt>
<rscale>  0 0.10492447E+04</rscale>
<asrwt>0</asrwt>
<pdfrwt beam="1">  1        1 0.13571944E+00 0.10492447E+04</pdfrwt>
<pdfrwt beam="2">  1       -1 0.47998185E-01 0.10492447E+04</pdfrwt>
<totfact> 0.81589472E+01</totfact>
</mgrwt>
</event>
<event>
 6    1  0.1001928E-005  0.8887352E+03  0.7818608E-02  0.9439774E-01
          2   -1    0    0  501    0  0.00000000000E+00  0.00000000000E+00  0.57436442754E+03  0.57436442754E+03  0.00000000000E+00 0. -1.
         -2   -1    0    0    0  501 -0.00000000000E+00 -0.00000000000E+00 -0.34379314517E+03  0.34379314517E+03  0.00000000000E+00 0.  1.
         23    2    1    2    0    0 -0.15830039971E+03 -0.19125468665E+03 -0.25841188765E+03  0.36975816326E+03  0.91142876346E+02 0.  0.
         13    1    3    3    0    0 -0.47996816836E+01 -0.66481980908E+02 -0.64927760109E+02  0.93051086842E+02  0.00000000000E+00 0.  1.
        -13    1    3    3    0    0 -0.15350071802E+03 -0.12477270574E+03 -0.19348412754E+03  0.27670707642E+03  0.00000000000E+00 0. -1.
         22    1    1    2    0    0  0.15830039971E+03  0.19125468665E+03  0.48898317003E+03  0.54839940945E+03  0.00000000000E+00 0. -1.
<mgrwt>
<rscale>  0 0.88873518E+03</rscale>
<asrwt>0</asrwt>
<pdfrwt beam="1">  1        2 0.88363758E-01 0.88873518E+03</pdfrwt>
<pdfrwt beam="2">  1       -2 0.52891253E-01 0.88873518E+03</pdfrwt>
<totfact> 0.17696139E+02</totfact>
</mgrwt>
</event>
<event>
 6    1  0.1001928E-005  0.1362471E+04  0.7818608E-02  0.8981441E-01
         -2   -1    0    0    0  501 -0.00000000000E+00  0.00000000000E+00  0.30020869892E+03  0.30020869892E+03  0.00000000000E+00 0.  1.
          2   -1    0    0  501    0  0.00000000000E+00 -0.00000000000E+00 -0.15458639355E+04  0.15458639355E+04  0.00000000000E+00 0. -1.
         23    2    1    2    0    0 -0.26013491258E+03  0.67879477201E+02 -0.14691873508E+04  0.14964379647E+04  0.92397588712E+02 0.  0.
         13    1    3    3    0    0 -0.24245961564E+03  0.41247383851E+02 -0.13788501268E+04  0.14006126103E+04  0.00000000000E+00 0.  1.
        -13    1    3    3    0    0 -0.17675296939E+02  0.26632093350E+02 -0.90337223995E+02  0.95825354459E+02  0.00000000000E+00 0. -1.
         22    1    1    2    0    0  0.26013491258E+03 -0.67879477201E+02  0.22353211421E+03  0.34963466969E+03  0.00000000000E+00 0.  1.
<mgrwt>
<rscale>  0 0.13624710E+04</rscale>
<asrwt>0</asrwt>
<pdfrwt beam="1">  1        2 0.23782522E+00 0.13624710E+04</pdfrwt>
<pdfrwt beam="2">  1       -2 0.46185954E-01 0.13624710E+04</pdfrwt>
<totfact> 0.51866407E+01</totfact>
</mgrwt>
</event>
<event>
 6    1  0.1001928E-005  0.2601217E+04  0.7818608E-02  0.8367788E-01
         -1   -1    0    0    0  501 -0.00000000000E+00  0.00000000000E+00  0.93760992852E+03  0.93760992852E+03  0.00000000000E+00 0.  1.
          1   -1    0    0  501    0  0.00000000000E+00 -0.00000000000E+00 -0.18041433123E+04  0.18041433123E+04  0.00000000000E+00 0. -1.
         23    2    1    2    0    0 -0.45830993972E+03  0.11388593302E+04  0.12797582709E+02  0.12316964461E+04  0.99316576332E+02 0.  0.
         13    1    3    3    0    0 -0.35753231469E+03  0.77072190846E+03 -0.44595891240E+01  0.84962433120E+03  0.00000000000E+00 0. -1.
        -13    1    3    3    0    0 -0.10077762503E+03  0.36813742173E+03  0.17257171833E+02  0.38207211487E+03  0.00000000000E+00 0.  1.
         22    1    1    2    0    0  0.45830993972E+03 -0.11388593302E+04 -0.87933096652E+03  0.15100567948E+04  0.00000000000E+00 0.  1.
<mgrwt>
<rscale>  0 0.26012172E+04</rscale>
<asrwt>0</asrwt>
<pdfrwt beam="1">  1        1 0.27756050E+00 0.26012172E+04</pdfrwt>
<pdfrwt beam="2">  1       -1 0.14424768E+00 0.26012172E+04</pdfrwt>
<totfact> 0.13808417E+00</totfact>
</mgrwt>
</event>
<event>
 6    1  0.1001928E-005  0.9441305E+03  0.7818608E-02  0.9372038E-01
          2   -1    0    0  501    0  0.00000000000E+00  0.00000000000E+00  0.11684959031E+04  0.11684959031E+04  0.00000000000E+00 0. -1.
         -2   -1    0    0    0  501 -0.00000000000E+00 -0.00000000000E+00 -0.19071149269E+03  0.19071149269E+03  0.00000000000E+00 0.  1.
         23    2    1    2    0    0 -0.41216503267E+02  0.21499217315E+03 -0.10263766867E+03  0.25683164151E+03  0.86646213976E+02 0.  0.
         11    1    3    3    0    0 -0.45746622758E+02  0.94109578530E+02 -0.11286482519E+02  0.10524614460E+03  0.00000000000E+00 0. -1.
        -11    1    3    3    0    0  0.45301194910E+01  0.12088259462E+03 -0.91351186155E+02  0.15158549692E+03  0.00000000000E+00 0.  1.
         22    1    1    2    0    0  0.41216503267E+02 -0.21499217315E+03  0.10804220790E+04  0.11023757542E+04  0.00000000000E+00 0. -1.
<mgrwt>
<rscale>  0 0.94413049E+03</rscale>
<asrwt>0</asrwt>
<pdfrwt beam="1">  1        2 0.17976860E+00 0.94413049E+03</pdfrwt>
<pdfrwt beam="2">  1       -2 0.29340230E-01 0.94413049E+03</pdfrwt>
<totfact> 0.21134612E+02</totfact>
</mgrwt>
</event>
<event>
 6    1  0.1001928E-005  0.3247702E+04  0.7818608E-02  0.8176332E-01
         -2   -1    0    0    0  501 -0.00000000000E+00  0.00000000000E+00  0.22859356887E+04  0.22859356887E+04  0.00000000000E+00 0.  1.
          2   -1    0    0  501    0  0.00000000000E+00 -0.00000000000E+00 -0.11535284989E+04  0.11535284989E+04  0.00000000000E+00 0. -1.
         23    2    1    2    0    0 -0.42113434750E+03  0.19956072516E+03 -0.10793611789E+04  0.11791328097E+04  0.90305075753E+02 0.  0.
         11    1    3    3    0    0 -0.34402119787E+03  0.13305010486E+03 -0.90388820895E+03  0.97625140679E+03  0.00000000000E+00 0.  1.
        -11    1    3    3    0    0 -0.77113149629E+02  0.66510620302E+02 -0.17547296992E+03  0.20288140287E+03  0.00000000000E+00 0. -1.
         22    1    1    2    0    0  0.42113434750E+03 -0.19956072516E+03  0.22117683686E+04  0.22603313779E+04  0.00000000000E+00 0.  1.
<mgrwt>
<rscale>  0 0.32477019E+04</rscale>
<asrwt>0</asrwt>
<pdfrwt beam="1">  1        2 0.17746592E+00 0.32477019E+04</pdfrwt>
<pdfrwt beam="2">  1       -2 0.35168241E+00 0.32477019E+04</pdfrwt>
<totfact> 0.25715777E-01</totfact>
</mgrwt>
</event>
<event>
 6    1  0.1001928E-005  0.3744285E+04  0.7818608E-02  0.8058218E-01
         -2   -1    0    0    0  501 -0.00000000000E+00  0.00000000000E+00  0.15032081700E+04  0.15032081700E+04  0.00000000000E+00 0. -1.
          2   -1    0    0  501    0  0.00000000000E+00 -0.00000000000E+00 -0.23316246102E+04  0.23316246102E+04  0.00000000000E+00 0.  1.
         23    2    1    2    0    0 -0.94857582801E+03 -0.14644213722E+04 -0.11064419128E+04  0.20680208999E+04  0.90391808891E+02 0.  0.
         13    1    3    3    0    0 -0.80360714518E+03 -0.11768754221E+04 -0.90845495777E+03  0.16900031400E+04  0.00000000000E+00 0. -1.
        -13    1    3    3    0    0 -0.14496868283E+03 -0.28754595014E+03 -0.19798695503E+03  0.37801775991E+03  0.00000000000E+00 0.  1.
         22    1    1    2    0    0  0.94857582801E+03  0.14644213722E+04  0.27802547258E+03  0.17668118803E+04  0.00000000000E+00 0. -1.
<mgrwt>
<rscale>  0 0.37442848E+04</rscale>
<asrwt>0</asrwt>
<pdfrwt beam="1">  1        2 0.35871148E+00 0.37442848E+04</pdfrwt>
<pdfrwt beam="2">  1       -2 0.23126279E+00 0.37442848E+04</pdfrwt>
<totfact> 0.29416134E-01</totfact>
</mgrwt>
</event>
<event>
 6    1  0.1001928E-005  0.1164811E+04  0.7818608E-02  0.9144228E-01
          2   -1    0    0  501    0  0.00000000000E+00  0.00000000000E+00  0.21084970614E+04  0.21084970614E+04  0.00000000000E+00 0. -1.
         -2   -1    0    0    0  501 -0.00000000000E+00 -0.00000000000E+00 -0.16087095618E+03  0.16087095618E+03  0.00000000000E+00 0.  1.
         23    2    1    2    0    0 -0.52549331536E+03  0.81180415597E+02  0.53338101610E+03  0.75846674468E+03  0.89682830478E+02 0.  0.
         11    1    3    3    0    0 -0.30807328110E+03  0.52561449894E+02  0.37390145789E+03  0.48731319781E+03  0.00000000000E+00 0.  1.
        -11    1    3    3    0    0 -0.21742003426E+03  0.28618965702E+02  0.15947955821E+03  0.27115354687E+03  0.00000000000E+00 0. -1.
         22    1    1    2    0    0  0.52549331536E+03 -0.81180415597E+02  0.14142450891E+04  0.15109012729E+04  0.00000000000E+00 0. -1.
<mgrwt>
<rscale>  0 0.11648106E+04</rscale>
<asrwt>0</asrwt>
<pdfrwt beam="1">  1        2 0.32438414E+00 0.11648106E+04</pdfrwt>
<pdfrwt beam="2">  1       -2 0.24749379E-01 0.11648106E+04</pdfrwt>
<totfact> 0.84190589E+01</totfact>
</mgrwt>
</event>
<event>
 6    1  0.1037950E-005  0.2779542E+04  0.7818608E-02  0.8309648E-01
         -1   -1    0    0    0  501 -0.00000000000E+00  0.00000000000E+00  0.99068871768E+03  0.99068871768E+03  0.00000000000E+00 0.  1.
          1   -1    0    0  501    0  0.00000000000E+00 -0.00000000000E+00 -0.19496166460E+04  0.19496166460E+04  0.00000000000E+00 0. -1.
         23    2    1    2    0    0 -0.67370522847E+03  0.52314046052E+03 -0.16386709131E+04  0.18496151228E+04  0.90989365421E+02 0.  0.
         13    1    3    3    0    0 -0.34461332658E+03  0.21144329930E+03 -0.79369185451E+03  0.89073754473E+03  0.00000000000E+00 0. -1.
        -13    1    3    3    0    0 -0.32909190188E+03  0.31169716123E+03 -0.84497905862E+03  0.95887757806E+03  0.00000000000E+00 0.  1.
         22    1    1    2    0    0  0.67370522847E+03 -0.52314046052E+03  0.67974298478E+03  0.10906902409E+04  0.00000000000E+00 0.  1.
<mgrwt>
<rscale>  0 0.27795418E+04</rscale>
<asrwt>0</asrwt>
<pdfrwt beam="1">  1        1 0.29994102E+00 0.27795418E+04</pdfrwt>
<pdfrwt beam="2">  1       -1 0.15241365E+00 0.27795418E+04</pdfrwt>
<totfact> 0.93419707E-01</totfact>
</mgrwt>
</event>
<event>
 6    1  0.1365817E-005  0.3979168E+04  0.7818608E-02  0.8008762E-01
          1   -1    0    0  501    0  0.00000000000E+00  0.00000000000E+00  0.16249500059E+04  0.16249500059E+04  0.00000000000E+00 0. -1.
         -1   -1    0    0    0  501 -0.00000000000E+00 -0.00000000000E+00 -0.24360413045E+04  0.24360413045E+04  0.00000000000E+00 0.  1.
         23    2    1    2    0    0 -0.40049301937E+03  0.19118953431E+04 -0.78568590329E+03  0.21074345809E+04  0.90772861425E+02 0.  0.
         11    1    3    3    0    0 -0.27121116294E+03  0.10799873160E+04 -0.43766022984E+03  0.11964424660E+04  0.00000000000E+00 0. -1.
        -11    1    3    3    0    0 -0.12928185643E+03  0.83190802713E+03 -0.34802567345E+03  0.91099211489E+03  0.00000000000E+00 0.  1.
         22    1    1    2    0    0  0.40049301937E+03 -0.19118953431E+04 -0.25405395329E+02  0.19535567296E+04  0.00000000000E+00 0. -1.
<mgrwt>
<rscale>  0 0.39791684E+04</rscale>
<asrwt>0</asrwt>
<pdfrwt beam="1">  1        1 0.24999231E+00 0.39791684E+04</pdfrwt>
<pdfrwt beam="2">  1       -1 0.37477558E+00 0.39791684E+04</pdfrwt>
<totfact> 0.44601824E-02</totfact>
</mgrwt>
</event>
<event>
 6    1  0.1001928E-005  0.4685097E+04  0.7818608E-02  0.7879009E-01
          1   -1    0    0  501    0  0.00000000000E+00  0.00000000000E+00  0.35669256033E+04  0.35669256033E+04  0.00000000000E+00 0. -1.
         -1   -1    0    0    0  501 -0.00000000000E+00 -0.00000000000E+00 -0.15384491755E+04  0.15384491755E+04  0.00000000000E+00 0.  1.
         23    2    1    2    0    0 -0.73962065233E+03  0.46682605466E+02  0.34352549623E+04  0.35153295530E+04  0.85716012054E+02 0.  0.
         13    1    3    3    0    0 -0.53197950261E+03  0.47204507573E+02  0.22949569880E+04  0.23562805507E+04  0.00000000000E+00 0. -1.
        -13    1    3    3    0    0 -0.20764114972E+03 -0.52190210626E+00  0.11402979743E+04  0.11590490023E+04  0.00000000000E+00 0.  1.
         22    1    1    2    0    0  0.73962065233E+03 -0.46682605466E+02 -0.14067785345E+04  0.15900452258E+04  0.00000000000E+00 0.  1.
<mgrwt>
<rscale>  0 0.46850971E+04</rscale>
<asrwt>0</asrwt>
<pdfrwt beam="1">  1        1 0.54875778E+00 0.46850971E+04</pdfrwt>
<pdfrwt beam="2">  1       -1 0.23668449E+00 0.46850971E+04</pdfrwt>
<totfact> 0.13933210E-02</totfact>
</mgrwt>
</event>
<event>
 6    1  0.1001928E-005  0.8347616E+03  0.7818608E-02  0.9511021E-01
         -1   -1    0    0    0  501 -0.00000000000E+00  0.00000000000E+00  0.32944026437E+03  0.32944026437E+03  0.00000000000E+00 0.  1.
          1   -1    0    0  501    0  0.00000000000E+00 -0.00000000000E+00 -0.52879608479E+03  0.52879608479E+03  0.00000000000E+00 0. -1.
         23    2    1    2    0    0  0.39574394708E+03 -0.10193441057E+03 -0.15446115254E+03  0.44711662582E+03  0.95137446524E+02 0.  0.
         11    1    3    3    0    0  0.26282719728E+03 -0.30283734390E+02 -0.68199075183E+02  0.27321484962E+03  0.00000000000E+00 0. -1.
        -11    1    3    3    0    0  0.13291674980E+03 -0.71650676176E+02 -0.86262077359E+02  0.17390177620E+03  0.00000000000E+00 0.  1.
         22    1    1    2    0    0 -0.39574394708E+03  0.10193441057E+03 -0.44894667873E+02  0.41111972334E+03  0.00000000000E+00 0.  1.
<mgrwt>
<rscale>  0 0.83476158E+03</rscale>
<asrwt>0</asrwt>
<pdfrwt beam="1">  1        1 0.81353244E-01 0.83476158E+03</pdfrwt>
<pdfrwt beam="2">  1       -1 0.50683117E-01 0.83476158E+03</pdfrwt>
<totfact> 0.16201497E+02</totfact>
</mgrwt>
</event>
<event>
 6    1  0.1001928E-005  0.1878678E+04  0.7818608E-02  0.8665543E-01
          1   -1    0    0  501    0  0.00000000000E+00  0.00000000000E+00  0.14573425315E+04  0.14573425315E+04  0.00000000000E+00 0. -1.
         -1   -1    0    0    0  501 -0.00000000000E+00 -0.00000000000E+00 -0.60545671671E+03  0.60545671671E+03  0.00000000000E+00 0.  1.
         23    2    1    2    0    0  0.42562897272E+03  0.34812864730E+03 -0.40633146682E+03  0.68967714685E+03  0.90530262775E+02 0.  0.
         11    1    3    3    0    0  0.42244733065E+02  0.33320832660E+02 -0.78126768878E+02  0.94861411418E+02  0.00000000000E+00 0.  1.
        -11    1    3    3    0    0  0.38338423965E+03  0.31480781464E+03 -0.32820469794E+03  0.59481573544E+03  0.00000000000E+00 0. -1.
         22    1    1    2    0    0 -0.42562897272E+03 -0.34812864730E+03  0.12582172817E+04  0.13731221014E+04  0.00000000000E+00 0. -1.
<mgrwt>
<rscale>  0 0.18786781E+04</rscale>
<asrwt>0</asrwt>
<pdfrwt beam="1">  1        1 0.22420654E+00 0.18786781E+04</pdfrwt>
<pdfrwt beam="2">  1       -1 0.93147188E-01 0.18786781E+04</pdfrwt>
<totfact> 0.73469976E+00</totfact>
</mgrwt>
</event>
<event>
 6    1  0.1001928E-005  0.1540340E+04  0.7818608E-02  0.8858062E-01
         -1   -1    0    0    0  501 -0.00000000000E+00  0.00000000000E+00  0.28362985338E+03  0.28362985338E+03  0.00000000000E+00 0.  1.
          1   -1    0    0  501    0  0.00000000000E+00 -0.00000000000E+00 -0.20913241456E+04  0.20913241456E+04  0.00000000000E+00 0. -1.
         23    2    1    2    0    0 -0.75639845097E+03 -0.66571708675E+02 -0.73540795302E+03  0.10610406068E+04  0.91716425987E+02 0.  0.
         13    1    3    3    0    0 -0.49405054056E+03 -0.58710767821E+02 -0.42323803704E+03  0.65319470824E+03  0.00000000000E+00 0. -1.
        -13    1    3    3    0    0 -0.26234791041E+03 -0.78609408548E+01 -0.31216991598E+03  0.40784589851E+03  0.00000000000E+00 0.  1.
         22    1    1    2    0    0  0.75639845097E+03  0.66571708675E+02 -0.10722863392E+04  0.13139133922E+04  0.00000000000E+00 0. -1.
<mgrwt>
<rscale>  0 0.15403402E+04</rscale>
<asrwt>0</asrwt>
<pdfrwt beam="1">  1        1 0.32174218E+00 0.15403402E+04</pdfrwt>
<pdfrwt beam="2">  1       -1 0.43635362E-01 0.15403402E+04</pdfrwt>
<totfact> 0.12929802E+01</totfact>
</mgrwt>
</event>
<event>
 6    1  0.1001928E-005  0.1961930E+04  0.7818608E-02  0.8624629E-01
         -1   -1    0    0    0  501 -0.00000000000E+00  0.00000000000E+00  0.39259414590E+03  0.39259414590E+03  0.00000000000E+00 0.  1.
          1   -1    0    0  501    0  0.00000000000E+00 -0.00000000000E+00 -0.24511123573E+04  0.24511123573E+04  0.00000000000E+00 0. -1.
         23    2    1    2    0    0 -0.20235382884E+03 -0.22717659434E+03 -0.23801192208E+04  0.24010062816E+04  0.85483224958E+02 0.  0.
         11    1    3    3    0    0 -0.12503707603E+03 -0.14464439795E+03 -0.11593614681E+04  0.11750213981E+04  0.00000000000E+00 0.  1.
        -11    1    3    3    0    0 -0.77316752809E+02 -0.82532196399E+02 -0.12207577527E+04  0.12259848835E+04  0.00000000000E+00 0. -1.
         22    1    1    2    0    0  0.20235382884E+03  0.22717659434E+03  0.32160100936E+03  0.44270022169E+03  0.00000000000E+00 0.  1.
<mgrwt>
<rscale>  0 0.19619300E+04</rscale>
<asrwt>0</asrwt>
<pdfrwt beam="1">  1        1 0.37709421E+00 0.19619300E+04</pdfrwt>
<pdfrwt beam="2">  1       -1 0.60399099E-01 0.19619300E+04</pdfrwt>
<totfact> 0.37910041E+00</totfact>
</mgrwt>
</event>
<event>
 6    1  0.1001928E-005  0.1765551E+04  0.7818608E-02  0.8724837E-01
         -1   -1    0    0    0  501 -0.00000000000E+00  0.00000000000E+00  0.37656541186E+03  0.37656541186E+03  0.00000000000E+00 0. -1.
          1   -1    0    0  501    0  0.00000000000E+00 -0.00000000000E+00 -0.20694749166E+04  0.20694749166E+04  0.00000000000E+00 0.  1.
         23    2    1    2    0    0  0.65832249179E+03  0.57128340110E+03 -0.67651716351E+03  0.11070830405E+04  0.90576810007E+02 0.  0.
         13    1    3    3    0    0  0.21263329335E+03  0.14419329473E+03 -0.16433722763E+03  0.30497761897E+03  0.00000000000E+00 0. -1.
        -13    1    3    3    0    0  0.44568919845E+03  0.42709010637E+03 -0.51217993588E+03  0.80210542155E+03  0.00000000000E+00 0.  1.
         22    1    1    2    0    0 -0.65832249179E+03 -0.57128340110E+03 -0.10163923412E+04  0.13389572879E+04  0.00000000000E+00 0.  1.
<mgrwt>
<rscale>  0 0.17655511E+04</rscale>
<asrwt>0</asrwt>
<pdfrwt beam="1">  1        1 0.31838076E+00 0.17655511E+04</pdfrwt>
<pdfrwt beam="2">  1       -1 0.57933140E-01 0.17655511E+04</pdfrwt>
<totfact> 0.76380527E+00</totfact>
</mgrwt>
</event>
<event>
 6    1  0.1001928E-005  0.6182912E+04  0.7818608E-02  0.7668128E-01
         -2   -1    0    0    0  501 -0.00000000000E+00  0.00000000000E+00  0.25059424987E+04  0.25059424987E+04  0.00000000000E+00 0.  1.
          2   -1    0    0  501    0  0.00000000000E+00 -0.00000000000E+00 -0.38137741876E+04  0.38137741876E+04  0.00000000000E+00 0. -1.
         23    2    1    2    0    0 -0.81693419545E+03  0.25957736439E+03 -0.36893278798E+04  0.37886524842E+04  0.89361925974E+02 0.  0.
         11    1    3    3    0    0 -0.66192691507E+03  0.17265154499E+03 -0.29140388227E+04  0.29932554279E+04  0.00000000000E+00 0. -1.
        -11    1    3    3    0    0 -0.15500728038E+03  0.86925819396E+02 -0.77528905710E+03  0.79539705626E+03  0.00000000000E+00 0.  1.
         22    1    1    2    0    0  0.81693419545E+03 -0.25957736439E+03  0.23814961909E+04  0.25310642021E+04  0.00000000000E+00 0.  1.
<mgrwt>
<rscale>  0 0.61829116E+04</rscale>
<asrwt>0</asrwt>
<pdfrwt beam="1">  1        2 0.58673449E+00 0.61829116E+04</pdfrwt>
<pdfrwt beam="2">  1       -2 0.38552961E+00 0.61829116E+04</pdfrwt>
<totfact> 0.29243752E-03</totfact>
</mgrwt>
</event>
<event>
 6    1  0.1001928E-005  0.1704576E+04  0.7818608E-02  0.8758759E-01
          2   -1    0    0  501    0  0.00000000000E+00  0.00000000000E+00  0.13372958064E+04  0.13372958064E+04  0.00000000000E+00 0.  1.
         -2   -1    0    0    0  501 -0.00000000000E+00 -0.00000000000E+00 -0.54318200073E+03  0.54318200073E+03  0.00000000000E+00 0. -1.
         23    2    1    2    0    0 -0.79672324152E+03  0.67768388126E+02  0.80604198750E+02  0.80881720917E+03  0.91256577768E+02 0.  0.
         13    1    3    3    0    0 -0.41988939089E+03  0.68633317876E+01  0.66656626432E+01  0.41999837733E+03  0.00000000000E+00 0.  1.
        -13    1    3    3    0    0 -0.37683385063E+03  0.60905056339E+02  0.73938536107E+02  0.38881883184E+03  0.00000000000E+00 0. -1.
         22    1    1    2    0    0  0.79672324152E+03 -0.67768388126E+02  0.71350960689E+03  0.10716605979E+04  0.00000000000E+00 0.  1.
<mgrwt>
<rscale>  0 0.17045762E+04</rscale>
<asrwt>0</asrwt>
<pdfrwt beam="1">  1        2 0.20573782E+00 0.17045762E+04</pdfrwt>
<pdfrwt beam="2">  1       -2 0.83566462E-01 0.17045762E+04</pdfrwt>
<totfact> 0.18736435E+01</totfact>
</mgrwt>
</event>
<event>
 6    1  0.1001928E-005  0.2744116E+04  0.7818608E-02  0.8320831E-01
          2   -1    0    0  501    0  0.00000000000E+00  0.00000000000E+00  0.22901790720E+04  0.22901790720E+04  0.00000000000E+00 0. -1.
         -2   -1    0    0    0  501 -0.00000000000E+00 -0.00000000000E+00 -0.82200676758E+03  0.82200676758E+03  0.00000000000E+00 0.  1.
         23    2    1    2    0    0 -0.49592551650E+03 -0.10865509335E+04  0.14971994991E+04  0.19174567376E+04  0.92189758506E+02 0.  0.
         13    1    3    3    0    0 -0.38752481016E+03 -0.92629943660E+03  0.12376432638E+04  0.15937273836E+04  0.00000000000E+00 0.  1.
        -13    1    3    3    0    0 -0.10840070635E+03 -0.16025149693E+03  0.25955623528E+03  0.32372935406E+03  0.00000000000E+00 0. -1.
         22    1    1    2    0    0  0.49592551650E+03  0.10865509335E+04 -0.29027194634E+02  0.11947291020E+04  0.00000000000E+00 0.  1.
<mgrwt>
<rscale>  0 0.27441157E+04</rscale>
<asrwt>0</asrwt>
<pdfrwt beam="1">  1        2 0.35233524E+00 0.27441157E+04</pdfrwt>
<pdfrwt beam="2">  1       -2 0.12646258E+00 0.27441157E+04</pdfrwt>
<totfact> 0.18690040E+00</totfact>
</mgrwt>
</event>
<event>
 6    1  0.1001928E-005  0.2625225E+04  0.7818608E-02  0.8359683E-01
         -1   -1    0    0    0  501 -0.00000000000E+00  0.00000000000E+00  0.69256930695E+03  0.69256930695E+03  0.00000000000E+00 0.  1.
          1   -1    0    0  501    0  0.00000000000E+00 -0.00000000000E+00 -0.24877682504E+04  0.24877682504E+04  0.00000000000E+00 0. -1.
         23    2    1    2    0    0  0.82617055836E+03  0.10107442186E+04 -0.75206699992E+03  0.15093241168E+04  0.91065087413E+02 0.  0.
         13    1    3    3    0    0  0.34801294442E+03  0.41639254735E+03 -0.36423977419E+03  0.65357966314E+03  0.00000000000E+00 0. -1.
        -13    1    3    3    0    0  0.47815761394E+03  0.59435167127E+03 -0.38782722573E+03  0.85574445364E+03  0.00000000000E+00 0.  1.
         22    1    1    2    0    0 -0.82617055836E+03 -0.10107442186E+04 -0.10431319435E+04  0.16710134406E+04  0.00000000000E+00 0. -1.
<mgrwt>
<rscale>  0 0.26252253E+04</rscale>
<asrwt>0</asrwt>
<pdfrwt beam="1">  1        1 0.38273358E+00 0.26252253E+04</pdfrwt>
<pdfrwt beam="2">  1       -1 0.10654912E+00 0.26252253E+04</pdfrwt>
<totfact> 0.99840499E-01</totfact>
</mgrwt>
</event>
<event>
 6    1  0.2256178E-005  0.3866166E+04  0.7818608E-02  0.8032103E-01
         -1   -1    0    0    0  501 -0.00000000000E+00  0.00000000000E+00  0.24533746044E+04  0.24533746044E+04  0.00000000000E+00 0.  1.
          1   -1    0    0  501    0  0.00000000000E+00 -0.00000000000E+00 -0.15231304108E+04  0.15231304108E+04  0.00000000000E+00 0. -1.
         23    2    1    2    0    0  0.43645033859E+03 -0.11235630659E+04 -0.10876294528E+04  0.16260376332E+04  0.90430619419E+02 0.  0.
         13    1    3    3    0    0  0.11531239242E+03 -0.40947645054E+03 -0.36389395906E+03  0.55980954336E+03  0.00000000000E+00 0. -1.
        -13    1    3    3    0    0  0.32113794617E+03 -0.71408661532E+03 -0.72373549373E+03  0.10662280898E+04  0.00000000000E+00 0.  1.
         22    1    1    2    0    0 -0.43645033859E+03  0.11235630659E+04  0.20178736464E+04  0.23504673820E+04  0.00000000000E+00 0.  1.
<mgrwt>
<rscale>  0 0.38661658E+04</rscale>
<asrwt>0</asrwt>
<pdfrwt beam="1">  1        1 0.23432776E+00 0.38661658E+04</pdfrwt>
<pdfrwt beam="2">  1       -1 0.37744225E+00 0.38661658E+04</pdfrwt>
<totfact> 0.50759943E-02</totfact>
</mgrwt>
</event>
<event>
 6    1  0.1001928E-005  0.6326480E+03  0.7818608E-02  0.9839895E-01
          1   -1    0    0  501    0  0.00000000000E+00  0.00000000000E+00  0.25796980953E+03  0.25796980953E+03  0.00000000000E+00 0. -1.
         -1   -1    0    0    0  501 -0.00000000000E+00 -0.00000000000E+00 -0.38787826058E+03  0.38787826058E+03  0.00000000000E+00 0.  1.
         23    2    1    2    0    0 -0.21020729128E+02 -0.16822468148E+03 -0.33095689902E+03  0.38286158196E+03  0.91154305552E+02 0.  0.
         13    1    3    3    0    0  0.23536833809E+02 -0.11908037921E+03 -0.25219135091E+03  0.27988318408E+03  0.00000000000E+00 0. -1.
        -13    1    3    3    0    0 -0.44557562937E+02 -0.49144302270E+02 -0.78765548111E+02  0.10297839788E+03  0.00000000000E+00 0.  1.
         22    1    1    2    0    0  0.21020729128E+02  0.16822468148E+03  0.20104844797E+03  0.26298648814E+03  0.00000000000E+00 0. -1.
<mgrwt>
<rscale>  0 0.63264803E+03</rscale>
<asrwt>0</asrwt>
<pdfrwt beam="1">  1        1 0.39687663E-01 0.63264803E+03</pdfrwt>
<pdfrwt beam="2">  1       -1 0.59673578E-01 0.63264803E+03</pdfrwt>
<totfact> 0.30827444E+02</totfact>
</mgrwt>
</event>
<event>
 6    1  0.1001928E-005  0.2319955E+04  0.7818608E-02  0.8470094E-01
         -2   -1    0    0    0  501 -0.00000000000E+00  0.00000000000E+00  0.10120456164E+04  0.10120456164E+04  0.00000000000E+00 0.  1.
          2   -1    0    0  501    0  0.00000000000E+00 -0.00000000000E+00 -0.13295328365E+04  0.13295328365E+04  0.00000000000E+00 0. -1.
         23    2    1    2    0    0 -0.43553472587E+03  0.76131942019E+03 -0.92220894315E+03  0.12762211799E+04  0.94728074826E+02 0.  0.
         13    1    3    3    0    0 -0.68439378989E+02  0.16261246013E+03 -0.14186587009E+03  0.22639056050E+03  0.00000000000E+00 0. -1.
        -13    1    3    3    0    0 -0.36709534688E+03  0.59870696005E+03 -0.78034307306E+03  0.10498306194E+04  0.00000000000E+00 0.  1.
         22    1    1    2    0    0  0.43553472587E+03 -0.76131942019E+03  0.60472172297E+03  0.10653572730E+04  0.00000000000E+00 0.  1.
<mgrwt>
<rscale>  0 0.23199551E+04</rscale>
<asrwt>0</asrwt>
<pdfrwt beam="1">  1        2 0.20454351E+00 0.23199551E+04</pdfrwt>
<pdfrwt beam="2">  1       -2 0.15569933E+00 0.23199551E+04</pdfrwt>
<totfact> 0.39012285E+00</totfact>
</mgrwt>
</event>
<event>
 6    1  0.1001928E-005  0.1390210E+04  0.7818608E-02  0.8960936E-01
          2   -1    0    0  501    0  0.00000000000E+00  0.00000000000E+00  0.19546304037E+04  0.19546304037E+04  0.00000000000E+00 0. -1.
         -2   -1    0    0    0  501 -0.00000000000E+00 -0.00000000000E+00 -0.24719304866E+03  0.24719304866E+03  0.00000000000E+00 0.  1.
         23    2    1    2    0    0  0.54967365537E+03 -0.15160397965E+03  0.14788098163E+04  0.15874982571E+04  0.90262669483E+02 0.  0.
         11    1    3    3    0    0  0.37525494044E+03 -0.14356343600E+03  0.10709561717E+04  0.11438417076E+04  0.00000000000E+00 0.  1.
        -11    1    3    3    0    0  0.17441871493E+03 -0.80405436495E+01  0.40785364462E+03  0.44365654947E+03  0.00000000000E+00 0. -1.
         22    1    1    2    0    0 -0.54967365537E+03  0.15160397965E+03  0.22862753874E+03  0.61432519526E+03  0.00000000000E+00 0.  1.
<mgrwt>
<rscale>  0 0.13902101E+04</rscale>
<asrwt>0</asrwt>
<pdfrwt beam="1">  1        2 0.30071236E+00 0.13902101E+04</pdfrwt>
<pdfrwt beam="2">  1       -2 0.38029701E-01 0.13902101E+04</pdfrwt>
<totfact> 0.45036532E+01</totfact>
</mgrwt>
</event>
<event>
 6    1  0.1001928E-005  0.3316888E+04  0.7818608E-02  0.8158611E-01
          2   -1    0    0  501    0  0.00000000000E+00  0.00000000000E+00  0.18521714989E+04  0.18521714989E+04  0.00000000000E+00 0. -1.
         -2   -1    0    0    0  501 -0.00000000000E+00 -0.00000000000E+00 -0.14849793975E+04  0.14849793975E+04  0.00000000000E+00 0.  1.
         23    2    1    2    0    0 -0.11415441341E+04  0.54905743616E+03  0.12586929504E+04  0.17881638590E+04  0.92924510886E+02 0.  0.
         13    1    3    3    0    0 -0.72082762903E+03  0.33466570284E+03  0.85015616864E+03  0.11637693562E+04  0.00000000000E+00 0.  1.
        -13    1    3    3    0    0 -0.42071650511E+03  0.21439173331E+03  0.40853678175E+03  0.62439450272E+03  0.00000000000E+00 0. -1.
         22    1    1    2    0    0  0.11415441341E+04 -0.54905743616E+03 -0.89150084899E+03  0.15489870374E+04  0.00000000000E+00 0.  1.
<mgrwt>
<rscale>  0 0.33168880E+04</rscale>
<asrwt>0</asrwt>
<pdfrwt beam="1">  1        2 0.28494946E+00 0.33168880E+04</pdfrwt>
<pdfrwt beam="2">  1       -2 0.22845837E+00 0.33168880E+04</pdfrwt>
<totfact> 0.58863184E-01</totfact>
</mgrwt>
</event>
<event>
 6    1  0.1001928E-005  0.2365998E+04  0.7818608E-02  0.8452344E-01
         -1   -1    0    0    0  501 -0.00000000000E+00  0.00000000000E+00  0.34072659191E+04  0.34072659191E+04  0.00000000000E+00 0.  1.
          1   -1    0    0  501    0  0.00000000000E+00 -0.00000000000E+00 -0.41073598393E+03  0.41073598393E+03  0.00000000000E+00 0. -1.
         23    2    1    2    0    0  0.11451050548E+02 -0.11020206166E+04  0.21868233130E+04  0.24504473776E+04  0.88969557432E+02 0.  0.
         11    1    3    3    0    0  0.46224149426E+02 -0.41641957216E+03  0.85186370357E+03  0.94932275940E+03  0.00000000000E+00 0.  1.
        -11    1    3    3    0    0 -0.34773098878E+02 -0.68560104447E+03  0.13349596094E+04  0.15011246182E+04  0.00000000000E+00 0. -1.
         22    1    1    2    0    0 -0.11451050548E+02  0.11020206166E+04  0.80970662217E+03  0.13675545254E+04  0.00000000000E+00 0.  1.
<mgrwt>
<rscale>  0 0.23659981E+04</rscale>
<asrwt>0</asrwt>
<pdfrwt beam="1">  1        1 0.63190154E-01 0.23659981E+04</pdfrwt>
<pdfrwt beam="2">  1       -1 0.52419474E+00 0.23659981E+04</pdfrwt>
<totfact> 0.54361025E-02</totfact>
</mgrwt>
</event>
<event>
 6    1  0.1001928E-005  0.4036003E+04  0.7818608E-02  0.7997323E-01
          1   -1    0    0  501    0  0.00000000000E+00  0.00000000000E+00  0.25885878374E+04  0.25885878374E+04  0.00000000000E+00 0. -1.
         -1   -1    0    0    0  501 -0.00000000000E+00 -0.00000000000E+00 -0.15731857229E+04  0.15731857229E+04  0.00000000000E+00 0.  1.
         23    2    1    2    0    0 -0.13971172954E+04 -0.14538824090E+04  0.55818901332E+03  0.20942255883E+04  0.92168562387E+02 0.  0.
         11    1    3    3    0    0 -0.34872555445E+03 -0.30942653939E+03  0.11689110115E+03  0.48064313698E+03  0.00000000000E+00 0. -1.
        -11    1    3    3    0    0 -0.10483917410E+04 -0.11444558696E+04  0.44129791217E+03  0.16135824513E+04  0.00000000000E+00 0.  1.
         22    1    1    2    0    0  0.13971172954E+04  0.14538824090E+04  0.45721310119E+03  0.20675479719E+04  0.00000000000E+00 0.  1.
<mgrwt>
<rscale>  0 0.40360027E+04</rscale>
<asrwt>0</asrwt>
<pdfrwt beam="1">  1        1 0.39824428E+00 0.40360027E+04</pdfrwt>
<pdfrwt beam="2">  1       -1 0.24202857E+00 0.40360027E+04</pdfrwt>
<totfact> 0.72104354E-02</totfact>
</mgrwt>
</event>
<event>
 6    1  0.1001928E-005  0.1904415E+04  0.7818608E-02  0.8652662E-01
          1   -1    0    0  501    0  0.00000000000E+00  0.00000000000E+00  0.23564358879E+04  0.23564358879E+04  0.00000000000E+00 0. -1.
         -1   -1    0    0    0  501 -0.00000000000E+00 -0.00000000000E+00 -0.38477558229E+03  0.38477558229E+03  0.00000000000E+00 0.  1.
         23    2    1    2    0    0 -0.17794385292E+03  0.93230177054E+03  0.92746306853E+03  0.13301131476E+04  0.90347305949E+02 0.  0.
         13    1    3    3    0    0 -0.10904105751E+03  0.66057209547E+03  0.70488461591E+03  0.97216653269E+03  0.00000000000E+00 0. -1.
        -13    1    3    3    0    0 -0.68902795417E+02  0.27172967507E+03  0.22257845262E+03  0.35794661487E+03  0.00000000000E+00 0.  1.
         22    1    1    2    0    0  0.17794385292E+03 -0.93230177054E+03  0.10441972370E+04  0.14110983226E+04  0.00000000000E+00 0.  1.
<mgrwt>
<rscale>  0 0.19044149E+04</rscale>
<asrwt>0</asrwt>
<pdfrwt beam="1">  1        1 0.36252859E+00 0.19044149E+04</pdfrwt>
<pdfrwt beam="2">  1       -1 0.59196245E-01 0.19044149E+04</pdfrwt>
<totfact> 0.46075894E+00</totfact>
</mgrwt>
</event>
<event>
 6    1  0.1001928E-005  0.5217317E+04  0.7818608E-02  0.7795831E-01
         -2   -1    0    0    0  501 -0.00000000000E+00  0.00000000000E+00  0.13154173959E+04  0.13154173959E+04  0.00000000000E+00 0.  1.
          2   -1    0    0  501    0  0.00000000000E+00 -0.00000000000E+00 -0.51733385892E+04  0.51733385892E+04  0.00000000000E+00 0. -1.
         23    2    1    2    0    0 -0.87078423602E+03 -0.22631987747E+04 -0.73599912099E+03  0.25356899212E+04  0.87719957937E+02 0.  0.
         11    1    3    3    0    0 -0.34716147630E+03 -0.97298671765E+03 -0.27677282635E+03  0.10694986867E+04  0.00000000000E+00 0. -1.
        -11    1    3    3    0    0 -0.52362275972E+03 -0.12902120570E+04 -0.45922629464E+03  0.14661912346E+04  0.00000000000E+00 0.  1.
         22    1    1    2    0    0  0.87078423602E+03  0.22631987747E+04 -0.31219220724E+04  0.39530660639E+04  0.00000000000E+00 0. -1.
<mgrwt>
<rscale>  0 0.52173172E+04</rscale>
<asrwt>0</asrwt>
<pdfrwt beam="1">  1        2 0.79589823E+00 0.52173172E+04</pdfrwt>
<pdfrwt beam="2">  1       -2 0.20237191E+00 0.52173172E+04</pdfrwt>
<totfact> 0.18081541E-03</totfact>
</mgrwt>
</event>
<event>
 6    1  0.1001928E-005  0.1873816E+04  0.7818608E-02  0.8668001E-01
          2   -1    0    0  501    0  0.00000000000E+00  0.00000000000E+00  0.93270440949E+03  0.93270440949E+03  0.00000000000E+00 0. -1.
         -2   -1    0    0    0  501 -0.00000000000E+00 -0.00000000000E+00 -0.94113063183E+03  0.94113063183E+03  0.00000000000E+00 0.  1.
         23    2    1    2    0    0 -0.85358306724E+03  0.37729456013E+03  0.42471241333E+02  0.93919832601E+03  0.96614965008E+02 0.  0.
         13    1    3    3    0    0 -0.38636780898E+03  0.21699883924E+03  0.43340753390E+02  0.44524936940E+03  0.00000000000E+00 0. -1.
        -13    1    3    3    0    0 -0.46721525826E+03  0.16029572089E+03 -0.86951205749E+00  0.49394895661E+03  0.00000000000E+00 0.  1.
         22    1    1    2    0    0  0.85358306724E+03 -0.37729456013E+03 -0.50897463672E+02  0.93463671530E+03  0.00000000000E+00 0. -1.
<mgrwt>
<rscale>  0 0.18738161E+04</rscale>
<asrwt>0</asrwt>
<pdfrwt beam="1">  1        2 0.14349299E+00 0.18738161E+04</pdfrwt>
<pdfrwt beam="2">  1       -2 0.14478933E+00 0.18738161E+04</pdfrwt>
<totfact> 0.86041461E+00</totfact>
</mgrwt>
</event>
<event>
 6    1  0.1001928E-005  0.2162365E+04  0.7818608E-02  0.8534258E-01
          1   -1    0    0  501    0  0.00000000000E+00  0.00000000000E+00  0.19881272869E+04  0.19881272869E+04  0.00000000000E+00 0. -1.
         -1   -1    0    0    0  501 -0.00000000000E+00 -0.00000000000E+00 -0.58796829908E+03  0.58796829908E+03  0.00000000000E+00 0.  1.
         23    2    1    2    0    0  0.66873703416E+03 -0.13959394391E+03 -0.29459595305E+03  0.74883260556E+03  0.85251425552E+02 0.  0.
         13    1    3    3    0    0  0.23746336191E+03 -0.41979716490E+02 -0.14820484204E+03  0.28304738128E+03  0.00000000000E+00 0. -1.
        -13    1    3    3    0    0  0.43127367225E+03 -0.97614227415E+02 -0.14639111101E+03  0.46578522428E+03  0.00000000000E+00 0.  1.
         22    1    1    2    0    0 -0.66873703416E+03  0.13959394391E+03  0.16947549408E+04  0.18272629804E+04  0.00000000000E+00 0. -1.
<mgrwt>
<rscale>  0 0.21623652E+04</rscale>
<asrwt>0</asrwt>
<pdfrwt beam="1">  1        1 0.30586573E+00 0.21623652E+04</pdfrwt>
<pdfrwt beam="2">  1       -1 0.90456662E-01 0.21623652E+04</pdfrwt>
<totfact> 0.33164724E+00</totfact>
</mgrwt>
</event>
<event>
 6    1  0.1001928E-005  0.2498324E+04  0.7818608E-02  0.8403583E-01
          2   -1    0    0  501    0  0.00000000000E+00  0.00000000000E+00  0.10265985267E+04  0.10265985267E+04  0.00000000000E+00 0. -1.
         -2   -1    0    0    0  501 -0.00000000000E+00 -0.00000000000E+00 -0.15199771124E+04  0.15199771124E+04  0.00000000000E+00 0.  1.
         23    2    1    2    0    0 -0.41831547306E+03  0.20943187915E+03  0.93177898567E+03  0.10466010893E+04  0.91171349233E+02 0.  0.
         13    1    3    3    0    0 -0.39023376373E+03  0.20683015900E+03  0.90798752016E+03  0.10097041358E+04  0.00000000000E+00 0.  1.
        -13    1    3    3    0    0 -0.28081709324E+02  0.26017201550E+01  0.23791465508E+02  0.36896953497E+02  0.00000000000E+00 0. -1.
         22    1    1    2    0    0  0.41831547306E+03 -0.20943187915E+03 -0.14251575714E+04  0.14999745499E+04  0.00000000000E+00 0.  1.
<mgrwt>
<rscale>  0 0.24983244E+04</rscale>
<asrwt>0</asrwt>
<pdfrwt beam="1">  1        2 0.15793824E+00 0.24983244E+04</pdfrwt>
<pdfrwt beam="2">  1       -2 0.23384263E+00 0.24983244E+04</pdfrwt>
<totfact> 0.17475647E+00</totfact>
</mgrwt>
</event>
<event>
 6    1  0.1001928E-005  0.1199600E+04  0.7818608E-02  0.9113207E-01
         -2   -1    0    0    0  501 -0.00000000000E+00  0.00000000000E+00  0.15632646374E+03  0.15632646374E+03  0.00000000000E+00 0.  1.
          2   -1    0    0  501    0  0.00000000000E+00 -0.00000000000E+00 -0.23013383398E+04  0.23013383398E+04  0.00000000000E+00 0. -1.
         23    2    1    2    0    0 -0.58852061061E+03 -0.66987797117E+02 -0.12205545359E+04  0.13597279894E+04  0.90900802739E+02 0.  0.
         13    1    3    3    0    0 -0.10981034599E+03 -0.48758080997E+02 -0.23780065195E+03  0.26642975174E+03  0.00000000000E+00 0.  1.
        -13    1    3    3    0    0 -0.47871026462E+03 -0.18229716120E+02 -0.98275388395E+03  0.10932982376E+04  0.00000000000E+00 0. -1.
         22    1    1    2    0    0  0.58852061061E+03  0.66987797117E+02 -0.92445734013E+03  0.10979368141E+04  0.00000000000E+00 0. -1.
<mgrwt>
<rscale>  0 0.11996001E+04</rscale>
<asrwt>0</asrwt>
<pdfrwt beam="1">  1        2 0.35405205E+00 0.11996001E+04</pdfrwt>
<pdfrwt beam="2">  1       -2 0.24050225E-01 0.11996001E+04</pdfrwt>
<totfact> 0.68998017E+01</totfact>
</mgrwt>
</event>
<event>
 6    1  0.1001928E-005  0.5433384E+03  0.7818608E-02  0.1003048E+00
         -2   -1    0    0    0  501 -0.00000000000E+00  0.00000000000E+00  0.47834794971E+03  0.47834794971E+03  0.00000000000E+00 0.  1.
          2   -1    0    0  501    0  0.00000000000E+00 -0.00000000000E+00 -0.15428970318E+03  0.15428970318E+03  0.00000000000E+00 0. -1.
         23    2    1    2    0    0  0.17277480743E+03 -0.55567333576E+02  0.38945670112E+03  0.43972362927E+03  0.93495911396E+02 0.  0.
         13    1    3    3    0    0  0.13831413515E+03 -0.72619461169E+01  0.31791968795E+03  0.34678013759E+03  0.00000000000E+00 0.  1.
        -13    1    3    3    0    0  0.34460672279E+02 -0.48305387459E+02  0.71537013171E+02  0.92943491676E+02  0.00000000000E+00 0. -1.
         22    1    1    2    0    0 -0.17277480743E+03  0.55567333576E+02 -0.65398454593E+02  0.19291402361E+03  0.00000000000E+00 0. -1.
<mgrwt>
<rscale>  0 0.54333843E+03</rscale>
<asrwt>0</asrwt>
<pdfrwt beam="1">  1        2 0.23736878E-01 0.54333843E+03</pdfrwt>
<pdfrwt beam="2">  1       -2 0.73591991E-01 0.54333843E+03</pdfrwt>
<totfact> 0.39133945E+02</totfact>
</mgrwt>
</event>
<event>
 6    1  0.1001928E-005  0.1329018E+04  0.7818608E-02  0.9006865E-01
         -2   -1    0    0    0  501 -0.00000000000E+00  0.00000000000E+00  0.45325582197E+03  0.45325582197E+03  0.00000000000E+00 0.  1.
          2   -1    0    0  501    0  0.00000000000E+00 -0.00000000000E+00 -0.97422287174E+03  0.97422287174E+03  0.00000000000E+00 0. -1.
         23    2    1    2    0    0  0.48555780649E+03 -0.49173365508E+01  0.22068923724E+03  0.54099992256E+03  0.90479904580E+02 0.  0.
         11    1    3    3    0    0  0.11217163857E+03  0.31260525192E+02  0.75327731852E+02  0.13868656792E+03  0.00000000000E+00 0. -1.
        -11    1    3    3    0    0  0.37338616792E+03 -0.36177861743E+02  0.14536150539E+03  0.40231335464E+03  0.00000000000E+00 0.  1.
         22    1    1    2    0    0 -0.48555780649E+03  0.49173365508E+01 -0.74165628700E+03  0.88647877115E+03  0.00000000000E+00 0. -1.
<mgrwt>
<rscale>  0 0.13290180E+04</rscale>
<asrwt>0</asrwt>
<pdfrwt beam="1">  1        2 0.14988044E+00 0.13290180E+04</pdfrwt>
<pdfrwt beam="2">  1       -2 0.69731665E-01 0.13290180E+04</pdfrwt>
<totfact> 0.48011382E+01</totfact>
</mgrwt>
</event>
<event>
 6    1  0.1001928E-005  0.2201537E+04  0.7818608E-02  0.8517789E-01
         -1   -1    0    0    0  501 -0.00000000000E+00  0.00000000000E+00  0.82701454166E+03  0.82701454166E+03  0.00000000000E+00 0.  1.
          1   -1    0    0  501    0  0.00000000000E+00 -0.00000000000E+00 -0.14651390406E+04  0.14651390406E+04  0.00000000000E+00 0. -1.
         23    2    1    2    0    0  0.10822494142E+04  0.12447692379E+03 -0.16811120303E+03  0.11057005501E+04  0.86913927901E+02 0.  0.
         11    1    3    3    0    0  0.10206633919E+04  0.13720070431E+03 -0.16216960536E+03  0.10425338238E+04  0.00000000000E+00 0. -1.
        -11    1    3    3    0    0  0.61586022349E+02 -0.12723780523E+02 -0.59415976695E+01  0.63166726387E+02  0.00000000000E+00 0.  1.
         22    1    1    2    0    0 -0.10822494142E+04 -0.12447692379E+03 -0.47001329595E+03  0.11864530322E+04  0.00000000000E+00 0. -1.
<mgrwt>
<rscale>  0 0.22015370E+04</rscale>
<asrwt>0</asrwt>
<pdfrwt beam="1">  1        1 0.22540600E+00 0.22015370E+04</pdfrwt>
<pdfrwt beam="2">  1       -1 0.12723301E+00 0.22015370E+04</pdfrwt>
<totfact> 0.33760792E+00</totfact>
</mgrwt>
</event>
<event>
 6    1  0.1001928E-005  0.1571679E+04  0.7818608E-02  0.8838138E-01
         -1   -1    0    0    0  501 -0.00000000000E+00  0.00000000000E+00  0.25142192448E+03  0.25142192448E+03  0.00000000000E+00 0.  1.
          1   -1    0    0  501    0  0.00000000000E+00 -0.00000000000E+00 -0.24562054040E+04  0.24562054040E+04  0.00000000000E+00 0. -1.
         23    2    1    2    0    0  0.19282022809E+03 -0.69566803396E+03 -0.58309932446E+03  0.93252362655E+03  0.91988249485E+02 0.  0.
         13    1    3    3    0    0  0.16618257194E+03 -0.63259958316E+03 -0.55753245284E+03  0.85944244473E+03  0.00000000000E+00 0.  1.
        -13    1    3    3    0    0  0.26637656143E+02 -0.63068450804E+02 -0.25566871625E+02  0.73081181821E+02  0.00000000000E+00 0. -1.
         22    1    1    2    0    0 -0.19282022809E+03  0.69566803396E+03 -0.16216841551E+04  0.17751037020E+04  0.00000000000E+00 0. -1.
<mgrwt>
<rscale>  0 0.15716792E+04</rscale>
<asrwt>0</asrwt>
<pdfrwt beam="1">  1        1 0.37787776E+00 0.15716792E+04</pdfrwt>
<pdfrwt beam="2">  1       -1 0.38680295E-01 0.15716792E+04</pdfrwt>
<totfact> 0.90667873E+00</totfact>
</mgrwt>
</event>
<event>
 6    1  0.1001928E-005  0.6269792E+04  0.7818608E-02  0.7657822E-01
         -2   -1    0    0    0  501 -0.00000000000E+00  0.00000000000E+00  0.27149559707E+04  0.27149559707E+04  0.00000000000E+00 0.  1.
          2   -1    0    0  501    0  0.00000000000E+00 -0.00000000000E+00 -0.36197912976E+04  0.36197912976E+04  0.00000000000E+00 0. -1.
         23    2    1    2    0    0  0.41355656770E+03  0.20657769050E+04 -0.27970846711E+04  0.35029508709E+04  0.92297838307E+02 0.  0.
         11    1    3    3    0    0  0.19634068082E+03  0.97611401464E+03 -0.12455287834E+04  0.15945815071E+04  0.00000000000E+00 0.  1.
        -11    1    3    3    0    0  0.21721588688E+03  0.10896628903E+04 -0.15515558877E+04  0.19083693639E+04  0.00000000000E+00 0. -1.
         22    1    1    2    0    0 -0.41355656770E+03 -0.20657769050E+04  0.18922493442E+04  0.28317963974E+04  0.00000000000E+00 0.  1.
<mgrwt>
<rscale>  0 0.62697923E+04</rscale>
<asrwt>0</asrwt>
<pdfrwt beam="1">  1        2 0.55689097E+00 0.62697923E+04</pdfrwt>
<pdfrwt beam="2">  1       -2 0.41768553E+00 0.62697923E+04</pdfrwt>
<totfact> 0.25004445E-03</totfact>
</mgrwt>
</event>
<event>
 6    1  0.1001928E-005  0.2774361E+04  0.7818608E-02  0.8311273E-01
         -2   -1    0    0    0  501 -0.00000000000E+00  0.00000000000E+00  0.13565628204E+04  0.13565628204E+04  0.00000000000E+00 0.  1.
          2   -1    0    0  501    0  0.00000000000E+00 -0.00000000000E+00 -0.14184891015E+04  0.14184891015E+04  0.00000000000E+00 0. -1.
         23    2    1    2    0    0 -0.50945723190E+03 -0.81872347214E+03  0.96406087349E+03  0.13670375625E+04  0.97588597697E+02 0.  0.
         11    1    3    3    0    0 -0.12694965340E+03 -0.24686972452E+03  0.33221789297E+03  0.43293140772E+03  0.00000000000E+00 0. -1.
        -11    1    3    3    0    0 -0.38250757850E+03 -0.57185374762E+03  0.63184298052E+03  0.93410615473E+03  0.00000000000E+00 0.  1.
         22    1    1    2    0    0  0.50945723190E+03  0.81872347214E+03 -0.10259871546E+04  0.14080143595E+04  0.00000000000E+00 0. -1.
<mgrwt>
<rscale>  0 0.27743609E+04</rscale>
<asrwt>0</asrwt>
<pdfrwt beam="1">  1        2 0.21822909E+00 0.27743609E+04</pdfrwt>
<pdfrwt beam="2">  1       -2 0.20870197E+00 0.27743609E+04</pdfrwt>
<totfact> 0.14376468E+00</totfact>
</mgrwt>
</event>
<event>
 6    1  0.1001928E-005  0.1536778E+04  0.7818608E-02  0.8860358E-01
         -2   -1    0    0    0  501 -0.00000000000E+00  0.00000000000E+00  0.21266924856E+03  0.21266924856E+03  0.00000000000E+00 0.  1.
          2   -1    0    0  501    0  0.00000000000E+00 -0.00000000000E+00 -0.27762423563E+04  0.27762423563E+04  0.00000000000E+00 0. -1.
         23    2    1    2    0    0  0.58254124577E+03 -0.37290297416E+03 -0.64701371273E+03  0.95136139792E+03  0.89726438934E+02 0.  0.
         11    1    3    3    0    0  0.84772761977E+02 -0.46658823812E+02 -0.13606953889E+03  0.16696821981E+03  0.00000000000E+00 0.  1.
        -11    1    3    3    0    0  0.49776848379E+03 -0.32624415035E+03 -0.51094417383E+03  0.78439317811E+03  0.00000000000E+00 0. -1.
         22    1    1    2    0    0 -0.58254124577E+03  0.37290297416E+03 -0.19165593950E+04  0.20375502069E+04  0.00000000000E+00 0.  1.
<mgrwt>
<rscale>  0 0.15367776E+04</rscale>
<asrwt>0</asrwt>
<pdfrwt beam="1">  1        2 0.42711422E+00 0.15367776E+04</pdfrwt>
<pdfrwt beam="2">  1       -2 0.32718345E-01 0.15367776E+04</pdfrwt>
<totfact> 0.20153192E+01</totfact>
</mgrwt>
</event>
<event>
 6    1  0.1001928E-005  0.1722438E+04  0.7818608E-02  0.8748670E-01
          2   -1    0    0  501    0  0.00000000000E+00  0.00000000000E+00  0.12596828319E+04  0.12596828319E+04  0.00000000000E+00 0. -1.
         -2   -1    0    0    0  501 -0.00000000000E+00 -0.00000000000E+00 -0.58879730589E+03  0.58879730589E+03  0.00000000000E+00 0.  1.
         23    2    1    2    0    0 -0.22570957422E+03 -0.27593974983E+03  0.11748153272E+04  0.12312015928E+04  0.92621551212E+02 0.  0.
         11    1    3    3    0    0 -0.20104426077E+03 -0.26731703178E+03  0.10002839872E+04  0.10547251990E+04  0.00000000000E+00 0.  1.
        -11    1    3    3    0    0 -0.24665313446E+02 -0.86227180494E+01  0.17453134000E+03  0.17647639388E+03  0.00000000000E+00 0. -1.
         22    1    1    2    0    0  0.22570957422E+03  0.27593974983E+03 -0.50392980124E+03  0.61727854491E+03  0.00000000000E+00 0.  1.
<mgrwt>
<rscale>  0 0.17224376E+04</rscale>
<asrwt>0</asrwt>
<pdfrwt beam="1">  1        2 0.19379736E+00 0.17224376E+04</pdfrwt>
<pdfrwt beam="2">  1       -2 0.90584201E-01 0.17224376E+04</pdfrwt>
<totfact> 0.17265909E+01</totfact>
</mgrwt>
</event>
<event>
 6    1  0.1001928E-005  0.1357223E+04  0.7818608E-02  0.8985378E-01
         -2   -1    0    0    0  501 -0.00000000000E+00  0.00000000000E+00  0.42201661031E+03  0.42201661031E+03  0.00000000000E+00 0.  1.
          2   -1    0    0  501    0  0.00000000000E+00 -0.00000000000E+00 -0.10912211189E+04  0.10912211189E+04  0.00000000000E+00 0. -1.
         23    2    1    2    0    0  0.17525256374E+03 -0.64736678130E+03 -0.42645835198E+03  0.79998959067E+03  0.91210792040E+02 0.  0.
         13    1    3    3    0    0  0.98001194152E+02 -0.31792221897E+03 -0.26360285690E+03  0.42445875834E+03  0.00000000000E+00 0.  1.
        -13    1    3    3    0    0  0.77251369584E+02 -0.32944456233E+03 -0.16285549508E+03  0.37553083233E+03  0.00000000000E+00 0. -1.
         22    1    1    2    0    0 -0.17525256374E+03  0.64736678130E+03 -0.24274615664E+03  0.71324813858E+03  0.00000000000E+00 0.  1.
<mgrwt>
<rscale>  0 0.13572228E+04</rscale>
<asrwt>0</asrwt>
<pdfrwt beam="1">  1        2 0.16788017E+00 0.13572228E+04</pdfrwt>
<pdfrwt beam="2">  1       -2 0.64925632E-01 0.13572228E+04</pdfrwt>
<totfact> 0.47140607E+01</totfact>
</mgrwt>
</event>
<event>
 6    1  0.1001928E-005  0.3682540E+04  0.7818608E-02  0.8071842E-01
         -2   -1    0    0    0  501 -0.00000000000E+00  0.00000000000E+00  0.16533931385E+04  0.16533931385E+04  0.00000000000E+00 0.  1.
          2   -1    0    0  501    0  0.00000000000E+00 -0.00000000000E+00 -0.20504953438E+04  0.20504953438E+04  0.00000000000E+00 0. -1.
         23    2    1    2    0    0  0.84646323442E+03 -0.12968404647E+04  0.80095438142E+03  0.17459214797E+04  0.91753441755E+02 0.  0.
         13    1    3    3    0    0  0.36750158953E+03 -0.55272041916E+03  0.29276778746E+03  0.72544486864E+03  0.00000000000E+00 0.  1.
        -13    1    3    3    0    0  0.47896164489E+03 -0.74412004558E+03  0.50818659396E+03  0.10204766111E+04  0.00000000000E+00 0. -1.
         22    1    1    2    0    0 -0.84646323442E+03  0.12968404647E+04 -0.11980565867E+04  0.19579670026E+04  0.00000000000E+00 0.  1.
<mgrwt>
<rscale>  0 0.36825398E+04</rscale>
<asrwt>0</asrwt>
<pdfrwt beam="1">  1        2 0.31546082E+00 0.36825398E+04</pdfrwt>
<pdfrwt beam="2">  1       -2 0.25436818E+00 0.36825398E+04</pdfrwt>
<totfact> 0.30626391E-01</totfact>
</mgrwt>
</event>
<event>
 6    1  0.1001928E-005  0.4214772E+04  0.7818608E-02  0.7962568E-01
          2   -1    0    0  501    0  0.00000000000E+00  0.00000000000E+00  0.39611346267E+04  0.39611346267E+04  0.00000000000E+00 0. -1.
         -2   -1    0    0    0  501 -0.00000000000E+00 -0.00000000000E+00 -0.11211626308E+04  0.11211626308E+04  0.00000000000E+00 0.  1.
         23    2    1    2    0    0 -0.16587969649E+04  0.91220818735E+02  0.29821506595E+04  0.34149210609E+04  0.92383374604E+02 0.  0.
         11    1    3    3    0    0 -0.73861953131E+03  0.56819084201E+02  0.14181754476E+04  0.16000027565E+04  0.00000000000E+00 0. -1.
        -11    1    3    3    0    0 -0.92017743355E+03  0.34401734534E+02  0.15639752119E+04  0.18149183045E+04  0.00000000000E+00 0.  1.
         22    1    1    2    0    0  0.16587969649E+04 -0.91220818735E+02 -0.14217866366E+03  0.16673761965E+04  0.00000000000E+00 0.  1.
<mgrwt>
<rscale>  0 0.42147722E+04</rscale>
<asrwt>0</asrwt>
<pdfrwt beam="1">  1        2 0.60940532E+00 0.42147722E+04</pdfrwt>
<pdfrwt beam="2">  1       -2 0.17248656E+00 0.42147722E+04</pdfrwt>
<totfact> 0.58126659E-02</totfact>
</mgrwt>
</event>
<event>
 6    1  0.1001928E-005  0.3802126E+04  0.7818608E-02  0.8045699E-01
         -1   -1    0    0    0  501 -0.00000000000E+00  0.00000000000E+00  0.71498265570E+03  0.71498265570E+03  0.00000000000E+00 0.  1.
          1   -1    0    0  501    0  0.00000000000E+00 -0.00000000000E+00 -0.50547250877E+04  0.50547250877E+04  0.00000000000E+00 0. -1.
         23    2    1    2    0    0 -0.97406290464E+03 -0.36702423355E+03 -0.45833648317E+04  0.47006627472E+04  0.74106354465E+02 0.  0.
         11    1    3    3    0    0 -0.70454537860E+03 -0.23319558839E+03 -0.33261004744E+04  0.34078891911E+04  0.00000000000E+00 0. -1.
        -11    1    3    3    0    0 -0.26951752604E+03 -0.13382864517E+03 -0.12572643573E+04  0.12927735561E+04  0.00000000000E+00 0.  1.
         22    1    1    2    0    0  0.97406290464E+03  0.36702423355E+03  0.24362239976E+03  0.10690449962E+04  0.00000000000E+00 0.  1.
<mgrwt>
<rscale>  0 0.38021261E+04</rscale>
<asrwt>0</asrwt>
<pdfrwt beam="1">  1        1 0.77765002E+00 0.38021261E+04</pdfrwt>
<pdfrwt beam="2">  1       -1 0.10999733E+00 0.38021261E+04</pdfrwt>
<totfact> 0.44152252E-03</totfact>
</mgrwt>
</event>
<event>
 6    1  0.1001928E-005  0.7067861E+03  0.7818608E-02  0.9705697E-01
         -2   -1    0    0    0  501 -0.00000000000E+00  0.00000000000E+00  0.12895171678E+03  0.12895171678E+03  0.00000000000E+00 0.  1.
          2   -1    0    0  501    0  0.00000000000E+00 -0.00000000000E+00 -0.96847590790E+03  0.96847590790E+03  0.00000000000E+00 0. -1.
         23    2    1    2    0    0  0.21578372408E+03  0.17055043188E+03 -0.75582366705E+03  0.80992833230E+03  0.95207260205E+02 0.  0.
         13    1    3    3    0    0  0.16295269707E+03  0.84679046730E+02 -0.56518168750E+03  0.59426800547E+03  0.00000000000E+00 0.  1.
        -13    1    3    3    0    0  0.52831027012E+02  0.85871385148E+02 -0.19064197955E+03  0.21566032683E+03  0.00000000000E+00 0. -1.
         22    1    1    2    0    0 -0.21578372408E+03 -0.17055043188E+03 -0.83700524064E+02  0.28749929238E+03  0.00000000000E+00 0.  1.
<mgrwt>
<rscale>  0 0.70678605E+03</rscale>
<asrwt>0</asrwt>
<pdfrwt beam="1">  1        2 0.14899629E+00 0.70678605E+03</pdfrwt>
<pdfrwt beam="2">  1       -2 0.19838725E-01 0.70678605E+03</pdfrwt>
<totfact> 0.57527274E+02</totfact>
</mgrwt>
</event>
<event>
 6    1  0.1001928E-005  0.2368977E+04  0.7818608E-02  0.8451210E-01
         -2   -1    0    0    0  501 -0.00000000000E+00  0.00000000000E+00  0.86903802264E+03  0.86903802264E+03  0.00000000000E+00 0.  1.
          2   -1    0    0  501    0  0.00000000000E+00 -0.00000000000E+00 -0.16144443328E+04  0.16144443328E+04  0.00000000000E+00 0. -1.
         23    2    1    2    0    0  0.56621991933E+03 -0.10382317908E+04 -0.35047241793E+03  0.12366852478E+04  0.89606014121E+02 0.  0.
         11    1    3    3    0    0  0.50012551768E+03 -0.85953463455E+03 -0.27517261654E+03  0.10318165003E+04  0.00000000000E+00 0. -1.
        -11    1    3    3    0    0  0.66094401654E+02 -0.17869715628E+03 -0.75299801390E+02  0.20486874745E+03  0.00000000000E+00 0.  1.
         22    1    1    2    0    0 -0.56621991933E+03  0.10382317908E+04 -0.39493389226E+03  0.12467971077E+04  0.00000000000E+00 0. -1.
<mgrwt>
<rscale>  0 0.23689774E+04</rscale>
<asrwt>0</asrwt>
<pdfrwt beam="1">  1        2 0.24837605E+00 0.23689774E+04</pdfrwt>
<pdfrwt beam="2">  1       -2 0.13369816E+00 0.23689774E+04</pdfrwt>
<totfact> 0.39913765E+00</totfact>
</mgrwt>
</event>
<event>
 6    1  0.1001928E-005  0.1454656E+04  0.7818608E-02  0.8915179E-01
          2   -1    0    0  501    0  0.00000000000E+00  0.00000000000E+00  0.12053237352E+04  0.12053237352E+04  0.00000000000E+00 0. -1.
         -2   -1    0    0    0  501 -0.00000000000E+00 -0.00000000000E+00 -0.43889122095E+03  0.43889122095E+03  0.00000000000E+00 0.  1.
         23    2    1    2    0    0 -0.15150425518E+03  0.64913578718E+03  0.70682578168E+03  0.97497376488E+03  0.81488324519E+02 0.  0.
         13    1    3    3    0    0 -0.75215189130E+02  0.18850940391E+03  0.24656168026E+03  0.31935212887E+03  0.00000000000E+00 0. -1.
        -13    1    3    3    0    0 -0.76289066051E+02  0.46062638326E+03  0.46026410142E+03  0.65562163602E+03  0.00000000000E+00 0.  1.
         22    1    1    2    0    0  0.15150425518E+03 -0.64913578718E+03  0.59606732576E+02  0.66924119127E+03  0.00000000000E+00 0.  1.
<mgrwt>
<rscale>  0 0.14546560E+04</rscale>
<asrwt>0</asrwt>
<pdfrwt beam="1">  1        2 0.18543442E+00 0.14546560E+04</pdfrwt>
<pdfrwt beam="2">  1       -2 0.67521727E-01 0.14546560E+04</pdfrwt>
<totfact> 0.36654438E+01</totfact>
</mgrwt>
</event>
<event>
 6    1  0.1001928E-005  0.3549987E+04  0.7818608E-02  0.8102045E-01
         -2   -1    0    0    0  501 -0.00000000000E+00  0.00000000000E+00  0.17303761219E+04  0.17303761219E+04  0.00000000000E+00 0.  1.
          2   -1    0    0  501    0  0.00000000000E+00 -0.00000000000E+00 -0.18207612153E+04  0.18207612153E+04  0.00000000000E+00 0. -1.
         23    2    1    2    0    0 -0.37489997342E+03 -0.13242650068E+04  0.10743703075E+04  0.17481168320E+04  0.86099374985E+02 0.  0.
         11    1    3    3    0    0 -0.24923604283E+03 -0.75077064305E+03  0.64675188854E+03  0.10217940932E+04  0.00000000000E+00 0. -1.
        -11    1    3    3    0    0 -0.12566393059E+03 -0.57349436372E+03  0.42761841898E+03  0.72632273881E+03  0.00000000000E+00 0.  1.
         22    1    1    2    0    0  0.37489997342E+03  0.13242650068E+04 -0.11647554009E+04  0.18030205052E+04  0.00000000000E+00 0. -1.
<mgrwt>
<rscale>  0 0.35499869E+04</rscale>
<asrwt>0</asrwt>
<pdfrwt beam="1">  1        2 0.28011711E+00 0.35499869E+04</pdfrwt>
<pdfrwt beam="2">  1       -2 0.26621171E+00 0.35499869E+04</pdfrwt>
<totfact> 0.35154852E-01</totfact>
</mgrwt>
</event>
<event>
 6    1  0.1001928E-005  0.1829302E+04  0.7818608E-02  0.8690870E-01
          1   -1    0    0  501    0  0.00000000000E+00  0.00000000000E+00  0.38804475313E+03  0.38804475313E+03  0.00000000000E+00 0. -1.
         -1   -1    0    0    0  501 -0.00000000000E+00 -0.00000000000E+00 -0.21559019800E+04  0.21559019800E+04  0.00000000000E+00 0.  1.
         23    2    1    2    0    0 -0.19875589617E+03 -0.62122819686E+03  0.14475502211E+01  0.65824586261E+03  0.88640517896E+02 0.  0.
         11    1    3    3    0    0 -0.92993657243E+02 -0.21137063487E+03 -0.34296901911E+02  0.23345586960E+03  0.00000000000E+00 0.  1.
        -11    1    3    3    0    0 -0.10576223893E+03 -0.40985756199E+03  0.35744452132E+02  0.42478999301E+03  0.00000000000E+00 0. -1.
         22    1    1    2    0    0  0.19875589617E+03  0.62122819686E+03 -0.17693047771E+04  0.18857008705E+04  0.00000000000E+00 0.  1.
<mgrwt>
<rscale>  0 0.18293020E+04</rscale>
<asrwt>0</asrwt>
<pdfrwt beam="1">  1        1 0.59699191E-01 0.18293020E+04</pdfrwt>
<pdfrwt beam="2">  1       -1 0.33167724E+00 0.18293020E+04</pdfrwt>
<totfact> 0.12091666E+00</totfact>
</mgrwt>
</event>
<event>
 6    1  0.1001928E-005  0.2813670E+04  0.7818608E-02  0.8299037E-01
          2   -1    0    0  501    0  0.00000000000E+00  0.00000000000E+00  0.33860775620E+04  0.33860775620E+04  0.00000000000E+00 0. -1.
         -2   -1    0    0    0  501 -0.00000000000E+00 -0.00000000000E+00 -0.58450648415E+03  0.58450648415E+03  0.00000000000E+00 0.  1.
         23    2    1    2    0    0 -0.11974567419E+04  0.43501320702E+03  0.56562236518E+03  0.13971416464E+04  0.94535608853E+02 0.  0.
         13    1    3    3    0    0 -0.53189147671E+03  0.14589160916E+03  0.22830845083E+03  0.59692349035E+03  0.00000000000E+00 0.  1.
        -13    1    3    3    0    0 -0.66556526515E+03  0.28912159786E+03  0.33731391436E+03  0.80021815609E+03  0.00000000000E+00 0. -1.
         22    1    1    2    0    0  0.11974567419E+04 -0.43501320702E+03  0.22359487126E+04  0.25734423997E+04  0.00000000000E+00 0. -1.
<mgrwt>
<rscale>  0 0.28136697E+04</rscale>
<asrwt>0</asrwt>
<pdfrwt beam="1">  1        2 0.52093500E+00 0.28136697E+04</pdfrwt>
<pdfrwt beam="2">  1       -2 0.89924076E-01 0.28136697E+04</pdfrwt>
<totfact> 0.89659447E-01</totfact>
</mgrwt>
</event>
<event>
 6    1  0.1001928E-005  0.2193994E+04  0.7818608E-02  0.8520932E-01
         -1   -1    0    0    0  501 -0.00000000000E+00  0.00000000000E+00  0.87011720166E+03  0.87011720166E+03  0.00000000000E+00 0.  1.
          1   -1    0    0  501    0  0.00000000000E+00 -0.00000000000E+00 -0.13830348790E+04  0.13830348790E+04  0.00000000000E+00 0. -1.
         23    2    1    2    0    0 -0.90880187021E+03 -0.47959178969E+03  0.13195130427E+03  0.10399805646E+04  0.90660376965E+02 0.  0.
         13    1    3    3    0    0 -0.37139136160E+03 -0.15380392731E+03  0.27582007123E+02  0.40292425919E+03  0.00000000000E+00 0. -1.
        -13    1    3    3    0    0 -0.53741050861E+03 -0.32578786237E+03  0.10436929715E+03  0.63705630538E+03  0.00000000000E+00 0.  1.
         22    1    1    2    0    0  0.90880187021E+03  0.47959178969E+03 -0.64486898165E+03  0.12131715161E+04  0.00000000000E+00 0.  1.
<mgrwt>
<rscale>  0 0.21939940E+04</rscale>
<asrwt>0</asrwt>
<pdfrwt beam="1">  1        1 0.21277460E+00 0.21939940E+04</pdfrwt>
<pdfrwt beam="2">  1       -1 0.13386419E+00 0.21939940E+04</pdfrwt>
<totfact> 0.33911621E+00</totfact>
</mgrwt>
</event>
<event>
 6    1  0.1001928E-005  0.1759522E+04  0.7818608E-02  0.8728126E-01
          2   -1    0    0  501    0  0.00000000000E+00  0.00000000000E+00  0.96493682350E+03  0.96493682350E+03  0.00000000000E+00 0. -1.
         -2   -1    0    0    0  501 -0.00000000000E+00 -0.00000000000E+00 -0.80210398513E+03  0.80210398513E+03  0.00000000000E+00 0.  1.
         23    2    1    2    0    0 -0.97997197755E+02  0.47757677250E+03  0.81406746411E+03  0.95353631437E+03  0.94035324761E+02 0.  0.
         13    1    3    3    0    0 -0.11931799708E+02  0.18664476125E+03  0.24042134666E+03  0.30459983368E+03  0.00000000000E+00 0. -1.
        -13    1    3    3    0    0 -0.86065398047E+02  0.29093201125E+03  0.57364611745E+03  0.64893648070E+03  0.00000000000E+00 0.  1.
         22    1    1    2    0    0  0.97997197755E+02 -0.47757677250E+03 -0.65123462574E+03  0.81350449425E+03  0.00000000000E+00 0.  1.
<mgrwt>
<rscale>  0 0.17595223E+04</rscale>
<asrwt>0</asrwt>
<pdfrwt beam="1">  1        2 0.14845182E+00 0.17595223E+04</pdfrwt>
<pdfrwt beam="2">  1       -2 0.12340061E+00 0.17595223E+04</pdfrwt>
<totfact> 0.12449842E+01</totfact>
</mgrwt>
</event>
<event>
 6    1  0.1001928E-005  0.1462045E+04  0.7818608E-02  0.8910093E-01
         -2   -1    0    0    0  501 -0.00000000000E+00  0.00000000000E+00  0.31327036102E+03  0.31327036102E+03  0.00000000000E+00 0.  1.
          2   -1    0    0  501    0  0.00000000000E+00 -0.00000000000E+00 -0.17058547009E+04  0.17058547009E+04  0.00000000000E+00 0. -1.
         23    2    1    2    0    0  0.15017583300E+03 -0.46057313881E+03 -0.14499455831E+04  0.15313026463E+04  0.88685982506E+02 0.  0.
         11    1    3    3    0    0  0.12809694347E+03 -0.32314923754E+03 -0.92309079148E+03  0.98637257969E+03  0.00000000000E+00 0.  1.
        -11    1    3    3    0    0  0.22078889531E+02 -0.13742390127E+03 -0.52685479163E+03  0.54493006658E+03  0.00000000000E+00 0. -1.
         22    1    1    2    0    0 -0.15017583300E+03  0.46057313881E+03  0.57361243209E+02  0.48782241567E+03  0.00000000000E+00 0.  1.
<mgrwt>
<rscale>  0 0.14620448E+04</rscale>
<asrwt>0</asrwt>
<pdfrwt beam="1">  1        2 0.26243919E+00 0.14620448E+04</pdfrwt>
<pdfrwt beam="2">  1       -2 0.48195439E-01 0.14620448E+04</pdfrwt>
<totfact> 0.38458515E+01</totfact>
</mgrwt>
</event>
<event>
 6    1  0.1001928E-005  0.2923210E+03  0.7818608E-02  0.1089143E+00
          2   -1    0    0  501    0  0.00000000000E+00  0.00000000000E+00  0.12751835398E+03  0.12751835398E+03  0.00000000000E+00 0. -1.
         -2   -1    0    0    0  501 -0.00000000000E+00 -0.00000000000E+00 -0.16752801429E+03  0.16752801429E+03  0.00000000000E+00 0.  1.
         23    2    1    2    0    0  0.89291866668E+00  0.66802838797E+02 -0.13743584088E+03  0.17691391195E+03  0.89143173095E+02 0.  0.
         13    1    3    3    0    0  0.12663009424E+02 -0.12278171382E+02 -0.70403946856E+02  0.72579756359E+02  0.00000000000E+00 0.  1.
        -13    1    3    3    0    0 -0.11770090758E+02  0.79081010179E+02 -0.67031894023E+02  0.10433415559E+03  0.00000000000E+00 0. -1.
         22    1    1    2    0    0 -0.89291866668E+00 -0.66802838797E+02  0.97426180574E+02  0.11813245632E+03  0.00000000000E+00 0. -1.
<mgrwt>
<rscale>  0 0.29232103E+03</rscale>
<asrwt>0</asrwt>
<pdfrwt beam="1">  1        2 0.19618208E-01 0.29232103E+03</pdfrwt>
<pdfrwt beam="2">  1       -2 0.25773541E-01 0.29232103E+03</pdfrwt>
<totfact> 0.38118828E+03</totfact>
</mgrwt>
</event>
<event>
 6    1  0.1001928E-005  0.3815742E+04  0.7818608E-02  0.8042785E-01
          2   -1    0    0  501    0  0.00000000000E+00  0.00000000000E+00  0.43131588218E+04  0.43131588218E+04  0.00000000000E+00 0. -1.
         -2   -1    0    0    0  501 -0.00000000000E+00 -0.00000000000E+00 -0.84392265350E+03  0.84392265350E+03  0.00000000000E+00 0.  1.
         23    2    1    2    0    0 -0.64785947313E+03 -0.10514393908E+04 -0.22814891577E+03  0.12588891828E+04  0.86621921621E+02 0.  0.
         13    1    3    3    0    0 -0.37058038844E+02 -0.92006527626E+02 -0.35366500377E+02  0.10530569176E+03  0.00000000000E+00 0. -1.
        -13    1    3    3    0    0 -0.61080143428E+03 -0.95943286318E+03 -0.19278241539E+03  0.11535834910E+04  0.00000000000E+00 0.  1.
         22    1    1    2    0    0  0.64785947313E+03  0.10514393908E+04  0.36973850841E+04  0.38981922925E+04  0.00000000000E+00 0. -1.
<mgrwt>
<rscale>  0 0.38157424E+04</rscale>
<asrwt>0</asrwt>
<pdfrwt beam="1">  1        2 0.66356288E+00 0.38157424E+04</pdfrwt>
<pdfrwt beam="2">  1       -2 0.12983426E+00 0.38157424E+04</pdfrwt>
<totfact> 0.64064234E-02</totfact>
</mgrwt>
</event>
<event>
 6    1  0.1001928E-005  0.3781457E+04  0.7818608E-02  0.8050146E-01
          2   -1    0    0  501    0  0.00000000000E+00  0.00000000000E+00  0.27806056052E+04  0.27806056052E+04  0.00000000000E+00 0. -1.
         -2   -1    0    0    0  501 -0.00000000000E+00 -0.00000000000E+00 -0.12856385385E+04  0.12856385385E+04  0.00000000000E+00 0.  1.
         23    2    1    2    0    0  0.73984367919E+02  0.55651055597E+03  0.26881083082E+04  0.27476222464E+04  0.91236216329E+02 0.  0.
         11    1    3    3    0    0  0.75517117813E+02  0.32331838039E+03  0.17271375086E+04  0.17587613777E+04  0.00000000000E+00 0. -1.
        -11    1    3    3    0    0 -0.15327498945E+01  0.23319217558E+03  0.96097079957E+03  0.98886086872E+03  0.00000000000E+00 0.  1.
         22    1    1    2    0    0 -0.73984367919E+02 -0.55651055597E+03 -0.11931412415E+04  0.13186218972E+04  0.00000000000E+00 0.  1.
<mgrwt>
<rscale>  0 0.37814567E+04</rscale>
<asrwt>0</asrwt>
<pdfrwt beam="1">  1        2 0.42778548E+00 0.37814567E+04</pdfrwt>
<pdfrwt beam="2">  1       -2 0.19779054E+00 0.37814567E+04</pdfrwt>
<totfact> 0.26229989E-01</totfact>
</mgrwt>
</event>
<event>
 6    1  0.1001928E-005  0.5618377E+03  0.7818608E-02  0.9987905E-01
         -1   -1    0    0    0  501 -0.00000000000E+00  0.00000000000E+00  0.11840116042E+03  0.11840116042E+03  0.00000000000E+00 0.  1.
          1   -1    0    0  501    0  0.00000000000E+00 -0.00000000000E+00 -0.66650864944E+03  0.66650864944E+03  0.00000000000E+00 0. -1.
         23    2    1    2    0    0 -0.22231859226E+03 -0.14480907418E+02 -0.50266591846E+03  0.55753305317E+03  0.92384125557E+02 0.  0.
         11    1    3    3    0    0 -0.70240337329E+02  0.36368306426E+02 -0.19867774202E+03  0.21384387733E+03  0.00000000000E+00 0.  1.
        -11    1    3    3    0    0 -0.15207825494E+03 -0.50849213844E+02 -0.30398817644E+03  0.34368917584E+03  0.00000000000E+00 0. -1.
         22    1    1    2    0    0  0.22231859226E+03  0.14480907418E+02 -0.45441570561E+02  0.22737675669E+03  0.00000000000E+00 0.  1.
<mgrwt>
<rscale>  0 0.56183769E+03</rscale>
<asrwt>0</asrwt>
<pdfrwt beam="1">  1        1 0.10253979E+00 0.56183769E+03</pdfrwt>
<pdfrwt beam="2">  1       -1 0.18215563E-01 0.56183769E+03</pdfrwt>
<totfact> 0.70743573E+02</totfact>
</mgrwt>
</event>
<event>
 6    1  0.1001928E-005  0.4326971E+04  0.7818608E-02  0.7941650E-01
          2   -1    0    0  501    0  0.00000000000E+00  0.00000000000E+00  0.16126301242E+04  0.16126301242E+04  0.00000000000E+00 0. -1.
         -2   -1    0    0    0  501 -0.00000000000E+00 -0.00000000000E+00 -0.29025068143E+04  0.29025068143E+04  0.00000000000E+00 0.  1.
         23    2    1    2    0    0  0.67154404307E+03  0.19736127477E+04 -0.45372999735E+02  0.20871937524E+04  0.90555903246E+02 0.  0.
         11    1    3    3    0    0  0.22901930786E+03  0.69199258824E+03  0.26887063361E+02  0.72940146677E+03  0.00000000000E+00 0. -1.
        -11    1    3    3    0    0  0.44252473521E+03  0.12816201594E+04 -0.72260063096E+02  0.13577922857E+04  0.00000000000E+00 0.  1.
         22    1    1    2    0    0 -0.67154404307E+03 -0.19736127477E+04 -0.12445036903E+04  0.24279431861E+04  0.00000000000E+00 0.  1.
<mgrwt>
<rscale>  0 0.43269712E+04</rscale>
<asrwt>0</asrwt>
<pdfrwt beam="1">  1        2 0.24809694E+00 0.43269712E+04</pdfrwt>
<pdfrwt beam="2">  1       -2 0.44653951E+00 0.43269712E+04</pdfrwt>
<totfact> 0.30866679E-02</totfact>
</mgrwt>
</event>
<event>
 6    1  0.1001928E-005  0.1600375E+04  0.7818608E-02  0.8820318E-01
          2   -1    0    0  501    0  0.00000000000E+00  0.00000000000E+00  0.17762881447E+04  0.17762881447E+04  0.00000000000E+00 0. -1.
         -2   -1    0    0    0  501 -0.00000000000E+00 -0.00000000000E+00 -0.36047085577E+03  0.36047085577E+03  0.00000000000E+00 0.  1.
         23    2    1    2    0    0 -0.11970555421E+03 -0.40812401163E+03 -0.18902898855E+03  0.47651016282E+03  0.10215355196E+03 0.  0.
         11    1    3    3    0    0 -0.10118373499E+03 -0.22617404202E+03 -0.14954209657E+03  0.28940574313E+03  0.00000000000E+00 0.  1.
        -11    1    3    3    0    0 -0.18521819221E+02 -0.18194996961E+03 -0.39486891981E+02  0.18710441969E+03  0.00000000000E+00 0. -1.
         22    1    1    2    0    0  0.11970555421E+03  0.40812401163E+03  0.16048462775E+04  0.16602488377E+04  0.00000000000E+00 0. -1.
<mgrwt>
<rscale>  0 0.16003751E+04</rscale>
<asrwt>0</asrwt>
<pdfrwt beam="1">  1        2 0.27327509E+00 0.16003751E+04</pdfrwt>
<pdfrwt beam="2">  1       -2 0.55457056E-01 0.16003751E+04</pdfrwt>
<totfact> 0.26060854E+01</totfact>
</mgrwt>
</event>
<event>
 6    1  0.1001928E-005  0.1402932E+04  0.7818608E-02  0.8951699E-01
          2   -1    0    0  501    0  0.00000000000E+00  0.00000000000E+00  0.75086777672E+03  0.75086777672E+03  0.00000000000E+00 0. -1.
         -2   -1    0    0    0  501 -0.00000000000E+00 -0.00000000000E+00 -0.65531428486E+03  0.65531428486E+03  0.00000000000E+00 0.  1.
         23    2    1    2    0    0 -0.27951288062E+03 -0.26207702435E+03 -0.53744610671E+03  0.66624942349E+03  0.90709203284E+02 0.  0.
         13    1    3    3    0    0 -0.60918064002E+02 -0.11226007464E+03 -0.15281198483E+03  0.19916033136E+03  0.00000000000E+00 0.  1.
        -13    1    3    3    0    0 -0.21859481662E+03 -0.14981694971E+03 -0.38463412188E+03  0.46708909213E+03  0.00000000000E+00 0. -1.
         22    1    1    2    0    0  0.27951288062E+03  0.26207702435E+03  0.63299959857E+03  0.73993263809E+03  0.00000000000E+00 0. -1.
<mgrwt>
<rscale>  0 0.14029318E+04</rscale>
<asrwt>0</asrwt>
<pdfrwt beam="1">  1        2 0.11551812E+00 0.14029318E+04</pdfrwt>
<pdfrwt beam="2">  1       -2 0.10081758E+00 0.14029318E+04</pdfrwt>
<totfact> 0.29525952E+01</totfact>
</mgrwt>
</event>
<event>
 6    1  0.1001928E-005  0.1144748E+04  0.7818608E-02  0.9162643E-01
          2   -1    0    0  501    0  0.00000000000E+00  0.00000000000E+00  0.59733142467E+03  0.59733142467E+03  0.00000000000E+00 0. -1.
         -2   -1    0    0    0  501 -0.00000000000E+00 -0.00000000000E+00 -0.54845901007E+03  0.54845901007E+03  0.00000000000E+00 0.  1.
         23    2    1    2    0    0 -0.95189757030E+02  0.18028510833E+03  0.55588478119E+03  0.59932419607E+03  0.92832062949E+02 0.  0.
         13    1    3    3    0    0 -0.88617238453E+02  0.18426905936E+03  0.55514501648E+03  0.59160298386E+03  0.00000000000E+00 0.  1.
        -13    1    3    3    0    0 -0.65725185775E+01 -0.39839510213E+01  0.73976470365E+00  0.77212122111E+01  0.00000000000E+00 0. -1.
         22    1    1    2    0    0  0.95189757030E+02 -0.18028510833E+03 -0.50701236659E+03  0.54646623867E+03  0.00000000000E+00 0.  1.
<mgrwt>
<rscale>  0 0.11447477E+04</rscale>
<asrwt>0</asrwt>
<pdfrwt beam="1">  1        2 0.91897143E-01 0.11447477E+04</pdfrwt>
<pdfrwt beam="2">  1       -2 0.84378309E-01 0.11447477E+04</pdfrwt>
<totfact> 0.60529025E+01</totfact>
</mgrwt>
</event>
<event>
 6    1  0.1001928E-005  0.1995497E+04  0.7818608E-02  0.8608729E-01
          1   -1    0    0  501    0  0.00000000000E+00  0.00000000000E+00  0.14870317683E+04  0.14870317683E+04  0.00000000000E+00 0. -1.
         -1   -1    0    0    0  501 -0.00000000000E+00 -0.00000000000E+00 -0.66945576101E+03  0.66945576101E+03  0.00000000000E+00 0.  1.
         23    2    1    2    0    0 -0.64978971029E+03 -0.33781487626E+03 -0.31917887728E+03  0.80424597329E+03  0.92686955008E+02 0.  0.
         11    1    3    3    0    0 -0.52552814642E+03 -0.23168791723E+03 -0.23669194795E+03  0.62119417406E+03  0.00000000000E+00 0.  1.
        -11    1    3    3    0    0 -0.12426156387E+03 -0.10612695903E+03 -0.82486929327E+02  0.18305179923E+03  0.00000000000E+00 0. -1.
         22    1    1    2    0    0  0.64978971029E+03  0.33781487626E+03  0.11367548845E+04  0.13522415560E+04  0.00000000000E+00 0. -1.
<mgrwt>
<rscale>  0 0.19954969E+04</rscale>
<asrwt>0</asrwt>
<pdfrwt beam="1">  1        1 0.22877412E+00 0.19954969E+04</pdfrwt>
<pdfrwt beam="2">  1       -1 0.10299319E+00 0.19954969E+04</pdfrwt>
<totfact> 0.55187078E+00</totfact>
</mgrwt>
</event>
<event>
 6    1  0.1001928E-005  0.2059024E+04  0.7818608E-02  0.8579512E-01
          1   -1    0    0  501    0  0.00000000000E+00  0.00000000000E+00  0.13112344529E+04  0.13112344529E+04  0.00000000000E+00 0. -1.
         -1   -1    0    0    0  501 -0.00000000000E+00 -0.00000000000E+00 -0.80831814914E+03  0.80831814914E+03  0.00000000000E+00 0.  1.
         23    2    1    2    0    0  0.62943106790E+02 -0.61674545454E+03 -0.59129968402E+03  0.86191775111E+03  0.94499221998E+02 0.  0.
         13    1    3    3    0    0 -0.38909166425E+01 -0.22444121255E+03 -0.16397935686E+03  0.27798961599E+03  0.00000000000E+00 0. -1.
        -13    1    3    3    0    0  0.66834023433E+02 -0.39230424200E+03 -0.42732032716E+03  0.58392813512E+03  0.00000000000E+00 0.  1.
         22    1    1    2    0    0 -0.62943106790E+02  0.61674545454E+03  0.10942159878E+04  0.12576348510E+04  0.00000000000E+00 0. -1.
<mgrwt>
<rscale>  0 0.20590237E+04</rscale>
<asrwt>0</asrwt>
<pdfrwt beam="1">  1        1 0.20172838E+00 0.20590237E+04</pdfrwt>
<pdfrwt beam="2">  1       -1 0.12435664E+00 0.20590237E+04</pdfrwt>
<totfact> 0.46461049E+00</totfact>
</mgrwt>
</event>
<event>
 6    1  0.1001928E-005  0.4703459E+04  0.7818608E-02  0.7875954E-01
         -2   -1    0    0    0  501 -0.00000000000E+00  0.00000000000E+00  0.20695858073E+04  0.20695858073E+04  0.00000000000E+00 0.  1.
          2   -1    0    0  501    0  0.00000000000E+00 -0.00000000000E+00 -0.26723379384E+04  0.26723379384E+04  0.00000000000E+00 0. -1.
         23    2    1    2    0    0 -0.16284758714E+04  0.76262795361E+03  0.12251849415E+04  0.21777691091E+04  0.89805857776E+02 0.  0.
         11    1    3    3    0    0 -0.40322236171E+03  0.21539308436E+03  0.34907776777E+03  0.57518496306E+03  0.00000000000E+00 0.  1.
        -11    1    3    3    0    0 -0.12252535097E+04  0.54723486925E+03  0.87610717373E+03  0.16025841460E+04  0.00000000000E+00 0. -1.
         22    1    1    2    0    0  0.16284758714E+04 -0.76262795361E+03 -0.18279370726E+04  0.25641546366E+04  0.00000000000E+00 0. -1.
<mgrwt>
<rscale>  0 0.47034594E+04</rscale>
<asrwt>0</asrwt>
<pdfrwt beam="1">  1        2 0.41112891E+00 0.47034594E+04</pdfrwt>
<pdfrwt beam="2">  1       -2 0.31839782E+00 0.47034594E+04</pdfrwt>
<totfact> 0.50354417E-02</totfact>
</mgrwt>
</event>
<event>
 6    1  0.1001928E-005  0.2256969E+04  0.7818608E-02  0.8495083E-01
          2   -1    0    0  501    0  0.00000000000E+00  0.00000000000E+00  0.19337288033E+04  0.19337288033E+04  0.00000000000E+00 0. -1.
         -2   -1    0    0    0  501 -0.00000000000E+00 -0.00000000000E+00 -0.65856062016E+03  0.65856062016E+03  0.00000000000E+00 0.  1.
         23    2    1    2    0    0 -0.41751441311E+03 -0.70262826949E+03 -0.25193167293E+03  0.86022743246E+03  0.92287038588E+02 0.  0.
         11    1    3    3    0    0 -0.22311647608E+03 -0.36666714612E+03 -0.18018444505E+03  0.46550208611E+03  0.00000000000E+00 0. -1.
        -11    1    3    3    0    0 -0.19439793703E+03 -0.33596112337E+03 -0.71747227886E+02  0.39472534635E+03  0.00000000000E+00 0.  1.
         22    1    1    2    0    0  0.41751441311E+03  0.70262826949E+03  0.15270998560E+04  0.17320619910E+04  0.00000000000E+00 0. -1.
<mgrwt>
<rscale>  0 0.22569693E+04</rscale>
<asrwt>0</asrwt>
<pdfrwt beam="1">  1        2 0.29749674E+00 0.22569693E+04</pdfrwt>
<pdfrwt beam="2">  1       -2 0.10131702E+00 0.22569693E+04</pdfrwt>
<totfact> 0.52977647E+00</totfact>
</mgrwt>
</event>
<event>
 6    1  0.1001928E-005  0.3732122E+04  0.7818608E-02  0.8060880E-01
          2   -1    0    0  501    0  0.00000000000E+00  0.00000000000E+00  0.25936677460E+04  0.25936677460E+04  0.00000000000E+00 0. -1.
         -2   -1    0    0    0  501 -0.00000000000E+00 -0.00000000000E+00 -0.13425715248E+04  0.13425715248E+04  0.00000000000E+00 0.  1.
         23    2    1    2    0    0 -0.13680507809E+04  0.80392089442E+03 -0.40753331523E+03  0.16408300082E+04  0.91585858512E+02 0.  0.
         11    1    3    3    0    0 -0.57395268969E+03  0.33190539143E+03 -0.12400109358E+03  0.67450659750E+03  0.00000000000E+00 0. -1.
        -11    1    3    3    0    0 -0.79409809116E+03  0.47201550299E+03 -0.28353222165E+03  0.96632341075E+03  0.00000000000E+00 0.  1.
         22    1    1    2    0    0  0.13680507809E+04 -0.80392089442E+03  0.16586295364E+04  0.22954092626E+04  0.00000000000E+00 0. -1.
<mgrwt>
<rscale>  0 0.37321224E+04</rscale>
<asrwt>0</asrwt>
<pdfrwt beam="1">  1        2 0.39902581E+00 0.37321224E+04</pdfrwt>
<pdfrwt beam="2">  1       -2 0.20654947E+00 0.37321224E+04</pdfrwt>
<totfact> 0.29826676E-01</totfact>
</mgrwt>
</event>
<event>
 6    1  0.1001928E-005  0.1434049E+04  0.7818608E-02  0.8929534E-01
          2   -1    0    0  501    0  0.00000000000E+00  0.00000000000E+00  0.17133170854E+04  0.17133170854E+04  0.00000000000E+00 0. -1.
         -2   -1    0    0    0  501 -0.00000000000E+00 -0.00000000000E+00 -0.30007537077E+03  0.30007537077E+03  0.00000000000E+00 0.  1.
         23    2    1    2    0    0 -0.34048508956E+03 -0.23726787270E+03  0.15254370405E+04  0.15834925483E+04  0.90908450449E+02 0.  0.
         13    1    3    3    0    0 -0.50039985685E+02 -0.73788501589E+02  0.39557360066E+03  0.40549625976E+03  0.00000000000E+00 0. -1.
        -13    1    3    3    0    0 -0.29044510388E+03 -0.16347937111E+03  0.11298634398E+04  0.11779962886E+04  0.00000000000E+00 0.  1.
         22    1    1    2    0    0  0.34048508956E+03  0.23726787270E+03 -0.11219532589E+03  0.42989990786E+03  0.00000000000E+00 0.  1.
<mgrwt>
<rscale>  0 0.14340492E+04</rscale>
<asrwt>0</asrwt>
<pdfrwt beam="1">  1        2 0.26358724E+00 0.14340492E+04</pdfrwt>
<pdfrwt beam="2">  1       -2 0.46165443E-01 0.14340492E+04</pdfrwt>
<totfact> 0.41638835E+01</totfact>
</mgrwt>
</event>
<event>
 6    1  0.1001928E-005  0.2682174E+04  0.7818608E-02  0.8340812E-01
          2   -1    0    0  501    0  0.00000000000E+00  0.00000000000E+00  0.10436248051E+04  0.10436248051E+04  0.00000000000E+00 0.  1.
         -2   -1    0    0    0  501 -0.00000000000E+00 -0.00000000000E+00 -0.17233348289E+04  0.17233348289E+04  0.00000000000E+00 0. -1.
         23    2    1    2    0    0 -0.72359925874E+03 -0.11337512092E+03 -0.14972682315E+04  0.16693024798E+04  0.91152656615E+02 0.  0.
         13    1    3    3    0    0 -0.56643891082E+03 -0.12414234062E+03 -0.11475746994E+04  0.12857651617E+04  0.00000000000E+00 0.  1.
        -13    1    3    3    0    0 -0.15716034792E+03  0.10767219696E+02 -0.34969353210E+03  0.38353731810E+03  0.00000000000E+00 0. -1.
         22    1    1    2    0    0  0.72359925874E+03  0.11337512092E+03  0.81755820763E+03  0.10976571542E+04  0.00000000000E+00 0.  1.
<mgrwt>
<rscale>  0 0.26821745E+04</rscale>
<asrwt>0</asrwt>
<pdfrwt beam="1">  1        2 0.16055766E+00 0.26821745E+04</pdfrwt>
<pdfrwt beam="2">  1       -2 0.26512843E+00 0.26821745E+04</pdfrwt>
<totfact> 0.10773843E+00</totfact>
</mgrwt>
</event>
<event>
 6    1  0.1001928E-005  0.3860422E+04  0.7818608E-02  0.8033311E-01
          1   -1    0    0  501    0  0.00000000000E+00  0.00000000000E+00  0.19295496768E+04  0.19295496768E+04  0.00000000000E+00 0. -1.
         -1   -1    0    0    0  501 -0.00000000000E+00 -0.00000000000E+00 -0.19308721310E+04  0.19308721310E+04  0.00000000000E+00 0.  1.
         23    2    1    2    0    0  0.45323568438E+03 -0.15126925871E+04 -0.11088673579E+04  0.19316094368E+04  0.88694701704E+02 0.  0.
         13    1    3    3    0    0  0.29261980815E+03 -0.88951956331E+03 -0.61339941482E+03  0.11194330028E+04  0.00000000000E+00 0. -1.
        -13    1    3    3    0    0  0.16061587623E+03 -0.62317302376E+03 -0.49546794313E+03  0.81217643397E+03  0.00000000000E+00 0.  1.
         22    1    1    2    0    0 -0.45323568438E+03  0.15126925871E+04  0.11075449037E+04  0.19288123710E+04  0.00000000000E+00 0. -1.
<mgrwt>
<rscale>  0 0.38604216E+04</rscale>
<asrwt>0</asrwt>
<pdfrwt beam="1">  1        1 0.29685380E+00 0.38604216E+04</pdfrwt>
<pdfrwt beam="2">  1       -1 0.29705725E+00 0.38604216E+04</pdfrwt>
<totfact> 0.90884596E-02</totfact>
</mgrwt>
</event>
<event>
 6    1  0.1001928E-005  0.2406398E+04  0.7818608E-02  0.8437112E-01
          1   -1    0    0  501    0  0.00000000000E+00  0.00000000000E+00  0.20240173496E+04  0.20240173496E+04  0.00000000000E+00 0. -1.
         -1   -1    0    0    0  501 -0.00000000000E+00 -0.00000000000E+00 -0.71525453452E+03  0.71525453452E+03  0.00000000000E+00 0.  1.
         23    2    1    2    0    0 -0.68441874072E+03 -0.14744286589E+03 -0.45615381192E+03  0.84056202961E+03  0.91103315763E+02 0.  0.
         11    1    3    3    0    0 -0.28054684398E+03 -0.39555875446E+02 -0.23220693405E+03  0.36632125132E+03  0.00000000000E+00 0. -1.
        -11    1    3    3    0    0 -0.40387189674E+03 -0.10788699045E+03 -0.22394687787E+03  0.47424077829E+03  0.00000000000E+00 0.  1.
         22    1    1    2    0    0  0.68441874072E+03  0.14744286589E+03  0.17649166270E+04  0.18987098546E+04  0.00000000000E+00 0. -1.
<mgrwt>
<rscale>  0 0.24063978E+04</rscale>
<asrwt>0</asrwt>
<pdfrwt beam="1">  1        1 0.31138728E+00 0.24063978E+04</pdfrwt>
<pdfrwt beam="2">  1       -1 0.11003916E+00 0.24063978E+04</pdfrwt>
<totfact> 0.19597897E+00</totfact>
</mgrwt>
</event>
<event>
 6    1  0.1001928E-005  0.6337909E+04  0.7818608E-02  0.7649861E-01
          2   -1    0    0  501    0  0.00000000000E+00  0.00000000000E+00  0.25746221747E+04  0.25746221747E+04  0.00000000000E+00 0. -1.
         -2   -1    0    0    0  501 -0.00000000000E+00 -0.00000000000E+00 -0.39004838637E+04  0.39004838637E+04  0.00000000000E+00 0.  1.
         23    2    1    2    0    0  0.28114439604E+04  0.14303205114E+04 -0.96618888922E+03  0.33002992047E+04  0.91760357204E+02 0.  0.
         11    1    3    3    0    0  0.22933429901E+04  0.11408768147E+04 -0.75555761673E+03  0.26705597332E+04  0.00000000000E+00 0. -1.
        -11    1    3    3    0    0  0.51810097031E+03  0.28944369674E+03 -0.21063127249E+03  0.62973947151E+03  0.00000000000E+00 0.  1.
         22    1    1    2    0    0 -0.28114439604E+04 -0.14303205114E+04 -0.35967279978E+03  0.31748068336E+04  0.00000000000E+00 0.  1.
<mgrwt>
<rscale>  0 0.63379089E+04</rscale>
<asrwt>0</asrwt>
<pdfrwt beam="1">  1        2 0.39609572E+00 0.63379089E+04</pdfrwt>
<pdfrwt beam="2">  1       -2 0.60007443E+00 0.63379089E+04</pdfrwt>
<totfact> 0.10732970E-03</totfact>
</mgrwt>
</event>
<event>
 6    1  0.1001928E-005  0.1204350E+04  0.7818608E-02  0.9109057E-01
         -1   -1    0    0    0  501 -0.00000000000E+00  0.00000000000E+00  0.77010102789E+03  0.77010102789E+03  0.00000000000E+00 0.  1.
          1   -1    0    0  501    0  0.00000000000E+00 -0.00000000000E+00 -0.47086662857E+03  0.47086662857E+03  0.00000000000E+00 0. -1.
         23    2    1    2    0    0 -0.39221076030E+03  0.55092776949E+02 -0.31226430514E+03  0.51241075401E+03  0.90505745610E+02 0.  0.
         11    1    3    3    0    0 -0.21347242737E+03 -0.13431414792E+02 -0.18225475337E+03  0.28101187747E+03  0.00000000000E+00 0. -1.
        -11    1    3    3    0    0 -0.17873833293E+03  0.68524191740E+02 -0.13000955176E+03  0.23139887654E+03  0.00000000000E+00 0.  1.
         22    1    1    2    0    0  0.39221076030E+03 -0.55092776949E+02  0.61149870445E+03  0.72855690246E+03  0.00000000000E+00 0.  1.
<mgrwt>
<rscale>  0 0.12043502E+04</rscale>
<asrwt>0</asrwt>
<pdfrwt beam="1">  1        1 0.72441020E-01 0.12043502E+04</pdfrwt>
<pdfrwt beam="2">  1       -1 0.11847708E+00 0.12043502E+04</pdfrwt>
<totfact> 0.30434584E+01</totfact>
</mgrwt>
</event>
<event>
 6    1  0.1001928E-005  0.2415372E+04  0.7818608E-02  0.8433771E-01
         -1   -1    0    0    0  501 -0.00000000000E+00  0.00000000000E+00  0.59938697972E+03  0.59938697972E+03  0.00000000000E+00 0. -1.
          1   -1    0    0  501    0  0.00000000000E+00 -0.00000000000E+00 -0.24333280278E+04  0.24333280278E+04  0.00000000000E+00 0.  1.
         23    2    1    2    0    0  0.13095240964E+03  0.21648521201E+03 -0.23987833717E+04  0.24137956014E+04  0.90736764816E+02 0.  0.
         11    1    3    3    0    0  0.51712736193E+01  0.82108281694E+02 -0.59862105445E+03  0.60424802757E+03  0.00000000000E+00 0. -1.
        -11    1    3    3    0    0  0.12578113602E+03  0.13437693032E+03 -0.18001623173E+04  0.18095475739E+04  0.00000000000E+00 0.  1.
         22    1    1    2    0    0 -0.13095240964E+03 -0.21648521201E+03  0.56484232365E+03  0.61891940606E+03  0.00000000000E+00 0. -1.
<mgrwt>
<rscale>  0 0.24153717E+04</rscale>
<asrwt>0</asrwt>
<pdfrwt beam="1">  1        1 0.37435815E+00 0.24153717E+04</pdfrwt>
<pdfrwt beam="2">  1       -1 0.92213384E-01 0.24153717E+04</pdfrwt>
<totfact> 0.15429377E+00</totfact>
</mgrwt>
</event>
<event>
 6    1  0.1001928E-005  0.1744829E+04  0.7818608E-02  0.8736202E-01
          1   -1    0    0  501    0  0.00000000000E+00  0.00000000000E+00  0.47126364905E+03  0.47126364905E+03  0.00000000000E+00 0. -1.
         -1   -1    0    0    0  501 -0.00000000000E+00 -0.00000000000E+00 -0.16150341382E+04  0.16150341382E+04  0.00000000000E+00 0.  1.
         23    2    1    2    0    0  0.19193195271E+03 -0.83238069431E+03 -0.77116547494E+03  0.11543482224E+04  0.90156165490E+02 0.  0.
         11    1    3    3    0    0  0.80734542124E+02 -0.50147911373E+03 -0.49487459264E+03  0.70915458840E+03  0.00000000000E+00 0. -1.
        -11    1    3    3    0    0  0.11119741059E+03 -0.33090158058E+03 -0.27629088230E+03  0.44519363404E+03  0.00000000000E+00 0.  1.
         22    1    1    2    0    0 -0.19193195271E+03  0.83238069431E+03 -0.37260501421E+03  0.93194956481E+03  0.00000000000E+00 0.  1.
<mgrwt>
<rscale>  0 0.17448288E+04</rscale>
<asrwt>0</asrwt>
<pdfrwt beam="1">  1        1 0.72502101E-01 0.17448288E+04</pdfrwt>
<pdfrwt beam="2">  1       -1 0.24846679E+00 0.17448288E+04</pdfrwt>
<totfact> 0.32527626E+00</totfact>
</mgrwt>
</event>
<event>
 6    1  0.1001928E-005  0.1059631E+04  0.7818608E-02  0.9245457E-01
         -1   -1    0    0    0  501 -0.00000000000E+00  0.00000000000E+00  0.25285129002E+03  0.25285129002E+03  0.00000000000E+00 0. -1.
          1   -1    0    0  501    0  0.00000000000E+00 -0.00000000000E+00 -0.11101559865E+04  0.11101559865E+04  0.00000000000E+00 0.  1.
         23    2    1    2    0    0  0.35799668928E+03  0.19420259040E+03 -0.44359095110E+01  0.41788218246E+03  0.93432143656E+02 0.  0.
         11    1    3    3    0    0  0.71451954361E+02  0.17208018093E+02 -0.31572827866E+02  0.79989631379E+02  0.00000000000E+00 0.  1.
        -11    1    3    3    0    0  0.28654473492E+03  0.17699457231E+03  0.27136918355E+02  0.33789255108E+03  0.00000000000E+00 0. -1.
         22    1    1    2    0    0 -0.35799668928E+03 -0.19420259040E+03 -0.85286878700E+03  0.94512509410E+03  0.00000000000E+00 0.  1.
<mgrwt>
<rscale>  0 0.10596308E+04</rscale>
<asrwt>0</asrwt>
<pdfrwt beam="1">  1        1 0.17079323E+00 0.10596308E+04</pdfrwt>
<pdfrwt beam="2">  1       -1 0.38900197E-01 0.10596308E+04</pdfrwt>
<totfact> 0.79701912E+01</totfact>
</mgrwt>
</event>
<event>
 6    1  0.1131712E-005  0.3671918E+04  0.7818608E-02  0.8074214E-01
          2   -1    0    0  501    0  0.00000000000E+00  0.00000000000E+00  0.22630195152E+04  0.22630195152E+04  0.00000000000E+00 0. -1.
         -2   -1    0    0    0  501 -0.00000000000E+00 -0.00000000000E+00 -0.14894902478E+04  0.14894902478E+04  0.00000000000E+00 0.  1.
         23    2    1    2    0    0 -0.49649153106E+03  0.49635753416E+03 -0.13454887913E+04  0.15202212119E+04  0.88644252779E+02 0.  0.
         13    1    3    3    0    0 -0.37182288369E+03  0.36669670194E+03 -0.10786603703E+04  0.11984268532E+04  0.00000000000E+00 0. -1.
        -13    1    3    3    0    0 -0.12466864737E+03  0.12966083222E+03 -0.26682842105E+03  0.32179435876E+03  0.00000000000E+00 0.  1.
         22    1    1    2    0    0  0.49649153106E+03 -0.49635753416E+03  0.21190180587E+04  0.22322885511E+04  0.00000000000E+00 0. -1.
<mgrwt>
<rscale>  0 0.36719180E+04</rscale>
<asrwt>0</asrwt>
<pdfrwt beam="1">  1        2 0.34815685E+00 0.36719180E+04</pdfrwt>
<pdfrwt beam="2">  1       -2 0.22915235E+00 0.36719180E+04</pdfrwt>
<totfact> 0.33366978E-01</totfact>
</mgrwt>
</event>
<event>
 6    1  0.1001928E-005  0.1883638E+04  0.7818608E-02  0.8663044E-01
         -1   -1    0    0    0  501 -0.00000000000E+00  0.00000000000E+00  0.26898973480E+03  0.26898973480E+03  0.00000000000E+00 0.  1.
          1   -1    0    0  501    0  0.00000000000E+00 -0.00000000000E+00 -0.32976099888E+04  0.32976099888E+04  0.00000000000E+00 0. -1.
         23    2    1    2    0    0 -0.12679150969E+02  0.50918447322E+03 -0.23041778204E+02  0.51816872342E+03  0.92402996461E+02 0.  0.
         13    1    3    3    0    0 -0.42726868109E+02  0.43932967844E+03 -0.14414696489E+02  0.44163778721E+03  0.00000000000E+00 0. -1.
        -13    1    3    3    0    0  0.30047717139E+02  0.69854794784E+02 -0.86270817154E+01  0.76530936218E+02  0.00000000000E+00 0.  1.
         22    1    1    2    0    0  0.12679150969E+02 -0.50918447322E+03 -0.30055784758E+04  0.30484310002E+04  0.00000000000E+00 0. -1.
<mgrwt>
<rscale>  0 0.18836382E+04</rscale>
<asrwt>0</asrwt>
<pdfrwt beam="1">  1        1 0.50732463E+00 0.18836382E+04</pdfrwt>
<pdfrwt beam="2">  1       -1 0.41383034E-01 0.18836382E+04</pdfrwt>
<totfact> 0.19306549E+00</totfact>
</mgrwt>
</event>
<event>
 6    1  0.1001928E-005  0.1162135E+04  0.7818608E-02  0.9146661E-01
         -2   -1    0    0    0  501 -0.00000000000E+00  0.00000000000E+00  0.31765607224E+03  0.31765607224E+03  0.00000000000E+00 0.  1.
          2   -1    0    0  501    0  0.00000000000E+00 -0.00000000000E+00 -0.10629079039E+04  0.10629079039E+04  0.00000000000E+00 0. -1.
         23    2    1    2    0    0 -0.18164960570E+03  0.15764988555E+03  0.24855669912E+03  0.35806436171E+03  0.92626069700E+02 0.  0.
         11    1    3    3    0    0 -0.89249259207E+02  0.43209446331E+02  0.15414529944E+03  0.18328464164E+03  0.00000000000E+00 0.  1.
        -11    1    3    3    0    0 -0.92400346494E+02  0.11444043921E+03  0.94411399679E+02  0.17477972007E+03  0.00000000000E+00 0. -1.
         22    1    1    2    0    0  0.18164960570E+03 -0.15764988555E+03 -0.99380853079E+03  0.10224996144E+04  0.00000000000E+00 0. -1.
<mgrwt>
<rscale>  0 0.11621345E+04</rscale>
<asrwt>0</asrwt>
<pdfrwt beam="1">  1        2 0.16352429E+00 0.11621345E+04</pdfrwt>
<pdfrwt beam="2">  1       -2 0.48870165E-01 0.11621345E+04</pdfrwt>
<totfact> 0.90075923E+01</totfact>
</mgrwt>
</event>
<event>
 6    1  0.1001928E-005  0.1769281E+04  0.7818608E-02  0.8722808E-01
          2   -1    0    0  501    0  0.00000000000E+00  0.00000000000E+00  0.33771643540E+04  0.33771643540E+04  0.00000000000E+00 0. -1.
         -2   -1    0    0    0  501 -0.00000000000E+00 -0.00000000000E+00 -0.23172955785E+03  0.23172955785E+03  0.00000000000E+00 0.  1.
         23    2    1    2    0    0 -0.15562141847E+03  0.67478062923E+03  0.26912545010E+04  0.27807473886E+04  0.10078852480E+03 0.  0.
         11    1    3    3    0    0 -0.43239887815E+02  0.25800744108E+03  0.83793611703E+03  0.87782370883E+03  0.00000000000E+00 0.  1.
        -11    1    3    3    0    0 -0.11238153065E+03  0.41677318815E+03  0.18533183839E+04  0.19029236798E+04  0.00000000000E+00 0. -1.
         22    1    1    2    0    0  0.15562141847E+03 -0.67478062923E+03  0.45418029521E+03  0.82814652328E+03  0.00000000000E+00 0.  1.
<mgrwt>
<rscale>  0 0.17692810E+04</rscale>
<asrwt>0</asrwt>
<pdfrwt beam="1">  1        2 0.51956371E+00 0.17692810E+04</pdfrwt>
<pdfrwt beam="2">  1       -2 0.35650703E-01 0.17692810E+04</pdfrwt>
<totfact> 0.69673012E+00</totfact>
</mgrwt>
</event>
<event>
 6    1  0.1001928E-005  0.3545939E+04  0.7818608E-02  0.8102988E-01
         -2   -1    0    0    0  501 -0.00000000000E+00  0.00000000000E+00  0.96838688989E+03  0.96838688989E+03  0.00000000000E+00 0.  1.
          2   -1    0    0  501    0  0.00000000000E+00 -0.00000000000E+00 -0.32460387369E+04  0.32460387369E+04  0.00000000000E+00 0. -1.
         23    2    1    2    0    0 -0.14363334176E+04 -0.67556311553E+03 -0.20752384694E+04  0.26142973866E+04  0.92178690788E+02 0.  0.
         11    1    3    3    0    0 -0.61008802635E+03 -0.30125714837E+03 -0.96184970439E+03  0.11781842484E+04  0.00000000000E+00 0.  1.
        -11    1    3    3    0    0 -0.82624539126E+03 -0.37430596716E+03 -0.11133887650E+04  0.14361131382E+04  0.00000000000E+00 0. -1.
         22    1    1    2    0    0  0.14363334176E+04  0.67556311553E+03 -0.20241337759E+03  0.16001282402E+04  0.00000000000E+00 0.  1.
<mgrwt>
<rscale>  0 0.35459393E+04</rscale>
<asrwt>0</asrwt>
<pdfrwt beam="1">  1        2 0.49939057E+00 0.35459393E+04</pdfrwt>
<pdfrwt beam="2">  1       -2 0.14898260E+00 0.35459393E+04</pdfrwt>
<totfact> 0.30174820E-01</totfact>
</mgrwt>
</event>
<event>
 6    1  0.1001928E-005  0.3503516E+04  0.7818608E-02  0.8112957E-01
          1   -1    0    0  501    0  0.00000000000E+00  0.00000000000E+00  0.89508826907E+03  0.89508826907E+03  0.00000000000E+00 0. -1.
         -1   -1    0    0    0  501 -0.00000000000E+00 -0.00000000000E+00 -0.34283278603E+04  0.34283278603E+04  0.00000000000E+00 0.  1.
         23    2    1    2    0    0 -0.11551089404E+04 -0.11527176171E+04 -0.20495428511E+04  0.26213594014E+04  0.88682825609E+02 0.  0.
         13    1    3    3    0    0 -0.59300634586E+03 -0.60144955917E+03 -0.99043614883E+03  0.13016765587E+04  0.00000000000E+00 0. -1.
        -13    1    3    3    0    0 -0.56210259458E+03 -0.55126805792E+03 -0.10591067023E+04  0.13196828427E+04  0.00000000000E+00 0.  1.
         22    1    1    2    0    0  0.11551089404E+04  0.11527176171E+04 -0.48369674013E+03  0.17020567280E+04  0.00000000000E+00 0. -1.
<mgrwt>
<rscale>  0 0.35035160E+04</rscale>
<asrwt>0</asrwt>
<pdfrwt beam="1">  1        1 0.13770589E+00 0.35035160E+04</pdfrwt>
<pdfrwt beam="2">  1       -1 0.52743506E+00 0.35035160E+04</pdfrwt>
<totfact> 0.15051095E-02</totfact>
</mgrwt>
</event>
<event>
 6    1  0.1001928E-005  0.2732375E+04  0.7818608E-02  0.8324576E-01
         -1   -1    0    0    0  501 -0.00000000000E+00  0.00000000000E+00  0.11496272736E+04  0.11496272736E+04  0.00000000000E+00 0.  1.
          1   -1    0    0  501    0  0.00000000000E+00 -0.00000000000E+00 -0.16235418727E+04  0.16235418727E+04  0.00000000000E+00 0. -1.
         23    2    1    2    0    0 -0.11574248929E+04  0.72269867525E+03 -0.21825414430E+03  0.13849011512E+04  0.91600050403E+02 0.  0.
         11    1    3    3    0    0 -0.88385145887E+03  0.53290192113E+03 -0.12843763972E+03  0.10400356177E+04  0.00000000000E+00 0. -1.
        -11    1    3    3    0    0 -0.27357343406E+03  0.18979675412E+03 -0.89816504587E+02  0.34486553350E+03  0.00000000000E+00 0.  1.
         22    1    1    2    0    0  0.11574248929E+04 -0.72269867525E+03 -0.25566045474E+03  0.13882679951E+04  0.00000000000E+00 0. -1.
<mgrwt>
<rscale>  0 0.27323748E+04</rscale>
<asrwt>0</asrwt>
<pdfrwt beam="1">  1        1 0.24977567E+00 0.27323748E+04</pdfrwt>
<pdfrwt beam="2">  1       -1 0.17686574E+00 0.27323748E+04</pdfrwt>
<totfact> 0.10263721E+00</totfact>
</mgrwt>
</event>
<event>
 6    1  0.1186066E-005  0.4064599E+04  0.7818608E-02  0.7991640E-01
         -2   -1    0    0    0  501 -0.00000000000E+00  0.00000000000E+00  0.25610512521E+04  0.25610512521E+04  0.00000000000E+00 0.  1.
          2   -1    0    0  501    0  0.00000000000E+00 -0.00000000000E+00 -0.16127128804E+04  0.16127128804E+04  0.00000000000E+00 0. -1.
         23    2    1    2    0    0 -0.83918729821E+03  0.24546159989E+03  0.23571045803E+04  0.25157204211E+04  0.91763371078E+02 0.  0.
         13    1    3    3    0    0 -0.61622406405E+03  0.21136178206E+03  0.16715481567E+04  0.17940120234E+04  0.00000000000E+00 0. -1.
        -13    1    3    3    0    0 -0.22296323416E+03  0.34099817833E+02  0.68555642358E+03  0.72170839768E+03  0.00000000000E+00 0.  1.
         22    1    1    2    0    0  0.83918729821E+03 -0.24546159989E+03 -0.14087662086E+04  0.16580437114E+04  0.00000000000E+00 0. -1.
<mgrwt>
<rscale>  0 0.40645985E+04</rscale>
<asrwt>0</asrwt>
<pdfrwt beam="1">  1        2 0.24810967E+00 0.40645985E+04</pdfrwt>
<pdfrwt beam="2">  1       -2 0.39400788E+00 0.40645985E+04</pdfrwt>
<totfact> 0.69901306E-02</totfact>
</mgrwt>
</event>
<event>
 6    1  0.1001928E-005  0.1900912E+04  0.7818608E-02  0.8654402E-01
          1   -1    0    0  501    0  0.00000000000E+00  0.00000000000E+00  0.23014211582E+04  0.23014211582E+04  0.00000000000E+00 0. -1.
         -1   -1    0    0    0  501 -0.00000000000E+00 -0.00000000000E+00 -0.39252573657E+03  0.39252573657E+03  0.00000000000E+00 0.  1.
         23    2    1    2    0    0 -0.65711785519E+03 -0.13765240383E+03  0.19057101081E+04  0.20225586270E+04  0.90886322440E+02 0.  0.
         13    1    3    3    0    0 -0.48331962204E+03 -0.60332324351E+02  0.13474607788E+04  0.14327904232E+04  0.00000000000E+00 0.  1.
        -13    1    3    3    0    0 -0.17379823314E+03 -0.77320079481E+02  0.55824932929E+03  0.58976820378E+03  0.00000000000E+00 0. -1.
         22    1    1    2    0    0  0.65711785519E+03  0.13765240383E+03  0.31853135197E+01  0.67138826778E+03  0.00000000000E+00 0.  1.
<mgrwt>
<rscale>  0 0.19009124E+04</rscale>
<asrwt>0</asrwt>
<pdfrwt beam="1">  1        1 0.35406478E+00 0.19009124E+04</pdfrwt>
<pdfrwt beam="2">  1       -1 0.60388577E-01 0.19009124E+04</pdfrwt>
<totfact> 0.48325811E+00</totfact>
</mgrwt>
</event>
<event>
 6    1  0.1001928E-005  0.2431679E+04  0.7818608E-02  0.8427738E-01
         -1   -1    0    0    0  501 -0.00000000000E+00  0.00000000000E+00  0.38284206073E+03  0.38284206073E+03  0.00000000000E+00 0.  1.
          1   -1    0    0  501    0  0.00000000000E+00 -0.00000000000E+00 -0.38612948156E+04  0.38612948156E+04  0.00000000000E+00 0. -1.
         23    2    1    2    0    0 -0.21976093209E+03  0.67928775563E+03 -0.34556650795E+04  0.35298218195E+04  0.91072575424E+02 0.  0.
         11    1    3    3    0    0 -0.68615199822E+02  0.35629561836E+03 -0.17926066690E+04  0.18289596177E+04  0.00000000000E+00 0. -1.
        -11    1    3    3    0    0 -0.15114573227E+03  0.32299213727E+03 -0.16630584104E+04  0.17008622018E+04  0.00000000000E+00 0.  1.
         22    1    1    2    0    0  0.21976093209E+03 -0.67928775563E+03 -0.22787675399E+02  0.71431505680E+03  0.00000000000E+00 0.  1.
<mgrwt>
<rscale>  0 0.24316793E+04</rscale>
<asrwt>0</asrwt>
<pdfrwt beam="1">  1        1 0.59404536E+00 0.24316793E+04</pdfrwt>
<pdfrwt beam="2">  1       -1 0.58898778E-01 0.24316793E+04</pdfrwt>
<totfact> 0.33116242E-01</totfact>
</mgrwt>
</event>
<event>
 6    1  0.1001928E-005  0.3251966E+04  0.7818608E-02  0.8175226E-01
         -2   -1    0    0    0  501 -0.00000000000E+00  0.00000000000E+00  0.23014073996E+04  0.23014073996E+04  0.00000000000E+00 0. -1.
          2   -1    0    0  501    0  0.00000000000E+00 -0.00000000000E+00 -0.11487840141E+04  0.11487840141E+04  0.00000000000E+00 0.  1.
         23    2    1    2    0    0  0.30657946925E+03  0.12381688096E+04 -0.49085412420E+03  0.13697896984E+04  0.91285675371E+02 0.  0.
         11    1    3    3    0    0  0.19761015621E+03  0.71913297318E+03 -0.24299197821E+03  0.78437689182E+03  0.00000000000E+00 0. -1.
        -11    1    3    3    0    0  0.10896931304E+03  0.51903583639E+03 -0.24786214599E+03  0.58541280654E+03  0.00000000000E+00 0.  1.
         22    1    1    2    0    0 -0.30657946925E+03 -0.12381688096E+04  0.16434775097E+04  0.20804017153E+04  0.00000000000E+00 0. -1.
<mgrwt>
<rscale>  0 0.32519656E+04</rscale>
<asrwt>0</asrwt>
<pdfrwt beam="1">  1        2 0.17673600E+00 0.32519656E+04</pdfrwt>
<pdfrwt beam="2">  1       -2 0.35406268E+00 0.32519656E+04</pdfrwt>
<totfact> 0.24996379E-01</totfact>
</mgrwt>
</event>
<event>
 6    1  0.1001928E-005  0.1873829E+04  0.7818608E-02  0.8667994E-01
          2   -1    0    0  501    0  0.00000000000E+00  0.00000000000E+00  0.11510739953E+04  0.11510739953E+04  0.00000000000E+00 0. -1.
         -2   -1    0    0    0  501 -0.00000000000E+00 -0.00000000000E+00 -0.76259983520E+03  0.76259983520E+03  0.00000000000E+00 0.  1.
         23    2    1    2    0    0  0.40820720253E+03  0.53041394413E+03  0.86090128746E+03  0.10944306047E+04  0.93033593355E+02 0.  0.
         11    1    3    3    0    0  0.31035474159E+03  0.45503401658E+03  0.67452526459E+03  0.87083887973E+03  0.00000000000E+00 0. -1.
        -11    1    3    3    0    0  0.97852460933E+02  0.75379927551E+02  0.18637602287E+03  0.22359172500E+03  0.00000000000E+00 0.  1.
         22    1    1    2    0    0 -0.40820720253E+03 -0.53041394413E+03 -0.47242712736E+03  0.81924322578E+03  0.00000000000E+00 0.  1.
<mgrwt>
<rscale>  0 0.18738291E+04</rscale>
<asrwt>0</asrwt>
<pdfrwt beam="1">  1        2 0.17708831E+00 0.18738291E+04</pdfrwt>
<pdfrwt beam="2">  1       -2 0.11732305E+00 0.18738291E+04</pdfrwt>
<totfact> 0.10683927E+01</totfact>
</mgrwt>
</event>
<event>
 6    1  0.1001928E-005  0.5392683E+04  0.7818608E-02  0.7770631E-01
         -1   -1    0    0    0  501 -0.00000000000E+00  0.00000000000E+00  0.22314515959E+04  0.22314515959E+04  0.00000000000E+00 0.  1.
          1   -1    0    0  501    0  0.00000000000E+00 -0.00000000000E+00 -0.32580837600E+04  0.32580837600E+04  0.00000000000E+00 0. -1.
         23    2    1    2    0    0  0.28066591734E+03  0.23557914580E+04  0.78923753457E+03  0.25019092893E+04  0.90152400514E+02 0.  0.
         13    1    3    3    0    0  0.23871878034E+03  0.21577658908E+04  0.74000688302E+03  0.22935889960E+04  0.00000000000E+00 0.  1.
        -13    1    3    3    0    0  0.41947137005E+02  0.19802556717E+03  0.49230651558E+02  0.20832029332E+03  0.00000000000E+00 0. -1.
         22    1    1    2    0    0 -0.28066591734E+03 -0.23557914580E+04 -0.18158696987E+04  0.29876260665E+04  0.00000000000E+00 0. -1.
<mgrwt>
<rscale>  0 0.53926825E+04</rscale>
<asrwt>0</asrwt>
<pdfrwt beam="1">  1        1 0.50124365E+00 0.53926825E+04</pdfrwt>
<pdfrwt beam="2">  1       -1 0.34330025E+00 0.53926825E+04</pdfrwt>
<totfact> 0.46274423E-03</totfact>
</mgrwt>
</event>
<event>
 6    1  0.1001928E-005  0.9607665E+03  0.7818608E-02  0.9352654E-01
         -3   -1    0    0    0  501 -0.00000000000E+00  0.00000000000E+00  0.17703920551E+04  0.17703920551E+04  0.00000000000E+00 0.  1.
          3   -1    0    0  501    0  0.00000000000E+00 -0.00000000000E+00 -0.13034857964E+03  0.13034857964E+03  0.00000000000E+00 0. -1.
         23    2    1    2    0    0 -0.17025101621E+03 -0.10228130352E+03  0.16834192382E+04  0.16974469301E+04  0.89324550983E+02 0.  0.
         13    1    3    3    0    0 -0.67446538624E+02  0.47849532808E+01  0.43277671387E+03  0.43802695741E+03  0.00000000000E+00 0. -1.
        -13    1    3    3    0    0 -0.10280447758E+03 -0.10706625680E+03  0.12506425243E+04  0.12594199727E+04  0.00000000000E+00 0.  1.
         22    1    1    2    0    0  0.17025101621E+03  0.10228130352E+03 -0.43375762707E+02  0.20329370467E+03  0.00000000000E+00 0. -1.
<mgrwt>
<rscale>  0 0.96076655E+03</rscale>
<asrwt>0</asrwt>
<pdfrwt beam="1">  1        3 0.20053629E-01 0.96076655E+03</pdfrwt>
<pdfrwt beam="2">  1       -3 0.27236799E+00 0.96076655E+03</pdfrwt>
<totfact> 0.32998766E+00</totfact>
</mgrwt>
</event>
<event>
 6    1  0.1001928E-005  0.1770263E+04  0.7818608E-02  0.8722275E-01
         -1   -1    0    0    0  501 -0.00000000000E+00  0.00000000000E+00  0.32311157169E+03  0.32311157169E+03  0.00000000000E+00 0.  1.
          1   -1    0    0  501    0  0.00000000000E+00 -0.00000000000E+00 -0.24247280979E+04  0.24247280979E+04  0.00000000000E+00 0. -1.
         23    2    1    2    0    0  0.11871781142E+03  0.55925062929E+03 -0.20976836892E+04  0.21761136405E+04  0.91315560309E+02 0.  0.
         11    1    3    3    0    0  0.47631084650E+02  0.25178613488E+03 -0.77333237327E+03  0.81468272198E+03  0.00000000000E+00 0. -1.
        -11    1    3    3    0    0  0.71086726771E+02  0.30746449441E+03 -0.13243513159E+04  0.13614309186E+04  0.00000000000E+00 0.  1.
         22    1    1    2    0    0 -0.11871781142E+03 -0.55925062929E+03 -0.39328370462E+01  0.57172602907E+03  0.00000000000E+00 0.  1.
<mgrwt>
<rscale>  0 0.17702629E+04</rscale>
<asrwt>0</asrwt>
<pdfrwt beam="1">  1        1 0.37303510E+00 0.17702629E+04</pdfrwt>
<pdfrwt beam="2">  1       -1 0.49709471E-01 0.17702629E+04</pdfrwt>
<totfact> 0.58706704E+00</totfact>
</mgrwt>
</event>
<event>
 6    1  0.1001928E-005  0.4906355E+03  0.7818608E-02  0.1016252E+00
          1   -1    0    0  501    0  0.00000000000E+00  0.00000000000E+00  0.13474410114E+04  0.13474410114E+04  0.00000000000E+00 0. -1.
         -1   -1    0    0    0  501 -0.00000000000E+00 -0.00000000000E+00 -0.44663033907E+02  0.44663033907E+02  0.00000000000E+00 0.  1.
         23    2    1    2    0    0  0.14449211082E+03  0.12171185371E+03  0.26945518145E+03  0.34165283451E+03  0.91808600351E+02 0.  0.
         11    1    3    3    0    0  0.97283698379E+02  0.98966067843E+02  0.24965855185E+03  0.28563576994E+03  0.00000000000E+00 0. -1.
        -11    1    3    3    0    0  0.47208412446E+02  0.22745785869E+02  0.19796629593E+02  0.56017064576E+02  0.00000000000E+00 0.  1.
         22    1    1    2    0    0 -0.14449211082E+03 -0.12171185371E+03  0.10333227960E+04  0.10504512108E+04  0.00000000000E+00 0. -1.
<mgrwt>
<rscale>  0 0.49063552E+03</rscale>
<asrwt>0</asrwt>
<pdfrwt beam="1">  1        1 0.20729859E+00 0.49063552E+03</pdfrwt>
<pdfrwt beam="2">  1       -1 0.68712370E-02 0.49063552E+03</pdfrwt>
<totfact> 0.97454399E+02</totfact>
</mgrwt>
</event>
<event>
 6    1  0.1001928E-005  0.2133571E+04  0.7818608E-02  0.8546598E-01
          2   -1    0    0  501    0  0.00000000000E+00  0.00000000000E+00  0.92595839531E+03  0.92595839531E+03  0.00000000000E+00 0. -1.
         -2   -1    0    0    0  501 -0.00000000000E+00 -0.00000000000E+00 -0.12290306546E+04  0.12290306546E+04  0.00000000000E+00 0.  1.
         23    2    1    2    0    0  0.10730793131E+03 -0.38274947960E+03  0.84586905517E+03  0.93922661411E+03  0.92951696570E+02 0.  0.
         11    1    3    3    0    0  0.70702123095E+02 -0.35578449208E+03  0.74843420867E+03  0.83170617392E+03  0.00000000000E+00 0. -1.
        -11    1    3    3    0    0  0.36605808214E+02 -0.26964987512E+02  0.97434846497E+02  0.10752044019E+03  0.00000000000E+00 0.  1.
         22    1    1    2    0    0 -0.10730793131E+03  0.38274947960E+03 -0.11489413144E+04  0.12157624358E+04  0.00000000000E+00 0.  1.
<mgrwt>
<rscale>  0 0.21335710E+04</rscale>
<asrwt>0</asrwt>
<pdfrwt beam="1">  1        2 0.14245514E+00 0.21335710E+04</pdfrwt>
<pdfrwt beam="2">  1       -2 0.18908164E+00 0.21335710E+04</pdfrwt>
<totfact> 0.40683732E+00</totfact>
</mgrwt>
</event>
<event>
 6    1  0.1001928E-005  0.1100940E+04  0.7818608E-02  0.9204276E-01
          2   -1    0    0  501    0  0.00000000000E+00  0.00000000000E+00  0.24239970431E+04  0.24239970431E+04  0.00000000000E+00 0. -1.
         -2   -1    0    0    0  501 -0.00000000000E+00 -0.00000000000E+00 -0.12500720606E+03  0.12500720606E+03  0.00000000000E+00 0.  1.
         23    2    1    2    0    0  0.34138718285E+03 -0.38232185573E+03  0.15976105179E+04  0.16802993745E+04  0.91276563345E+02 0.  0.
         11    1    3    3    0    0  0.17557742104E+03 -0.12935463061E+03  0.65543666368E+03  0.69076571378E+03  0.00000000000E+00 0. -1.
        -11    1    3    3    0    0  0.16580976181E+03 -0.25296722512E+03  0.94217385419E+03  0.98953366068E+03  0.00000000000E+00 0.  1.
         22    1    1    2    0    0 -0.34138718285E+03  0.38232185573E+03  0.70137931920E+03  0.86870487474E+03  0.00000000000E+00 0.  1.
<mgrwt>
<rscale>  0 0.11009398E+04</rscale>
<asrwt>0</asrwt>
<pdfrwt beam="1">  1        2 0.37292259E+00 0.11009398E+04</pdfrwt>
<pdfrwt beam="2">  1       -2 0.19231880E-01 0.11009398E+04</pdfrwt>
<totfact> 0.88205879E+01</totfact>
</mgrwt>
</event>
<event>
 6    1  0.1001928E-005  0.2482632E+04  0.7818608E-02  0.8409199E-01
         -2   -1    0    0    0  501 -0.00000000000E+00  0.00000000000E+00  0.11451547612E+04  0.11451547612E+04  0.00000000000E+00 0.  1.
          2   -1    0    0  501    0  0.00000000000E+00 -0.00000000000E+00 -0.13455518212E+04  0.13455518212E+04  0.00000000000E+00 0. -1.
         23    2    1    2    0    0  0.11589695847E+04  0.36277883113E+03 -0.34697246070E+03  0.12674718026E+04  0.10618805693E+03 0.  0.
         13    1    3    3    0    0  0.83287978241E+03  0.27195351873E+03 -0.20145647663E+03  0.89901733036E+03  0.00000000000E+00 0.  1.
        -13    1    3    3    0    0  0.32608980226E+03  0.90825312403E+02 -0.14551598407E+03  0.36845447226E+03  0.00000000000E+00 0. -1.
         22    1    1    2    0    0 -0.11589695847E+04 -0.36277883113E+03  0.14657540070E+03  0.12232347798E+04  0.00000000000E+00 0.  1.
<mgrwt>
<rscale>  0 0.24826317E+04</rscale>
<asrwt>0</asrwt>
<pdfrwt beam="1">  1        2 0.20700797E+00 0.24826317E+04</pdfrwt>
<pdfrwt beam="2">  1       -2 0.17617766E+00 0.24826317E+04</pdfrwt>
<totfact> 0.26783070E+00</totfact>
</mgrwt>
</event>
<event>
 6    1  0.1149039E-005  0.2765108E+04  0.7818608E-02  0.8314184E-01
          1   -1    0    0  501    0  0.00000000000E+00  0.00000000000E+00  0.86130317256E+03  0.86130317256E+03  0.00000000000E+00 0. -1.
         -1   -1    0    0    0  501 -0.00000000000E+00 -0.00000000000E+00 -0.22192593985E+04  0.22192593985E+04  0.00000000000E+00 0.  1.
         23    2    1    2    0    0 -0.52746566631E+03  0.88860923699E+03 -0.17001224898E+04  0.19920203545E+04  0.99409291521E+02 0.  0.
         11    1    3    3    0    0 -0.28315051404E+03  0.56104114976E+03 -0.10735957671E+04  0.12440053281E+04  0.00000000000E+00 0. -1.
        -11    1    3    3    0    0 -0.24431515227E+03  0.32756808723E+03 -0.62652672270E+03  0.74801502636E+03  0.00000000000E+00 0.  1.
         22    1    1    2    0    0  0.52746566631E+03 -0.88860923699E+03  0.34216626382E+03  0.10885422166E+04  0.00000000000E+00 0. -1.
<mgrwt>
<rscale>  0 0.27651077E+04</rscale>
<asrwt>0</asrwt>
<pdfrwt beam="1">  1        1 0.13250818E+00 0.27651077E+04</pdfrwt>
<pdfrwt beam="2">  1       -1 0.34142452E+00 0.27651077E+04</pdfrwt>
<totfact> 0.30122323E-01</totfact>
</mgrwt>
</event>
<event>
 6    1  0.1001928E-005  0.4125926E+04  0.7818608E-02  0.7979614E-01
         -2   -1    0    0    0  501 -0.00000000000E+00  0.00000000000E+00  0.24436196966E+04  0.24436196966E+04  0.00000000000E+00 0.  1.
          2   -1    0    0  501    0  0.00000000000E+00 -0.00000000000E+00 -0.17416029802E+04  0.17416029802E+04  0.00000000000E+00 0. -1.
         23    2    1    2    0    0 -0.14383366876E+04 -0.14533487146E+04  0.80857627507E+02  0.20481982205E+04  0.86850914790E+02 0.  0.
         11    1    3    3    0    0 -0.61707754832E+03 -0.68467978009E+03  0.40443756631E+02  0.92260869243E+03  0.00000000000E+00 0. -1.
        -11    1    3    3    0    0 -0.82125913927E+03 -0.76866893456E+03  0.40413870876E+02  0.11255895281E+04  0.00000000000E+00 0.  1.
         22    1    1    2    0    0  0.14383366876E+04  0.14533487146E+04  0.62115908886E+03  0.21370244563E+04  0.00000000000E+00 0.  1.
<mgrwt>
<rscale>  0 0.41259255E+04</rscale>
<asrwt>0</asrwt>
<pdfrwt beam="1">  1        2 0.26793892E+00 0.41259255E+04</pdfrwt>
<pdfrwt beam="2">  1       -2 0.37594149E+00 0.41259255E+04</pdfrwt>
<totfact> 0.77187615E-02</totfact>
</mgrwt>
</event>
<event>
 6    1  0.1001928E-005  0.2884494E+04  0.7818608E-02  0.8277506E-01
         -2   -1    0    0    0  501 -0.00000000000E+00  0.00000000000E+00  0.76746829755E+03  0.76746829755E+03  0.00000000000E+00 0.  1.
          2   -1    0    0  501    0  0.00000000000E+00 -0.00000000000E+00 -0.27103084900E+04  0.27103084900E+04  0.00000000000E+00 0. -1.
         23    2    1    2    0    0 -0.85345264320E+03  0.60363948753E+03  0.22310355145E+03  0.10727665284E+04  0.91053745641E+02 0.  0.
         11    1    3    3    0    0 -0.14702755464E+03  0.14087240785E+03  0.63653840633E+02  0.21333998346E+03  0.00000000000E+00 0. -1.
        -11    1    3    3    0    0 -0.70642508856E+03  0.46276707968E+03  0.15944971082E+03  0.85942654489E+03  0.00000000000E+00 0.  1.
         22    1    1    2    0    0  0.85345264320E+03 -0.60363948753E+03 -0.21659437439E+04  0.24050102592E+04  0.00000000000E+00 0. -1.
<mgrwt>
<rscale>  0 0.28844936E+04</rscale>
<asrwt>0</asrwt>
<pdfrwt beam="1">  1        2 0.41697054E+00 0.28844936E+04</pdfrwt>
<pdfrwt beam="2">  1       -2 0.11807205E+00 0.28844936E+04</pdfrwt>
<totfact> 0.12501928E+00</totfact>
</mgrwt>
</event>
<event>
 6    1  0.1001928E-005  0.1759084E+04  0.7818608E-02  0.8728366E-01
          2   -1    0    0  501    0  0.00000000000E+00  0.00000000000E+00  0.19344496007E+04  0.19344496007E+04  0.00000000000E+00 0. -1.
         -2   -1    0    0    0  501 -0.00000000000E+00 -0.00000000000E+00 -0.39990402589E+03  0.39990402589E+03  0.00000000000E+00 0.  1.
         23    2    1    2    0    0  0.45715344203E+03  0.61794496677E+03  0.13295441589E+04  0.15388218346E+04  0.97158205089E+02 0.  0.
         11    1    3    3    0    0  0.94714237507E+02  0.90846036453E+02  0.17283281667E+03  0.21701375911E+03  0.00000000000E+00 0. -1.
        -11    1    3    3    0    0  0.36243920452E+03  0.52709893032E+03  0.11567113422E+04  0.13218080755E+04  0.00000000000E+00 0.  1.
         22    1    1    2    0    0 -0.45715344203E+03 -0.61794496677E+03  0.20500141594E+03  0.79553179198E+03  0.00000000000E+00 0.  1.
<mgrwt>
<rscale>  0 0.17590841E+04</rscale>
<asrwt>0</asrwt>
<pdfrwt beam="1">  1        2 0.29760762E+00 0.17590841E+04</pdfrwt>
<pdfrwt beam="2">  1       -2 0.61523698E-01 0.17590841E+04</pdfrwt>
<totfact> 0.16899742E+01</totfact>
</mgrwt>
</event>
<event>
 6    1  0.1001928E-005  0.1394069E+04  0.7818608E-02  0.8958123E-01
         -2   -1    0    0    0  501 -0.00000000000E+00  0.00000000000E+00  0.34434646734E+03  0.34434646734E+03  0.00000000000E+00 0.  1.
          2   -1    0    0  501    0  0.00000000000E+00 -0.00000000000E+00 -0.14109544144E+04  0.14109544144E+04  0.00000000000E+00 0. -1.
         23    2    1    2    0    0 -0.25078534188E+03  0.62380277414E+03 -0.31960948122E+03  0.75029844558E+03  0.93671491023E+02 0.  0.
         11    1    3    3    0    0 -0.12014136252E+03  0.26471723674E+03 -0.18780450859E+03  0.34609203380E+03  0.00000000000E+00 0.  1.
        -11    1    3    3    0    0 -0.13064397936E+03  0.35908553740E+03 -0.13180497263E+03  0.40420641178E+03  0.00000000000E+00 0. -1.
         22    1    1    2    0    0  0.25078534188E+03 -0.62380277414E+03 -0.74699846580E+03  0.10050024361E+04  0.00000000000E+00 0. -1.
<mgrwt>
<rscale>  0 0.13940691E+04</rscale>
<asrwt>0</asrwt>
<pdfrwt beam="1">  1        2 0.21706991E+00 0.13940691E+04</pdfrwt>
<pdfrwt beam="2">  1       -2 0.52976380E-01 0.13940691E+04</pdfrwt>
<totfact> 0.46660230E+01</totfact>
</mgrwt>
</event>
<event>
 6    1  0.1001928E-005  0.1731876E+04  0.7818608E-02  0.8743390E-01
          1   -1    0    0  501    0  0.00000000000E+00  0.00000000000E+00  0.25263938489E+04  0.25263938489E+04  0.00000000000E+00 0. -1.
         -1   -1    0    0    0  501 -0.00000000000E+00 -0.00000000000E+00 -0.29680584291E+03  0.29680584291E+03  0.00000000000E+00 0.  1.
         23    2    1    2    0    0  0.35732101047E+03 -0.38721540714E+02  0.23978050695E+04  0.24263689437E+04  0.92840925759E+02 0.  0.
         13    1    3    3    0    0  0.18423693662E+03 -0.21683242695E+02  0.93207222783E+03  0.95035364456E+03  0.00000000000E+00 0. -1.
        -13    1    3    3    0    0  0.17308407385E+03 -0.17038298018E+02  0.14657328416E+04  0.14760152991E+04  0.00000000000E+00 0.  1.
         22    1    1    2    0    0 -0.35732101047E+03  0.38721540714E+02 -0.16821706345E+03  0.39683074815E+03  0.00000000000E+00 0.  1.
<mgrwt>
<rscale>  0 0.17318758E+04</rscale>
<asrwt>0</asrwt>
<pdfrwt beam="1">  1        1 0.38867596E+00 0.17318758E+04</pdfrwt>
<pdfrwt beam="2">  1       -1 0.45662439E-01 0.17318758E+04</pdfrwt>
<totfact> 0.58821311E+00</totfact>
</mgrwt>
</event>
<event>
 6    1  0.1001928E-005  0.1777778E+04  0.7818608E-02  0.8718207E-01
          3   -1    0    0  501    0  0.00000000000E+00  0.00000000000E+00  0.11330272680E+04  0.11330272680E+04  0.00000000000E+00 0.  1.
         -3   -1    0    0    0  501 -0.00000000000E+00 -0.00000000000E+00 -0.69735641307E+03  0.69735641307E+03  0.00000000000E+00 0. -1.
         23    2    1    2    0    0 -0.88418025713E+01 -0.23260157041E+03  0.10993916126E+04  0.11270296364E+04  0.85745060362E+02 0.  0.
         11    1    3    3    0    0 -0.21558617550E+02 -0.96725349232E+02  0.64560449362E+03  0.65316592789E+03  0.00000000000E+00 0.  1.
        -11    1    3    3    0    0  0.12716814979E+02 -0.13587622118E+03  0.45378711902E+03  0.47386370852E+03  0.00000000000E+00 0. -1.
         22    1    1    2    0    0  0.88418025713E+01  0.23260157041E+03 -0.66372075767E+03  0.70335404470E+03  0.00000000000E+00 0. -1.
<mgrwt>
<rscale>  0 0.17777782E+04</rscale>
<asrwt>0</asrwt>
<pdfrwt beam="1">  1        3 0.17431189E+00 0.17777782E+04</pdfrwt>
<pdfrwt beam="2">  1       -3 0.10728560E+00 0.17777782E+04</pdfrwt>
<totfact> 0.39726687E-01</totfact>
</mgrwt>
</event>
<event>
 6    1  0.1001928E-005  0.1464945E+04  0.7818608E-02  0.8908105E-01
          2   -1    0    0  501    0  0.00000000000E+00  0.00000000000E+00  0.20539296393E+04  0.20539296393E+04  0.00000000000E+00 0.  1.
         -2   -1    0    0    0  501 -0.00000000000E+00 -0.00000000000E+00 -0.26121421754E+03  0.26121421754E+03  0.00000000000E+00 0. -1.
         23    2    1    2    0    0  0.76453840647E+01 -0.10493917521E+03  0.20408045304E+04  0.20456649371E+04  0.93761513912E+02 0.  0.
         11    1    3    3    0    0 -0.42208229798E+02 -0.43553659492E+02  0.10202923203E+04  0.10220933787E+04  0.00000000000E+00 0. -1.
        -11    1    3    3    0    0  0.49853613863E+02 -0.61385515722E+02  0.10205122101E+04  0.10235715584E+04  0.00000000000E+00 0.  1.
         22    1    1    2    0    0 -0.76453840647E+01  0.10493917521E+03 -0.24808910857E+03  0.26947891974E+03  0.00000000000E+00 0. -1.
<mgrwt>
<rscale>  0 0.14649445E+04</rscale>
<asrwt>0</asrwt>
<pdfrwt beam="1">  1        2 0.31598916E+00 0.14649445E+04</pdfrwt>
<pdfrwt beam="2">  1       -2 0.40186804E-01 0.14649445E+04</pdfrwt>
<totfact> 0.35416509E+01</totfact>
</mgrwt>
</event>
<event>
 6    1  0.1001928E-005  0.2570329E+04  0.7818608E-02  0.8378350E-01
          2   -1    0    0  501    0  0.00000000000E+00  0.00000000000E+00  0.17711041438E+04  0.17711041438E+04  0.00000000000E+00 0. -1.
         -2   -1    0    0    0  501 -0.00000000000E+00 -0.00000000000E+00 -0.93255226992E+03  0.93255226992E+03  0.00000000000E+00 0.  1.
         23    2    1    2    0    0 -0.94330307695E+03 -0.29224696393E+03  0.12822433894E+04  0.16210248310E+04  0.91347742192E+02 0.  0.
         13    1    3    3    0    0 -0.77150421397E+03 -0.25007542305E+03  0.11041963463E+04  0.13700387004E+04  0.00000000000E+00 0.  1.
        -13    1    3    3    0    0 -0.17179886297E+03 -0.42171540888E+02  0.17804704315E+03  0.25098613060E+03  0.00000000000E+00 0. -1.
         22    1    1    2    0    0  0.94330307695E+03  0.29224696393E+03 -0.44369151557E+03  0.10826315827E+04  0.00000000000E+00 0.  1.
<mgrwt>
<rscale>  0 0.25703285E+04</rscale>
<asrwt>0</asrwt>
<pdfrwt beam="1">  1        2 0.27247756E+00 0.25703285E+04</pdfrwt>
<pdfrwt beam="2">  1       -2 0.14346958E+00 0.25703285E+04</pdfrwt>
<totfact> 0.26753716E+00</totfact>
</mgrwt>
</event>
<event>
 6    1  0.1001928E-005  0.2015042E+04  0.7818608E-02  0.8599620E-01
         -1   -1    0    0    0  501 -0.00000000000E+00  0.00000000000E+00  0.66593277832E+03  0.66593277832E+03  0.00000000000E+00 0.  1.
          1   -1    0    0  501    0  0.00000000000E+00 -0.00000000000E+00 -0.15243252735E+04  0.15243252735E+04  0.00000000000E+00 0. -1.
         23    2    1    2    0    0 -0.47246404038E+03  0.48496017775E+03  0.37770078412E+03  0.78088399268E+03  0.93344974342E+02 0.  0.
         11    1    3    3    0    0 -0.32367632804E+03  0.27956564656E+03  0.20691036282E+03  0.47511600090E+03  0.00000000000E+00 0.  1.
        -11    1    3    3    0    0 -0.14878771235E+03  0.20539453119E+03  0.17079042130E+03  0.30576799178E+03  0.00000000000E+00 0. -1.
         22    1    1    2    0    0  0.47246404038E+03 -0.48496017775E+03 -0.12360932792E+04  0.14093740591E+04  0.00000000000E+00 0. -1.
<mgrwt>
<rscale>  0 0.20150416E+04</rscale>
<asrwt>0</asrwt>
<pdfrwt beam="1">  1        1 0.23451158E+00 0.20150416E+04</pdfrwt>
<pdfrwt beam="2">  1       -1 0.10245120E+00 0.20150416E+04</pdfrwt>
<totfact> 0.52546640E+00</totfact>
</mgrwt>
</event>
<event>
 6    1  0.1001928E-005  0.4137835E+04  0.7818608E-02  0.7977304E-01
          2   -1    0    0  501    0  0.00000000000E+00  0.00000000000E+00  0.42682247302E+04  0.42682247302E+04  0.00000000000E+00 0. -1.
         -2   -1    0    0    0  501 -0.00000000000E+00 -0.00000000000E+00 -0.10028572126E+04  0.10028572126E+04  0.00000000000E+00 0.  1.
         23    2    1    2    0    0 -0.19578971458E+04  0.53184848247E+03  0.21427621086E+04  0.29523609708E+04  0.93711289798E+02 0.  0.
         13    1    3    3    0    0 -0.16864061589E+04  0.42596956637E+03  0.18194534252E+04  0.25171067857E+04  0.00000000000E+00 0. -1.
        -13    1    3    3    0    0 -0.27149098694E+03  0.10587891610E+03  0.32330868341E+03  0.43525418508E+03  0.00000000000E+00 0.  1.
         22    1    1    2    0    0  0.19578971458E+04 -0.53184848247E+03  0.11226054090E+04  0.23187209721E+04  0.00000000000E+00 0. -1.
<mgrwt>
<rscale>  0 0.41378352E+04</rscale>
<asrwt>0</asrwt>
<pdfrwt beam="1">  1        2 0.65664995E+00 0.41378352E+04</pdfrwt>
<pdfrwt beam="2">  1       -2 0.15428573E+00 0.41378352E+04</pdfrwt>
<totfact> 0.43672148E-02</totfact>
</mgrwt>
</event>
<event>
 6    1  0.1001928E-005  0.2159503E+04  0.7818608E-02  0.8535475E-01
         -1   -1    0    0    0  501 -0.00000000000E+00  0.00000000000E+00  0.12138844576E+04  0.12138844576E+04  0.00000000000E+00 0.  1.
          1   -1    0    0  501    0  0.00000000000E+00 -0.00000000000E+00 -0.96044052359E+03  0.96044052359E+03  0.00000000000E+00 0. -1.
         23    2    1    2    0    0 -0.78119942914E+03  0.24730640879E+03 -0.57800034848E+03  0.10069635964E+04  0.91968873282E+02 0.  0.
         13    1    3    3    0    0 -0.55080156947E+03  0.13146659601E+03 -0.38246401842E+03  0.68333341802E+03  0.00000000000E+00 0.  1.
        -13    1    3    3    0    0 -0.23039785967E+03  0.11583981278E+03 -0.19553633005E+03  0.32363017835E+03  0.00000000000E+00 0. -1.
         22    1    1    2    0    0  0.78119942914E+03 -0.24730640879E+03  0.83144428250E+03  0.11673613848E+04  0.00000000000E+00 0.  1.
<mgrwt>
<rscale>  0 0.21595035E+04</rscale>
<asrwt>0</asrwt>
<pdfrwt beam="1">  1        1 0.14776008E+00 0.21595035E+04</pdfrwt>
<pdfrwt beam="2">  1       -1 0.18675146E+00 0.21595035E+04</pdfrwt>
<totfact> 0.27709823E+00</totfact>
</mgrwt>
</event>
<event>
 6    1  0.1001928E-005  0.6506071E+03  0.7818608E-02  0.9805641E-01
          2   -1    0    0  501    0  0.00000000000E+00  0.00000000000E+00  0.21054990353E+03  0.21054990353E+03  0.00000000000E+00 0.  1.
         -2   -1    0    0    0  501 -0.00000000000E+00 -0.00000000000E+00 -0.50260014345E+03  0.50260014345E+03  0.00000000000E+00 0. -1.
         23    2    1    2    0    0  0.22751690112E+03  0.13081748929E+03  0.49436928850E+02  0.28246380129E+03  0.92003441836E+02 0.  0.
         11    1    3    3    0    0  0.13271574041E+03  0.41344006319E+02 -0.96507533131E+01  0.13934106232E+03  0.00000000000E+00 0. -1.
        -11    1    3    3    0    0  0.94801160709E+02  0.89473482968E+02  0.59087682163E+02  0.14312273897E+03  0.00000000000E+00 0.  1.
         22    1    1    2    0    0 -0.22751690112E+03 -0.13081748929E+03 -0.34148716876E+03  0.43068624569E+03  0.00000000000E+00 0. -1.
<mgrwt>
<rscale>  0 0.65060714E+03</rscale>
<asrwt>0</asrwt>
<pdfrwt beam="1">  1        2 0.32392293E-01 0.65060714E+03</pdfrwt>
<pdfrwt beam="2">  1       -2 0.77323098E-01 0.65060714E+03</pdfrwt>
<totfact> 0.24604766E+02</totfact>
</mgrwt>
</event>
<event>
 6    1  0.1001928E-005  0.1986682E+04  0.7818608E-02  0.8612873E-01
         -2   -1    0    0    0  501 -0.00000000000E+00  0.00000000000E+00  0.87192266981E+03  0.87192266981E+03  0.00000000000E+00 0.  1.
          2   -1    0    0  501    0  0.00000000000E+00 -0.00000000000E+00 -0.11316676738E+04  0.11316676738E+04  0.00000000000E+00 0. -1.
         23    2    1    2    0    0  0.92586712654E+03 -0.34937258168E+03 -0.17691132938E+03  0.10105382027E+04  0.10295000652E+03 0.  0.
         11    1    3    3    0    0  0.72780468202E+03 -0.28131513104E+03 -0.96596742005E+02  0.78623710717E+03  0.00000000000E+00 0.  1.
        -11    1    3    3    0    0  0.19806244452E+03 -0.68057450635E+02 -0.80314587380E+02  0.22430109555E+03  0.00000000000E+00 0. -1.
         22    1    1    2    0    0 -0.92586712654E+03  0.34937258168E+03 -0.82833674574E+02  0.99305214087E+03  0.00000000000E+00 0. -1.
<mgrwt>
<rscale>  0 0.19866824E+04</rscale>
<asrwt>0</asrwt>
<pdfrwt beam="1">  1        2 0.17410272E+00 0.19866824E+04</pdfrwt>
<pdfrwt beam="2">  1       -2 0.13414195E+00 0.19866824E+04</pdfrwt>
<totfact> 0.77697558E+00</totfact>
</mgrwt>
</event>
<event>
 6    1  0.1001928E-005  0.1911280E+04  0.7818608E-02  0.8649262E-01
          1   -1    0    0  501    0  0.00000000000E+00  0.00000000000E+00  0.20729395536E+04  0.20729395536E+04  0.00000000000E+00 0. -1.
         -1   -1    0    0    0  501 -0.00000000000E+00 -0.00000000000E+00 -0.44055677046E+03  0.44055677046E+03  0.00000000000E+00 0.  1.
         23    2    1    2    0    0  0.80180799505E+03 -0.29419244638E+03  0.13752310959E+04  0.16215477567E+04  0.93334365834E+02 0.  0.
         13    1    3    3    0    0  0.72588997825E+03 -0.23532205460E+03  0.12239347595E+04  0.14423276415E+04  0.00000000000E+00 0. -1.
        -13    1    3    3    0    0  0.75918016794E+02 -0.58870391775E+02  0.15129633641E+03  0.17922011526E+03  0.00000000000E+00 0.  1.
         22    1    1    2    0    0 -0.80180799505E+03  0.29419244638E+03  0.25715168720E+03  0.89194856727E+03  0.00000000000E+00 0.  1.
<mgrwt>
<rscale>  0 0.19112797E+04</rscale>
<asrwt>0</asrwt>
<pdfrwt beam="1">  1        1 0.31891377E+00 0.19112797E+04</pdfrwt>
<pdfrwt beam="2">  1       -1 0.67777966E-01 0.19112797E+04</pdfrwt>
<totfact> 0.54781244E+00</totfact>
</mgrwt>
</event>
<event>
 6    1  0.1001928E-005  0.1233630E+04  0.7818608E-02  0.9083919E-01
         -3   -1    0    0    0  501 -0.00000000000E+00  0.00000000000E+00  0.99446401282E+02  0.99446401282E+02  0.00000000000E+00 0.  1.
          3   -1    0    0  501    0  0.00000000000E+00 -0.00000000000E+00 -0.38257840876E+04  0.38257840876E+04  0.00000000000E+00 0. -1.
         23    2    1    2    0    0  0.47204988591E+03  0.37943549895E+03 -0.15674991717E+04  0.16830471500E+04  0.93763870541E+02 0.  0.
         11    1    3    3    0    0  0.40297287931E+03  0.31369741109E+03 -0.12169069556E+04  0.13197180554E+04  0.00000000000E+00 0. -1.
        -11    1    3    3    0    0  0.69077006593E+02  0.65738087868E+02 -0.35059221606E+03  0.36332909462E+03  0.00000000000E+00 0.  1.
         22    1    1    2    0    0 -0.47204988591E+03 -0.37943549895E+03 -0.21588385147E+04  0.22421833388E+04  0.00000000000E+00 0. -1.
<mgrwt>
<rscale>  0 0.12336295E+04</rscale>
<asrwt>0</asrwt>
<pdfrwt beam="1">  1        3 0.58858206E+00 0.12336295E+04</pdfrwt>
<pdfrwt beam="2">  1       -3 0.15299449E-01 0.12336295E+04</pdfrwt>
<totfact> 0.12654128E-01</totfact>
</mgrwt>
</event>
<event>
 6    1  0.1001928E-005  0.1292846E+04  0.7818608E-02  0.9035258E-01
         -2   -1    0    0    0  501 -0.00000000000E+00  0.00000000000E+00  0.13426617563E+03  0.13426617563E+03  0.00000000000E+00 0.  1.
          2   -1    0    0  501    0  0.00000000000E+00 -0.00000000000E+00 -0.31121943876E+04  0.31121943876E+04  0.00000000000E+00 0. -1.
         23    2    1    2    0    0  0.31689825430E+03 -0.36665483079E+02 -0.28988500632E+04  0.29177932317E+04  0.91743080568E+02 0.  0.
         11    1    3    3    0    0  0.28465926693E+03 -0.51590629940E+02 -0.23400166433E+04  0.23578317121E+04  0.00000000000E+00 0.  1.
        -11    1    3    3    0    0  0.32238987374E+02  0.14925146861E+02 -0.55883341981E+03  0.55996151959E+03  0.00000000000E+00 0. -1.
         22    1    1    2    0    0 -0.31689825430E+03  0.36665483079E+02 -0.79078148840E+02  0.32866733159E+03  0.00000000000E+00 0.  1.
<mgrwt>
<rscale>  0 0.12928456E+04</rscale>
<asrwt>0</asrwt>
<pdfrwt beam="1">  1        2 0.47879908E+00 0.12928456E+04</pdfrwt>
<pdfrwt beam="2">  1       -2 0.20656337E-01 0.12928456E+04</pdfrwt>
<totfact> 0.29665295E+01</totfact>
</mgrwt>
</event>
<event>
 6    1  0.1262065E-005  0.2659269E+04  0.7818608E-02  0.8348343E-01
         -2   -1    0    0    0  501 -0.00000000000E+00  0.00000000000E+00  0.96096860364E+03  0.96096860364E+03  0.00000000000E+00 0.  1.
          2   -1    0    0  501    0  0.00000000000E+00 -0.00000000000E+00 -0.18397358893E+04  0.18397358893E+04  0.00000000000E+00 0. -1.
         23    2    1    2    0    0 -0.54876149444E+03 -0.10940870852E+03 -0.17084118534E+04  0.17999949687E+04  0.90561489143E+02 0.  0.
         11    1    3    3    0    0 -0.25539932372E+03 -0.53549278447E+01 -0.78839944431E+03  0.82875278196E+03  0.00000000000E+00 0. -1.
        -11    1    3    3    0    0 -0.29336217072E+03 -0.10405378067E+03 -0.92001240906E+03  0.97124218674E+03  0.00000000000E+00 0.  1.
         22    1    1    2    0    0  0.54876149444E+03  0.10940870852E+03  0.82964456768E+03  0.10007095243E+04  0.00000000000E+00 0.  1.
<mgrwt>
<rscale>  0 0.26592694E+04</rscale>
<asrwt>0</asrwt>
<pdfrwt beam="1">  1        2 0.28303629E+00 0.26592694E+04</pdfrwt>
<pdfrwt beam="2">  1       -2 0.14784132E+00 0.26592694E+04</pdfrwt>
<totfact> 0.22479532E+00</totfact>
</mgrwt>
</event>
<event>
 6    1  0.1001928E-005  0.2540371E+04  0.7818608E-02  0.8388743E-01
          1   -1    0    0  501    0  0.00000000000E+00  0.00000000000E+00  0.29199431030E+04  0.29199431030E+04  0.00000000000E+00 0. -1.
         -1   -1    0    0    0  501 -0.00000000000E+00 -0.00000000000E+00 -0.55253518281E+03  0.55253518281E+03  0.00000000000E+00 0.  1.
         23    2    1    2    0    0 -0.62235888259E+03 -0.10168446250E+04  0.59251492554E+03  0.13343602553E+04  0.90220750468E+02 0.  0.
         11    1    3    3    0    0 -0.47229106416E+03 -0.74632669734E+03  0.39646905047E+03  0.96811677830E+03  0.00000000000E+00 0. -1.
        -11    1    3    3    0    0 -0.15006781843E+03 -0.27051792763E+03  0.19604587507E+03  0.36624347698E+03  0.00000000000E+00 0.  1.
         22    1    1    2    0    0  0.62235888259E+03  0.10168446250E+04  0.17748929947E+04  0.21381180305E+04  0.00000000000E+00 0.  1.
<mgrwt>
<rscale>  0 0.25403711E+04</rscale>
<asrwt>0</asrwt>
<pdfrwt beam="1">  1        1 0.44922201E+00 0.25403711E+04</pdfrwt>
<pdfrwt beam="2">  1       -1 0.85005414E-01 0.25403711E+04</pdfrwt>
<totfact> 0.82808877E-01</totfact>
</mgrwt>
</event>
<event>
 6    1  0.1001928E-005  0.3579919E+04  0.7818608E-02  0.8095107E-01
         -1   -1    0    0    0  501 -0.00000000000E+00  0.00000000000E+00  0.19765282331E+04  0.19765282331E+04  0.00000000000E+00 0.  1.
          1   -1    0    0  501    0  0.00000000000E+00 -0.00000000000E+00 -0.16210012149E+04  0.16210012149E+04  0.00000000000E+00 0. -1.
         23    2    1    2    0    0 -0.11852088398E+04  0.60459529337E+03 -0.10235556358E+04  0.16812506506E+04  0.93178043057E+02 0.  0.
         13    1    3    3    0    0 -0.30091522829E+03  0.13671726513E+03 -0.30241133332E+03  0.44798906206E+03  0.00000000000E+00 0. -1.
        -13    1    3    3    0    0 -0.88429361152E+03  0.46787802824E+03 -0.72114430249E+03  0.12332615885E+04  0.00000000000E+00 0.  1.
         22    1    1    2    0    0  0.11852088398E+04 -0.60459529337E+03  0.13790826540E+04  0.19162787974E+04  0.00000000000E+00 0.  1.
<mgrwt>
<rscale>  0 0.35799188E+04</rscale>
<asrwt>0</asrwt>
<pdfrwt beam="1">  1        1 0.24938480E+00 0.35799188E+04</pdfrwt>
<pdfrwt beam="2">  1       -1 0.30408127E+00 0.35799188E+04</pdfrwt>
<totfact> 0.13590050E-01</totfact>
</mgrwt>
</event>
<event>
 6    1  0.1001928E-005  0.4919868E+04  0.7818608E-02  0.7840989E-01
          1   -1    0    0  501    0  0.00000000000E+00  0.00000000000E+00  0.35357663061E+04  0.35357663061E+04  0.00000000000E+00 0. -1.
         -1   -1    0    0    0  501 -0.00000000000E+00 -0.00000000000E+00 -0.17114463362E+04  0.17114463362E+04  0.00000000000E+00 0.  1.
         23    2    1    2    0    0  0.20066529492E+04  0.10756873378E+04  0.19034777999E+04  0.29690499463E+04  0.90942517531E+02 0.  0.
         13    1    3    3    0    0  0.12503482491E+04  0.70865097477E+03  0.12372410883E+04  0.18963972312E+04  0.00000000000E+00 0.  1.
        -13    1    3    3    0    0  0.75630470015E+03  0.36703636299E+03  0.66623671168E+03  0.10726527151E+04  0.00000000000E+00 0. -1.
         22    1    1    2    0    0 -0.20066529492E+04 -0.10756873378E+04 -0.79157829978E+02  0.22781626960E+04  0.00000000000E+00 0.  1.
<mgrwt>
<rscale>  0 0.49198676E+04</rscale>
<asrwt>0</asrwt>
<pdfrwt beam="1">  1        1 0.54396405E+00 0.49198676E+04</pdfrwt>
<pdfrwt beam="2">  1       -1 0.26329944E+00 0.49198676E+04</pdfrwt>
<totfact> 0.97022082E-03</totfact>
</mgrwt>
</event>
<event>
 6    1  0.1001928E-005  0.2980800E+04  0.7818608E-02  0.8249235E-01
         -2   -1    0    0    0  501 -0.00000000000E+00  0.00000000000E+00  0.87031868930E+03  0.87031868930E+03  0.00000000000E+00 0.  1.
          2   -1    0    0  501    0  0.00000000000E+00 -0.00000000000E+00 -0.25522738954E+04  0.25522738954E+04  0.00000000000E+00 0. -1.
         23    2    1    2    0    0 -0.24605001171E+03 -0.12336815832E+04 -0.17565278140E+04  0.21624053245E+04  0.89977601790E+02 0.  0.
         13    1    3    3    0    0 -0.23812881757E+03 -0.10309561397E+04 -0.14882995859E+04  0.18260918797E+04  0.00000000000E+00 0.  1.
        -13    1    3    3    0    0 -0.79211941412E+01 -0.20272544353E+03 -0.26822822816E+03  0.33631344480E+03  0.00000000000E+00 0. -1.
         22    1    1    2    0    0  0.24605001171E+03  0.12336815832E+04  0.74572607937E+02  0.12601872602E+04  0.00000000000E+00 0.  1.
<mgrwt>
<rscale>  0 0.29807997E+04</rscale>
<asrwt>0</asrwt>
<pdfrwt beam="1">  1        2 0.39265752E+00 0.29807997E+04</pdfrwt>
<pdfrwt beam="2">  1       -2 0.13389518E+00 0.29807997E+04</pdfrwt>
<totfact> 0.11208078E+00</totfact>
</mgrwt>
</event>
<event>
 6    1  0.1001928E-005  0.1767199E+04  0.7818608E-02  0.8723940E-01
          2   -1    0    0  501    0  0.00000000000E+00  0.00000000000E+00  0.17987111056E+04  0.17987111056E+04  0.00000000000E+00 0. -1.
         -2   -1    0    0    0  501 -0.00000000000E+00 -0.00000000000E+00 -0.43405991613E+03  0.43405991613E+03  0.00000000000E+00 0.  1.
         23    2    1    2    0    0 -0.74461872093E+02  0.79767846454E+03  0.11478186965E+04  0.14028000384E+04  0.92329218403E+02 0.  0.
         11    1    3    3    0    0 -0.12546291687E+02  0.39642607256E+03  0.63548105759E+03  0.74909760045E+03  0.00000000000E+00 0.  1.
        -11    1    3    3    0    0 -0.61915580405E+02  0.40125239197E+03  0.51233763887E+03  0.65370243794E+03  0.00000000000E+00 0. -1.
         22    1    1    2    0    0  0.74461872093E+02 -0.79767846454E+03  0.21683249302E+03  0.82997098335E+03  0.00000000000E+00 0.  1.
<mgrwt>
<rscale>  0 0.17671994E+04</rscale>
<asrwt>0</asrwt>
<pdfrwt beam="1">  1        2 0.27672478E+00 0.17671994E+04</pdfrwt>
<pdfrwt beam="2">  1       -2 0.66778450E-01 0.17671994E+04</pdfrwt>
<totfact> 0.16847478E+01</totfact>
</mgrwt>
</event>
<event>
 6    1  0.1001928E-005  0.4239246E+04  0.7818608E-02  0.7957948E-01
          1   -1    0    0  501    0  0.00000000000E+00  0.00000000000E+00  0.29497623806E+04  0.29497623806E+04  0.00000000000E+00 0. -1.
         -1   -1    0    0    0  501 -0.00000000000E+00 -0.00000000000E+00 -0.15231065789E+04  0.15231065789E+04  0.00000000000E+00 0.  1.
         23    2    1    2    0    0  0.15239936800E+04 -0.99910007929E+03 -0.42655840884E+03  0.18737997771E+04  0.91737796745E+02 0.  0.
         11    1    3    3    0    0  0.88526324542E+03 -0.58527406234E+03 -0.20205073174E+03  0.10803060862E+04  0.00000000000E+00 0.  1.
        -11    1    3    3    0    0  0.63873043457E+03 -0.41382601694E+03 -0.22450767710E+03  0.79349369085E+03  0.00000000000E+00 0. -1.
         22    1    1    2    0    0 -0.15239936800E+04  0.99910007929E+03  0.18532142105E+04  0.25990691825E+04  0.00000000000E+00 0. -1.
<mgrwt>
<rscale>  0 0.42392464E+04</rscale>
<asrwt>0</asrwt>
<pdfrwt beam="1">  1        1 0.45380960E+00 0.42392464E+04</pdfrwt>
<pdfrwt beam="2">  1       -1 0.23432409E+00 0.42392464E+04</pdfrwt>
<totfact> 0.44090690E-02</totfact>
</mgrwt>
</event>
<event>
 6    1  0.1001928E-005  0.1508899E+04  0.7818608E-02  0.8878557E-01
         -2   -1    0    0    0  501 -0.00000000000E+00  0.00000000000E+00  0.11492162727E+04  0.11492162727E+04  0.00000000000E+00 0.  1.
          2   -1    0    0  501    0  0.00000000000E+00 -0.00000000000E+00 -0.49528856786E+03  0.49528856786E+03  0.00000000000E+00 0. -1.
         23    2    1    2    0    0 -0.13623560044E+03  0.41829009642E+03  0.99044197823E+03  0.10906378892E+04  0.12242936506E+03 0.  0.
         13    1    3    3    0    0 -0.72799371288E+02  0.21092085611E+03  0.35588333686E+03  0.42004797994E+03  0.00000000000E+00 0.  1.
        -13    1    3    3    0    0 -0.63436229150E+02  0.20736924031E+03  0.63455864137E+03  0.67058990921E+03  0.00000000000E+00 0. -1.
         22    1    1    2    0    0  0.13623560044E+03 -0.41829009642E+03 -0.33651427343E+03  0.55386695136E+03  0.00000000000E+00 0. -1.
<mgrwt>
<rscale>  0 0.15088985E+04</rscale>
<asrwt>0</asrwt>
<pdfrwt beam="1">  1        2 0.76198241E-01 0.15088985E+04</pdfrwt>
<pdfrwt beam="2">  1       -2 0.17680250E+00 0.15088985E+04</pdfrwt>
<totfact> 0.11460730E+01</totfact>
</mgrwt>
</event>
<event>
 6    1  0.1037346E-005  0.2796564E+04  0.7818608E-02  0.8304336E-01
         -2   -1    0    0    0  501 -0.00000000000E+00  0.00000000000E+00  0.19790284798E+04  0.19790284798E+04  0.00000000000E+00 0.  1.
          2   -1    0    0  501    0  0.00000000000E+00 -0.00000000000E+00 -0.98795557703E+03  0.98795557703E+03  0.00000000000E+00 0. -1.
         23    2    1    2    0    0 -0.51412792177E+03 -0.74223471981E+03 -0.63458575672E+03  0.11074126072E+04  0.91780720390E+02 0.  0.
         11    1    3    3    0    0 -0.34753134206E+03 -0.53758516090E+03 -0.40388758767E+03  0.75690225420E+03  0.00000000000E+00 0. -1.
        -11    1    3    3    0    0 -0.16659657971E+03 -0.20464955891E+03 -0.23069816905E+03  0.35051035296E+03  0.00000000000E+00 0.  1.
         22    1    1    2    0    0  0.51412792177E+03  0.74223471981E+03  0.16256586595E+04  0.18595714497E+04  0.00000000000E+00 0.  1.
<mgrwt>
<rscale>  0 0.27965638E+04</rscale>
<asrwt>0</asrwt>
<pdfrwt beam="1">  1        2 0.15199317E+00 0.27965638E+04</pdfrwt>
<pdfrwt beam="2">  1       -2 0.30446592E+00 0.27965638E+04</pdfrwt>
<totfact> 0.66607061E-01</totfact>
</mgrwt>
</event>
<event>
 6    1  0.1001928E-005  0.1873821E+04  0.7818608E-02  0.8667998E-01
          1   -1    0    0  501    0  0.00000000000E+00  0.00000000000E+00  0.71762140205E+03  0.71762140205E+03  0.00000000000E+00 0. -1.
         -1   -1    0    0    0  501 -0.00000000000E+00 -0.00000000000E+00 -0.12232089419E+04  0.12232089419E+04  0.00000000000E+00 0.  1.
         23    2    1    2    0    0  0.73491454501E+03  0.51837906758E+03 -0.51697797445E+03  0.10414160967E+04  0.92005511679E+02 0.  0.
         11    1    3    3    0    0  0.43271197099E+03  0.32041724077E+03 -0.35885770062E+03  0.64705927651E+03  0.00000000000E+00 0. -1.
        -11    1    3    3    0    0  0.30220257402E+03  0.19796182681E+03 -0.15812027383E+03  0.39435682017E+03  0.00000000000E+00 0.  1.
         22    1    1    2    0    0 -0.73491454501E+03 -0.51837906758E+03  0.11390434600E+02  0.89941424726E+03  0.00000000000E+00 0. -1.
<mgrwt>
<rscale>  0 0.18738206E+04</rscale>
<asrwt>0</asrwt>
<pdfrwt beam="1">  1        1 0.11040329E+00 0.18738206E+04</pdfrwt>
<pdfrwt beam="2">  1       -1 0.18818599E+00 0.18738206E+04</pdfrwt>
<totfact> 0.44747184E+00</totfact>
</mgrwt>
</event>
<event>
 6    1  0.1001928E-005  0.2196587E+04  0.7818608E-02  0.8519850E-01
         -2   -1    0    0    0  501 -0.00000000000E+00  0.00000000000E+00  0.71685052246E+03  0.71685052246E+03  0.00000000000E+00 0.  1.
          2   -1    0    0  501    0  0.00000000000E+00 -0.00000000000E+00 -0.16827060156E+04  0.16827060156E+04  0.00000000000E+00 0. -1.
         23    2    1    2    0    0  0.10768653801E+04 -0.43762536979E+01 -0.25909250901E+03  0.11114679875E+04  0.92595682681E+02 0.  0.
         11    1    3    3    0    0  0.36957426472E+03  0.37671949071E+02 -0.68631693810E+02  0.37777588897E+03  0.00000000000E+00 0.  1.
        -11    1    3    3    0    0  0.70729111539E+03 -0.42048202769E+02 -0.19046081520E+03  0.73369209849E+03  0.00000000000E+00 0. -1.
         22    1    1    2    0    0 -0.10768653801E+04  0.43762536979E+01 -0.70676298416E+03  0.12880885506E+04  0.00000000000E+00 0. -1.
<mgrwt>
<rscale>  0 0.21965871E+04</rscale>
<asrwt>0</asrwt>
<pdfrwt beam="1">  1        2 0.25887785E+00 0.21965871E+04</pdfrwt>
<pdfrwt beam="2">  1       -2 0.11028470E+00 0.21965871E+04</pdfrwt>
<totfact> 0.59861121E+00</totfact>
</mgrwt>
</event>
<event>
 6    1  0.1001928E-005  0.1280515E+04  0.7818608E-02  0.9045161E-01
         -2   -1    0    0    0  501 -0.00000000000E+00  0.00000000000E+00  0.28315883238E+03  0.28315883238E+03  0.00000000000E+00 0.  1.
          2   -1    0    0  501    0  0.00000000000E+00 -0.00000000000E+00 -0.14477020206E+04  0.14477020206E+04  0.00000000000E+00 0. -1.
         23    2    1    2    0    0  0.39260788541E+02  0.13593509062E+03 -0.14248272288E+04  0.14346049836E+04  0.89101451950E+02 0.  0.
         11    1    3    3    0    0 -0.20619905125E+02  0.83408154615E+02 -0.83886075518E+03  0.84324935063E+03  0.00000000000E+00 0. -1.
        -11    1    3    3    0    0  0.59880693667E+02  0.52526936007E+02 -0.58596647359E+03  0.59135563297E+03  0.00000000000E+00 0.  1.
         22    1    1    2    0    0 -0.39260788541E+02 -0.13593509062E+03  0.26028404054E+03  0.29625586938E+03  0.00000000000E+00 0.  1.
<mgrwt>
<rscale>  0 0.12805149E+04</rscale>
<asrwt>0</asrwt>
<pdfrwt beam="1">  1        2 0.22272338E+00 0.12805149E+04</pdfrwt>
<pdfrwt beam="2">  1       -2 0.43562898E-01 0.12805149E+04</pdfrwt>
<totfact> 0.66625303E+01</totfact>
</mgrwt>
</event>
<event>
 6    1  0.1001928E-005  0.1926165E+04  0.7818608E-02  0.8641941E-01
         -2   -1    0    0    0  501 -0.00000000000E+00  0.00000000000E+00  0.67258480377E+03  0.67258480377E+03  0.00000000000E+00 0. -1.
          2   -1    0    0  501    0  0.00000000000E+00 -0.00000000000E+00 -0.13790493154E+04  0.13790493154E+04  0.00000000000E+00 0.  1.
         23    2    1    2    0    0  0.37173223252E+03  0.30031202236E+01 -0.12978410260E+04  0.13531213754E+04  0.91390680485E+02 0.  0.
         13    1    3    3    0    0  0.18924122784E+03  0.35914096191E+02 -0.76728348908E+03  0.79109166172E+03  0.00000000000E+00 0. -1.
        -13    1    3    3    0    0  0.18249100468E+03 -0.32910975968E+02 -0.53055753692E+03  0.56202971373E+03  0.00000000000E+00 0.  1.
         22    1    1    2    0    0 -0.37173223252E+03 -0.30031202236E+01  0.59137651436E+03  0.69851274373E+03  0.00000000000E+00 0. -1.
<mgrwt>
<rscale>  0 0.19261647E+04</rscale>
<asrwt>0</asrwt>
<pdfrwt beam="1">  1        2 0.21216143E+00 0.19261647E+04</pdfrwt>
<pdfrwt beam="2">  1       -2 0.10347459E+00 0.19261647E+04</pdfrwt>
<totfact> 0.10587468E+01</totfact>
</mgrwt>
</event>
<event>
 6    1  0.1001928E-005  0.1245402E+04  0.7818608E-02  0.9074019E-01
          4   -1    0    0  501    0  0.00000000000E+00  0.00000000000E+00  0.17289993152E+03  0.17289993152E+03  0.00000000000E+00 0.  1.
         -4   -1    0    0    0  501 -0.00000000000E+00 -0.00000000000E+00 -0.22426641662E+04  0.22426641662E+04  0.00000000000E+00 0. -1.
         23    2    1    2    0    0 -0.37302565801E+02 -0.61409332858E+03 -0.92078696056E+03  0.11122410856E+04  0.10358333863E+03 0.  0.
         11    1    3    3    0    0 -0.26775760368E+02 -0.26670531663E+03 -0.49212990997E+03  0.56039317943E+03  0.00000000000E+00 0. -1.
        -11    1    3    3    0    0 -0.10526805433E+02 -0.34738801195E+03 -0.42865705059E+03  0.55184790613E+03  0.00000000000E+00 0.  1.
         22    1    1    2    0    0  0.37302565801E+02  0.61409332858E+03 -0.11489772742E+04  0.13033230122E+04  0.00000000000E+00 0. -1.
<mgrwt>
<rscale>  0 0.12454019E+04</rscale>
<asrwt>0</asrwt>
<pdfrwt beam="1">  1        4 0.26599991E-01 0.12454019E+04</pdfrwt>
<pdfrwt beam="2">  1       -4 0.34502523E+00 0.12454019E+04</pdfrwt>
<totfact> 0.43326689E-01</totfact>
</mgrwt>
</event>
<event>
 6    1  0.1001928E-005  0.3482807E+04  0.7818608E-02  0.8117877E-01
         -2   -1    0    0    0  501 -0.00000000000E+00  0.00000000000E+00  0.94987106790E+03  0.94987106790E+03  0.00000000000E+00 0.  1.
          2   -1    0    0  501    0  0.00000000000E+00 -0.00000000000E+00 -0.31925231215E+04  0.31925231215E+04  0.00000000000E+00 0. -1.
         23    2    1    2    0    0 -0.85253823525E+03  0.15092627728E+04 -0.93815933506E+03  0.19729710374E+04  0.88182858318E+02 0.  0.
         13    1    3    3    0    0 -0.66637821279E+03  0.11386294652E+04 -0.74940013508E+03  0.15172796525E+04  0.00000000000E+00 0.  1.
        -13    1    3    3    0    0 -0.18616002246E+03  0.37063330762E+03 -0.18875919998E+03  0.45569138488E+03  0.00000000000E+00 0. -1.
         22    1    1    2    0    0  0.85253823525E+03 -0.15092627728E+04 -0.13044927186E+04  0.21694231521E+04  0.00000000000E+00 0.  1.
<mgrwt>
<rscale>  0 0.34828065E+04</rscale>
<asrwt>0</asrwt>
<pdfrwt beam="1">  1        2 0.49115739E+00 0.34828065E+04</pdfrwt>
<pdfrwt beam="2">  1       -2 0.14613401E+00 0.34828065E+04</pdfrwt>
<totfact> 0.34607333E-01</totfact>
</mgrwt>
</event>
<event>
 6    1  0.1001928E-005  0.2719780E+04  0.7818608E-02  0.8328615E-01
          1   -1    0    0  501    0  0.00000000000E+00  0.00000000000E+00  0.14140997481E+04  0.14140997481E+04  0.00000000000E+00 0. -1.
         -1   -1    0    0    0  501 -0.00000000000E+00 -0.00000000000E+00 -0.13077583765E+04  0.13077583765E+04  0.00000000000E+00 0.  1.
         23    2    1    2    0    0  0.53226891582E+03 -0.37473529647E+03  0.12455007609E+04  0.14098288356E+04  0.11228739517E+03 0.  0.
         13    1    3    3    0    0  0.25704045598E+03 -0.16355116777E+03  0.69911308118E+03  0.76261253646E+03  0.00000000000E+00 0. -1.
        -13    1    3    3    0    0  0.27522845984E+03 -0.21118412870E+03  0.54638767973E+03  0.64721629915E+03  0.00000000000E+00 0.  1.
         22    1    1    2    0    0 -0.53226891582E+03  0.37473529647E+03 -0.11391593892E+04  0.13120292890E+04  0.00000000000E+00 0.  1.
<mgrwt>
<rscale>  0 0.27197800E+04</rscale>
<asrwt>0</asrwt>
<pdfrwt beam="1">  1        1 0.21755381E+00 0.27197800E+04</pdfrwt>
<pdfrwt beam="2">  1       -1 0.20119360E+00 0.27197800E+04</pdfrwt>
<totfact> 0.96674321E-01</totfact>
</mgrwt>
</event>
<event>
 6    1  0.1001928E-005  0.1710613E+04  0.7818608E-02  0.8755335E-01
         -2   -1    0    0    0  501 -0.00000000000E+00  0.00000000000E+00  0.10157427644E+04  0.10157427644E+04  0.00000000000E+00 0.  1.
          2   -1    0    0  501    0  0.00000000000E+00 -0.00000000000E+00 -0.72021095750E+03  0.72021095750E+03  0.00000000000E+00 0. -1.
         23    2    1    2    0    0  0.24114686526E+03  0.77084494852E+03  0.42554777496E+03  0.91787188172E+03  0.95100668732E+02 0.  0.
         11    1    3    3    0    0  0.19117575046E+03  0.47527586546E+03  0.29250569525E+03  0.58991092345E+03  0.00000000000E+00 0.  1.
        -11    1    3    3    0    0  0.49971114805E+02  0.29556908306E+03  0.13304207971E+03  0.32796095827E+03  0.00000000000E+00 0. -1.
         22    1    1    2    0    0 -0.24114686526E+03 -0.77084494852E+03 -0.13001596806E+03  0.81808184018E+03  0.00000000000E+00 0. -1.
<mgrwt>
<rscale>  0 0.17106128E+04</rscale>
<asrwt>0</asrwt>
<pdfrwt beam="1">  1        2 0.11080169E+00 0.17106128E+04</pdfrwt>
<pdfrwt beam="2">  1       -2 0.15626812E+00 0.17106128E+04</pdfrwt>
<totfact> 0.10083079E+01</totfact>
</mgrwt>
</event>
<event>
 6    1  0.1001928E-005  0.2287378E+04  0.7818608E-02  0.8482914E-01
         -1   -1    0    0    0  501 -0.00000000000E+00  0.00000000000E+00  0.96127755368E+03  0.96127755368E+03  0.00000000000E+00 0.  1.
          1   -1    0    0  501    0  0.00000000000E+00 -0.00000000000E+00 -0.13607148683E+04  0.13607148683E+04  0.00000000000E+00 0. -1.
         23    2    1    2    0    0  0.72870935048E+03  0.24469817137E+03 -0.10572729025E+04  0.13102403906E+04  0.89495129800E+02 0.  0.
         13    1    3    3    0    0  0.18645488568E+03  0.26043552758E+02 -0.28597206916E+03  0.34237949029E+03  0.00000000000E+00 0.  1.
        -13    1    3    3    0    0  0.54225446480E+03  0.21865461861E+03 -0.77130083332E+03  0.96786090029E+03  0.00000000000E+00 0. -1.
         22    1    1    2    0    0 -0.72870935048E+03 -0.24469817137E+03  0.65783558781E+03  0.10117520314E+04  0.00000000000E+00 0.  1.
<mgrwt>
<rscale>  0 0.22873781E+04</rscale>
<asrwt>0</asrwt>
<pdfrwt beam="1">  1        1 0.20934075E+00 0.22873781E+04</pdfrwt>
<pdfrwt beam="2">  1       -1 0.14788885E+00 0.22873781E+04</pdfrwt>
<totfact> 0.26860748E+00</totfact>
</mgrwt>
</event>
<event>
 6    1  0.1001928E-005  0.2216250E+04  0.7818608E-02  0.8511695E-01
         -1   -1    0    0    0  501 -0.00000000000E+00  0.00000000000E+00  0.11109269635E+04  0.11109269635E+04  0.00000000000E+00 0.  1.
          1   -1    0    0  501    0  0.00000000000E+00 -0.00000000000E+00 -0.11053298430E+04  0.11053298430E+04  0.00000000000E+00 0. -1.
         23    2    1    2    0    0  0.29558093872E+03  0.10397341851E+04 -0.23247424658E+03  0.11094175034E+04  0.91365499531E+02 0.  0.
         11    1    3    3    0    0  0.25939954896E+03  0.80642073385E+03 -0.15695823603E+03  0.86153259592E+03  0.00000000000E+00 0. -1.
        -11    1    3    3    0    0  0.36181389761E+02  0.23331345123E+03 -0.75516010556E+02  0.24788490744E+03  0.00000000000E+00 0.  1.
         22    1    1    2    0    0 -0.29558093872E+03 -0.10397341851E+04  0.23807136709E+03  0.11068393030E+04  0.00000000000E+00 0.  1.
<mgrwt>
<rscale>  0 0.22162497E+04</rscale>
<asrwt>0</asrwt>
<pdfrwt beam="1">  1        1 0.17005075E+00 0.22162497E+04</pdfrwt>
<pdfrwt beam="2">  1       -1 0.17091184E+00 0.22162497E+04</pdfrwt>
<totfact> 0.27712479E+00</totfact>
</mgrwt>
</event>
<event>
 6    1  0.1001928E-005  0.3965426E+04  0.7818608E-02  0.8011558E-01
          2   -1    0    0  501    0  0.00000000000E+00  0.00000000000E+00  0.28113356469E+04  0.28113356469E+04  0.00000000000E+00 0. -1.
         -2   -1    0    0    0  501 -0.00000000000E+00 -0.00000000000E+00 -0.13983211740E+04  0.13983211740E+04  0.00000000000E+00 0.  1.
         23    2    1    2    0    0  0.65062414094E+03  0.82590793867E+03  0.24900861238E+04  0.27044926979E+04  0.91192944965E+02 0.  0.
         13    1    3    3    0    0  0.48734032039E+03  0.65625603797E+03  0.18529922807E+04  0.20252784913E+04  0.00000000000E+00 0. -1.
        -13    1    3    3    0    0  0.16328382056E+03  0.16965190070E+03  0.63709384317E+03  0.67921420662E+03  0.00000000000E+00 0.  1.
         22    1    1    2    0    0 -0.65062414094E+03 -0.82590793867E+03 -0.10770716510E+04  0.15051641230E+04  0.00000000000E+00 0.  1.
<mgrwt>
<rscale>  0 0.39654257E+04</rscale>
<asrwt>0</asrwt>
<pdfrwt beam="1">  1        2 0.43251317E+00 0.39654257E+04</pdfrwt>
<pdfrwt beam="2">  1       -2 0.21512634E+00 0.39654257E+04</pdfrwt>
<totfact> 0.19108101E-01</totfact>
</mgrwt>
</event>
<event>
 6    1  0.1001928E-005  0.1816909E+04  0.7818608E-02  0.8697359E-01
          2   -1    0    0  501    0  0.00000000000E+00  0.00000000000E+00  0.45459148014E+03  0.45459148014E+03  0.00000000000E+00 0. -1.
         -2   -1    0    0    0  501 -0.00000000000E+00 -0.00000000000E+00 -0.18154540815E+04  0.18154540815E+04  0.00000000000E+00 0.  1.
         23    2    1    2    0    0  0.11378920278E+03 -0.88371004733E+03 -0.88820818954E+03  0.12614358138E+04  0.91733821097E+02 0.  0.
         13    1    3    3    0    0  0.19816043292E+02 -0.46409751096E+03 -0.49365294811E+03  0.67784394106E+03  0.00000000000E+00 0. -1.
        -13    1    3    3    0    0  0.93973159484E+02 -0.41961253637E+03 -0.39455524142E+03  0.58359187273E+03  0.00000000000E+00 0.  1.
         22    1    1    2    0    0 -0.11378920278E+03  0.88371004733E+03 -0.47265441178E+03  0.10086097478E+04  0.00000000000E+00 0. -1.
<mgrwt>
<rscale>  0 0.18169094E+04</rscale>
<asrwt>0</asrwt>
<pdfrwt beam="1">  1        2 0.69937151E-01 0.18169094E+04</pdfrwt>
<pdfrwt beam="2">  1       -2 0.27930063E+00 0.18169094E+04</pdfrwt>
<totfact> 0.27586186E+00</totfact>
</mgrwt>
</event>
<event>
 6    1  0.1001928E-005  0.2180892E+04  0.7818608E-02  0.8526423E-01
         -2   -1    0    0    0  501 -0.00000000000E+00  0.00000000000E+00  0.12131977699E+04  0.12131977699E+04  0.00000000000E+00 0. -1.
          2   -1    0    0  501    0  0.00000000000E+00 -0.00000000000E+00 -0.98011464838E+03  0.98011464838E+03  0.00000000000E+00 0.  1.
         23    2    1    2    0    0 -0.29580537972E+03  0.80779062087E+03  0.78672258528E+03  0.11703054947E+04  0.10322797502E+03 0.  0.
         11    1    3    3    0    0 -0.26367687834E+03  0.75594911765E+03  0.75937452645E+03  0.11034646510E+04  0.00000000000E+00 0. -1.
        -11    1    3    3    0    0 -0.32128501374E+02  0.51841503219E+02  0.27348058827E+02  0.66840843637E+02  0.00000000000E+00 0.  1.
         22    1    1    2    0    0  0.29580537972E+03 -0.80779062087E+03 -0.55363946379E+03  0.10230069236E+04  0.00000000000E+00 0.  1.
<mgrwt>
<rscale>  0 0.21808924E+04</rscale>
<asrwt>0</asrwt>
<pdfrwt beam="1">  1        2 0.15078687E+00 0.21808924E+04</pdfrwt>
<pdfrwt beam="2">  1       -2 0.18664581E+00 0.21808924E+04</pdfrwt>
<totfact> 0.38776218E+00</totfact>
</mgrwt>
</event>
<event>
 6    1  0.1001928E-005  0.1432256E+04  0.7818608E-02  0.8930795E-01
         -2   -1    0    0    0  501 -0.00000000000E+00  0.00000000000E+00  0.76605966544E+03  0.76605966544E+03  0.00000000000E+00 0.  1.
          2   -1    0    0  501    0  0.00000000000E+00 -0.00000000000E+00 -0.66945102993E+03  0.66945102993E+03  0.00000000000E+00 0. -1.
         23    2    1    2    0    0  0.78336927103E+02 -0.63063300037E+03  0.37281800203E+03  0.74259925121E+03  0.92874808031E+02 0.  0.
         13    1    3    3    0    0  0.43338176390E+00 -0.16719693671E+03  0.14040073875E+03  0.21832858473E+03  0.00000000000E+00 0. -1.
        -13    1    3    3    0    0  0.77903545339E+02 -0.46343606365E+03  0.23241726327E+03  0.52427066648E+03  0.00000000000E+00 0.  1.
         22    1    1    2    0    0 -0.78336927103E+02  0.63063300037E+03 -0.27620936651E+03  0.69291144416E+03  0.00000000000E+00 0. -1.
<mgrwt>
<rscale>  0 0.14322562E+04</rscale>
<asrwt>0</asrwt>
<pdfrwt beam="1">  1        2 0.10299247E+00 0.14322562E+04</pdfrwt>
<pdfrwt beam="2">  1       -2 0.11785533E+00 0.14322562E+04</pdfrwt>
<totfact> 0.23366370E+01</totfact>
</mgrwt>
</event>
<event>
 6    1  0.1001928E-005  0.5527776E+04  0.7818608E-02  0.7751879E-01
          1   -1    0    0  501    0  0.00000000000E+00  0.00000000000E+00  0.30766351667E+04  0.30766351667E+04  0.00000000000E+00 0. -1.
         -1   -1    0    0    0  501 -0.00000000000E+00 -0.00000000000E+00 -0.24829326223E+04  0.24829326223E+04  0.00000000000E+00 0.  1.
         23    2    1    2    0    0  0.11562477637E+04  0.19741085509E+04  0.18552293222E+04  0.29470090293E+04  0.94725491201E+02 0.  0.
         11    1    3    3    0    0  0.38200155720E+03  0.73428791807E+03  0.69488874631E+03  0.10807285996E+04  0.00000000000E+00 0.  1.
        -11    1    3    3    0    0  0.77424620645E+03  0.12398206329E+04  0.11603405759E+04  0.18662804296E+04  0.00000000000E+00 0. -1.
         22    1    1    2    0    0 -0.11562477637E+04 -0.19741085509E+04 -0.12615267778E+04  0.26125587597E+04  0.00000000000E+00 0.  1.
<mgrwt>
<rscale>  0 0.55277763E+04</rscale>
<asrwt>0</asrwt>
<pdfrwt beam="1">  1        1 0.47332849E+00 0.55277763E+04</pdfrwt>
<pdfrwt beam="2">  1       -1 0.38198963E+00 0.55277763E+04</pdfrwt>
<totfact> 0.34508918E-03</totfact>
</mgrwt>
</event>
<event>
 6    1  0.1001928E-005  0.1100825E+04  0.7818608E-02  0.9204388E-01
         -2   -1    0    0    0  501 -0.00000000000E+00  0.00000000000E+00  0.11012222884E+04  0.11012222884E+04  0.00000000000E+00 0.  1.
          2   -1    0    0  501    0  0.00000000000E+00 -0.00000000000E+00 -0.27510705657E+03  0.27510705657E+03  0.00000000000E+00 0. -1.
         23    2    1    2    0    0 -0.40746261863E+03 -0.20109635932E+03  0.79581812026E+03  0.92093561826E+03  0.91271031191E+02 0.  0.
         13    1    3    3    0    0 -0.15285703486E+03 -0.11349120791E+03  0.38890704037E+03  0.43300602009E+03  0.00000000000E+00 0. -1.
        -13    1    3    3    0    0 -0.25460558377E+03 -0.87605151413E+02  0.40691107989E+03  0.48792959818E+03  0.00000000000E+00 0.  1.
         22    1    1    2    0    0  0.40746261863E+03  0.20109635932E+03  0.30297111523E+02  0.45539372666E+03  0.00000000000E+00 0. -1.
<mgrwt>
<rscale>  0 0.11008252E+04</rscale>
<asrwt>0</asrwt>
<pdfrwt beam="1">  1        2 0.42324163E-01 0.11008252E+04</pdfrwt>
<pdfrwt beam="2">  1       -2 0.16941881E+00 0.11008252E+04</pdfrwt>
<totfact> 0.25808303E+01</totfact>
</mgrwt>
</event>
<event>
 6    1  0.1001928E-005  0.3166572E+04  0.7818608E-02  0.8197702E-01
          1   -1    0    0  501    0  0.00000000000E+00  0.00000000000E+00  0.39089357366E+04  0.39089357366E+04  0.00000000000E+00 0. -1.
         -1   -1    0    0    0  501 -0.00000000000E+00 -0.00000000000E+00 -0.64129845550E+03  0.64129845550E+03  0.00000000000E+00 0.  1.
         23    2    1    2    0    0  0.15761470983E+04 -0.12704259154E+03  0.17076086926E+04  0.23289578264E+04  0.87963712285E+02 0.  0.
         13    1    3    3    0    0  0.62863681467E+03 -0.35766812330E+02  0.62087562646E+03  0.88427939767E+03  0.00000000000E+00 0. -1.
        -13    1    3    3    0    0  0.94751028367E+03 -0.91275779210E+02  0.10867330661E+04  0.14446784287E+04  0.00000000000E+00 0.  1.
         22    1    1    2    0    0 -0.15761470983E+04  0.12704259154E+03  0.15600285885E+04  0.22212763657E+04  0.00000000000E+00 0.  1.
<mgrwt>
<rscale>  0 0.31665719E+04</rscale>
<asrwt>0</asrwt>
<pdfrwt beam="1">  1        1 0.60137472E+00 0.31665719E+04</pdfrwt>
<pdfrwt beam="2">  1       -1 0.98661303E-01 0.31665719E+04</pdfrwt>
<totfact> 0.94842291E-02</totfact>
</mgrwt>
</event>
<event>
 6    1  0.1001928E-005  0.1208670E+04  0.7818608E-02  0.9105301E-01
         -2   -1    0    0    0  501 -0.00000000000E+00  0.00000000000E+00  0.38156264987E+03  0.38156264987E+03  0.00000000000E+00 0.  1.
          2   -1    0    0  501    0  0.00000000000E+00 -0.00000000000E+00 -0.95717173057E+03  0.95717173057E+03  0.00000000000E+00 0. -1.
         23    2    1    2    0    0 -0.55135122537E+03 -0.16899549736E+03 -0.47642586628E+03  0.75359767687E+03  0.91543436001E+02 0.  0.
         11    1    3    3    0    0 -0.15963437383E+03 -0.84397227789E+02 -0.18149449903E+03  0.25602007450E+03  0.00000000000E+00 0. -1.
        -11    1    3    3    0    0 -0.39171685154E+03 -0.84598269567E+02 -0.29493136725E+03  0.49757760237E+03  0.00000000000E+00 0.  1.
         22    1    1    2    0    0  0.55135122537E+03  0.16899549736E+03 -0.99183214420E+02  0.58513670357E+03  0.00000000000E+00 0.  1.
<mgrwt>
<rscale>  0 0.12086703E+04</rscale>
<asrwt>0</asrwt>
<pdfrwt beam="1">  1        2 0.14725719E+00 0.12086703E+04</pdfrwt>
<pdfrwt beam="2">  1       -2 0.58701946E-01 0.12086703E+04</pdfrwt>
<totfact> 0.71848942E+01</totfact>
</mgrwt>
</event>
<event>
 6    1  0.1001928E-005  0.1694607E+04  0.7818608E-02  0.8764446E-01
         -1   -1    0    0    0  501 -0.00000000000E+00  0.00000000000E+00  0.67629476914E+03  0.67629476914E+03  0.00000000000E+00 0.  1.
          1   -1    0    0  501    0  0.00000000000E+00 -0.00000000000E+00 -0.10615543055E+04  0.10615543055E+04  0.00000000000E+00 0. -1.
         23    2    1    2    0    0  0.42922795907E+03  0.72043532129E+03 -0.29793231020E+03  0.89470630056E+03  0.92043521178E+02 0.  0.
         11    1    3    3    0    0  0.15507211727E+03  0.18587051654E+03 -0.10345939716E+03  0.26324714117E+03  0.00000000000E+00 0. -1.
        -11    1    3    3    0    0  0.27415584180E+03  0.53456480475E+03 -0.19447291304E+03  0.63145915939E+03  0.00000000000E+00 0.  1.
         22    1    1    2    0    0 -0.42922795907E+03 -0.72043532129E+03 -0.87327226135E+02  0.84314277405E+03  0.00000000000E+00 0.  1.
<mgrwt>
<rscale>  0 0.16946075E+04</rscale>
<asrwt>0</asrwt>
<pdfrwt beam="1">  1        1 0.16331605E+00 0.16946075E+04</pdfrwt>
<pdfrwt beam="2">  1       -1 0.10404535E+00 0.16946075E+04</pdfrwt>
<totfact> 0.11229282E+01</totfact>
</mgrwt>
</event>
<event>
 6    1  0.1001928E-005  0.2194700E+04  0.7818608E-02  0.8520637E-01
         -3   -1    0    0    0  501 -0.00000000000E+00  0.00000000000E+00  0.57879511973E+03  0.57879511973E+03  0.00000000000E+00 0.  1.
          3   -1    0    0  501    0  0.00000000000E+00 -0.00000000000E+00 -0.20804899927E+04  0.20804899927E+04  0.00000000000E+00 0. -1.
         23    2    1    2    0    0  0.85347544946E+03 -0.66244902200E+03 -0.97173164720E+03  0.14559065061E+04  0.90234752832E+02 0.  0.
         13    1    3    3    0    0  0.64541871361E+03 -0.45078811904E+03 -0.69660544190E+03  0.10512061576E+04  0.00000000000E+00 0.  1.
        -13    1    3    3    0    0  0.20805673584E+03 -0.21166090296E+03 -0.27512620530E+03  0.40470034842E+03  0.00000000000E+00 0. -1.
         22    1    1    2    0    0 -0.85347544946E+03  0.66244902200E+03 -0.52996322572E+03  0.12033786063E+04  0.00000000000E+00 0.  1.
<mgrwt>
<rscale>  0 0.21947004E+04</rscale>
<asrwt>0</asrwt>
<pdfrwt beam="1">  1        3 0.32007539E+00 0.21947004E+04</pdfrwt>
<pdfrwt beam="2">  1       -3 0.89045402E-01 0.21947004E+04</pdfrwt>
<totfact> 0.81880559E-02</totfact>
</mgrwt>
</event>
<event>
 6    1  0.1001928E-005  0.2118356E+04  0.7818608E-02  0.8553200E-01
         -1   -1    0    0    0  501 -0.00000000000E+00  0.00000000000E+00  0.55877845629E+03  0.55877845629E+03  0.00000000000E+00 0.  1.
          1   -1    0    0  501    0  0.00000000000E+00 -0.00000000000E+00 -0.20076972954E+04  0.20076972954E+04  0.00000000000E+00 0. -1.
         23    2    1    2    0    0 -0.66467639832E+03 -0.66916634963E+03 -0.14697918492E+03  0.95879879995E+03  0.90077411311E+02 0.  0.
         11    1    3    3    0    0 -0.46813117955E+02 -0.23598508193E+02  0.38399750076E+01  0.52565226240E+02  0.00000000000E+00 0. -1.
        -11    1    3    3    0    0 -0.61786328036E+03 -0.64556784144E+03 -0.15081915993E+03  0.90623357371E+03  0.00000000000E+00 0.  1.
         22    1    1    2    0    0  0.66467639832E+03  0.66916634963E+03 -0.13019396542E+04  0.16076769517E+04  0.00000000000E+00 0. -1.
<mgrwt>
<rscale>  0 0.21183560E+04</rscale>
<asrwt>0</asrwt>
<pdfrwt beam="1">  1        1 0.30887651E+00 0.21183560E+04</pdfrwt>
<pdfrwt beam="2">  1       -1 0.85965916E-01 0.21183560E+04</pdfrwt>
<totfact> 0.36110381E+00</totfact>
</mgrwt>
</event>
<event>
 6    1  0.1001928E-005  0.2191545E+04  0.7818608E-02  0.8521955E-01
          2   -1    0    0  501    0  0.00000000000E+00  0.00000000000E+00  0.10474792968E+04  0.10474792968E+04  0.00000000000E+00 0. -1.
         -2   -1    0    0    0  501 -0.00000000000E+00 -0.00000000000E+00 -0.11462926462E+04  0.11462926462E+04  0.00000000000E+00 0.  1.
         23    2    1    2    0    0  0.26735512477E+03 -0.57062261187E+03  0.84550344338E+03  0.10585084789E+04  0.92060845439E+02 0.  0.
         13    1    3    3    0    0  0.92658094984E+02 -0.30496579876E+03  0.41151021276E+03  0.52050966963E+03  0.00000000000E+00 0. -1.
        -13    1    3    3    0    0  0.17469702978E+03 -0.26565681311E+03  0.43399323062E+03  0.53799880928E+03  0.00000000000E+00 0.  1.
         22    1    1    2    0    0 -0.26735512477E+03  0.57062261187E+03 -0.94431679272E+03  0.11352634641E+04  0.00000000000E+00 0. -1.
<mgrwt>
<rscale>  0 0.21915454E+04</rscale>
<asrwt>0</asrwt>
<pdfrwt beam="1">  1        2 0.16115066E+00 0.21915454E+04</pdfrwt>
<pdfrwt beam="2">  1       -2 0.17635272E+00 0.21915454E+04</pdfrwt>
<totfact> 0.41304596E+00</totfact>
</mgrwt>
</event>
<event>
 6    1  0.1001928E-005  0.1379975E+04  0.7818608E-02  0.8968442E-01
         -1   -1    0    0    0  501 -0.00000000000E+00  0.00000000000E+00  0.63194983151E+03  0.63194983151E+03  0.00000000000E+00 0.  1.
          1   -1    0    0  501    0  0.00000000000E+00 -0.00000000000E+00 -0.75335549658E+03  0.75335549658E+03  0.00000000000E+00 0. -1.
         23    2    1    2    0    0  0.48173528546E+03  0.42954166125E+03  0.17525813963E+03  0.67496432756E+03  0.91030236525E+02 0.  0.
         13    1    3    3    0    0  0.27100614246E+03  0.18326701934E+03  0.74412099074E+02  0.33551198208E+03  0.00000000000E+00 0. -1.
        -13    1    3    3    0    0  0.21072914301E+03  0.24627464191E+03  0.10084604055E+03  0.33945234548E+03  0.00000000000E+00 0.  1.
         22    1    1    2    0    0 -0.48173528546E+03 -0.42954166125E+03 -0.29666380470E+03  0.71034100053E+03  0.00000000000E+00 0. -1.
<mgrwt>
<rscale>  0 0.13799752E+04</rscale>
<asrwt>0</asrwt>
<pdfrwt beam="1">  1        1 0.11590085E+00 0.13799752E+04</pdfrwt>
<pdfrwt beam="2">  1       -1 0.97223051E-01 0.13799752E+04</pdfrwt>
<totfact> 0.24149445E+01</totfact>
</mgrwt>
</event>
<event>
 6    1  0.1001928E-005  0.4330770E+04  0.7818608E-02  0.7940953E-01
         -2   -1    0    0    0  501 -0.00000000000E+00  0.00000000000E+00  0.19535348321E+04  0.19535348321E+04  0.00000000000E+00 0.  1.
          2   -1    0    0  501    0  0.00000000000E+00 -0.00000000000E+00 -0.24002090440E+04  0.24002090440E+04  0.00000000000E+00 0. -1.
         23    2    1    2    0    0 -0.21497185691E+04  0.21286155987E+03 -0.87672275284E+02  0.21638848942E+04  0.90063520750E+02 0.  0.
         13    1    3    3    0    0 -0.13656108873E+04  0.91872387968E+02 -0.60322845903E+02  0.13700264512E+04  0.00000000000E+00 0.  1.
        -13    1    3    3    0    0 -0.78410768172E+03  0.12098917190E+03 -0.27349429381E+02  0.79385844301E+03  0.00000000000E+00 0. -1.
         22    1    1    2    0    0  0.21497185691E+04 -0.21286155987E+03 -0.35900193662E+03  0.21898589818E+04  0.00000000000E+00 0. -1.
<mgrwt>
<rscale>  0 0.43307699E+04</rscale>
<asrwt>0</asrwt>
<pdfrwt beam="1">  1        2 0.36926293E+00 0.43307699E+04</pdfrwt>
<pdfrwt beam="2">  1       -2 0.30054382E+00 0.43307699E+04</pdfrwt>
<totfact> 0.96291720E-02</totfact>
</mgrwt>
</event>
<event>
 6    1  0.1001928E-005  0.1590389E+04  0.7818608E-02  0.8826474E-01
          2   -1    0    0  501    0  0.00000000000E+00  0.00000000000E+00  0.10295792295E+04  0.10295792295E+04  0.00000000000E+00 0. -1.
         -2   -1    0    0    0  501 -0.00000000000E+00 -0.00000000000E+00 -0.61416759363E+03  0.61416759363E+03  0.00000000000E+00 0.  1.
         23    2    1    2    0    0 -0.20806315533E+03 -0.20230187998E+03 -0.55379400041E+03  0.63202754753E+03  0.92491614182E+02 0.  0.
         11    1    3    3    0    0 -0.64703904021E+02 -0.12469701726E+03 -0.22994381167E+03  0.26946260934E+03  0.00000000000E+00 0.  1.
        -11    1    3    3    0    0 -0.14335925131E+03 -0.77604862723E+02 -0.32385018874E+03  0.36256493818E+03  0.00000000000E+00 0. -1.
         22    1    1    2    0    0  0.20806315533E+03  0.20230187998E+03  0.96920563630E+03  0.10117192756E+04  0.00000000000E+00 0. -1.
<mgrwt>
<rscale>  0 0.15903889E+04</rscale>
<asrwt>0</asrwt>
<pdfrwt beam="1">  1        2 0.15839680E+00 0.15903889E+04</pdfrwt>
<pdfrwt beam="2">  1       -2 0.94487322E-01 0.15903889E+04</pdfrwt>
<totfact> 0.21847365E+01</totfact>
</mgrwt>
</event>
<event>
 6    1  0.1001928E-005  0.2374570E+04  0.7818608E-02  0.8449086E-01
         -1   -1    0    0    0  501 -0.00000000000E+00  0.00000000000E+00  0.64988582763E+03  0.64988582763E+03  0.00000000000E+00 0.  1.
          1   -1    0    0  501    0  0.00000000000E+00 -0.00000000000E+00 -0.21690657512E+04  0.21690657512E+04  0.00000000000E+00 0. -1.
         23    2    1    2    0    0 -0.35233775392E+02 -0.11579064326E+04 -0.46173002066E+03  0.12504526076E+04  0.91915103878E+02 0.  0.
         13    1    3    3    0    0 -0.52697313042E+02 -0.10869392787E+04 -0.42123153949E+03  0.11668976014E+04  0.00000000000E+00 0.  1.
        -13    1    3    3    0    0  0.17463537649E+02 -0.70967153927E+02 -0.40498481173E+02  0.83555006199E+02  0.00000000000E+00 0. -1.
         22    1    1    2    0    0  0.35233775392E+02  0.11579064326E+04 -0.10574499029E+04  0.15684989712E+04  0.00000000000E+00 0. -1.
<mgrwt>
<rscale>  0 0.23745695E+04</rscale>
<asrwt>0</asrwt>
<pdfrwt beam="1">  1        1 0.33370242E+00 0.23745695E+04</pdfrwt>
<pdfrwt beam="2">  1       -1 0.99982436E-01 0.23745695E+04</pdfrwt>
<totfact> 0.19579702E+00</totfact>
</mgrwt>
</event>
<event>
 6    1  0.1001928E-005  0.2788826E+04  0.7818608E-02  0.8306746E-01
         -2   -1    0    0    0  501 -0.00000000000E+00  0.00000000000E+00  0.97519303724E+03  0.97519303724E+03  0.00000000000E+00 0.  1.
          2   -1    0    0  501    0  0.00000000000E+00 -0.00000000000E+00 -0.19938484350E+04  0.19938484350E+04  0.00000000000E+00 0. -1.
         23    2    1    2    0    0  0.83905366431E+03  0.44264223660E+03  0.57611569794E+03  0.11134450590E+04  0.88923566838E+02 0.  0.
         13    1    3    3    0    0  0.66703153380E+03  0.30999707642E+03  0.44042743745E+03  0.85732466553E+03  0.00000000000E+00 0. -1.
        -13    1    3    3    0    0  0.17202213052E+03  0.13264516019E+03  0.13568826049E+03  0.25612039346E+03  0.00000000000E+00 0.  1.
         22    1    1    2    0    0 -0.83905366431E+03 -0.44264223660E+03 -0.15947710957E+04  0.18555964133E+04  0.00000000000E+00 0. -1.
<mgrwt>
<rscale>  0 0.27888256E+04</rscale>
<asrwt>0</asrwt>
<pdfrwt beam="1">  1        2 0.30674591E+00 0.27888256E+04</pdfrwt>
<pdfrwt beam="2">  1       -2 0.15002970E+00 0.27888256E+04</pdfrwt>
<totfact> 0.17564873E+00</totfact>
</mgrwt>
</event>
<event>
 6    1  0.1001928E-005  0.1576695E+04  0.7818608E-02  0.8834995E-01
         -2   -1    0    0    0  501 -0.00000000000E+00  0.00000000000E+00  0.28378822731E+03  0.28378822731E+03  0.00000000000E+00 0.  1.
          2   -1    0    0  501    0  0.00000000000E+00 -0.00000000000E+00 -0.21899840320E+04  0.21899840320E+04  0.00000000000E+00 0. -1.
         23    2    1    2    0    0  0.78495067291E+03 -0.15727014187E+02 -0.90835397296E+03  0.12040938673E+04  0.91324713629E+02 0.  0.
         11    1    3    3    0    0  0.44772987346E+03 -0.50302913539E+02 -0.49031168901E+03  0.66588135210E+03  0.00000000000E+00 0. -1.
        -11    1    3    3    0    0  0.33722079945E+03  0.34575899353E+02 -0.41804228395E+03  0.53821251525E+03  0.00000000000E+00 0.  1.
         22    1    1    2    0    0 -0.78495067291E+03  0.15727014187E+02 -0.99784183172E+03  0.12696783920E+04  0.00000000000E+00 0. -1.
<mgrwt>
<rscale>  0 0.15766949E+04</rscale>
<asrwt>0</asrwt>
<pdfrwt beam="1">  1        2 0.33692061E+00 0.15766949E+04</pdfrwt>
<pdfrwt beam="2">  1       -2 0.43659728E-01 0.15766949E+04</pdfrwt>
<totfact> 0.25019641E+01</totfact>
</mgrwt>
</event>
<event>
 6    1  0.1001928E-005  0.4341882E+04  0.7818608E-02  0.7938919E-01
          2   -1    0    0  501    0  0.00000000000E+00  0.00000000000E+00  0.18862618037E+04  0.18862618037E+04  0.00000000000E+00 0. -1.
         -2   -1    0    0    0  501 -0.00000000000E+00 -0.00000000000E+00 -0.24985846561E+04  0.24985846561E+04  0.00000000000E+00 0.  1.
         23    2    1    2    0    0 -0.90488380398E+03 -0.18255378431E+04 -0.10602276411E+04  0.22986964616E+04  0.92301984688E+02 0.  0.
         11    1    3    3    0    0 -0.22940760738E+03 -0.38145300086E+03 -0.21780950331E+03  0.49555546805E+03  0.00000000000E+00 0. -1.
        -11    1    3    3    0    0 -0.67547619660E+03 -0.14440848422E+04 -0.84241813780E+03  0.18031409935E+04  0.00000000000E+00 0.  1.
         22    1    1    2    0    0  0.90488380398E+03  0.18255378431E+04  0.44790478878E+03  0.20861499982E+04  0.00000000000E+00 0. -1.
<mgrwt>
<rscale>  0 0.43418820E+04</rscale>
<asrwt>0</asrwt>
<pdfrwt beam="1">  1        2 0.29019412E+00 0.43418820E+04</pdfrwt>
<pdfrwt beam="2">  1       -2 0.38439764E+00 0.43418820E+04</pdfrwt>
<totfact> 0.55609542E-02</totfact>
</mgrwt>
</event>
<event>
 6    1  0.1001928E-005  0.2115301E+04  0.7818608E-02  0.8554533E-01
         -2   -1    0    0    0  501 -0.00000000000E+00  0.00000000000E+00  0.93158565437E+03  0.93158565437E+03  0.00000000000E+00 0.  1.
          2   -1    0    0  501    0  0.00000000000E+00 -0.00000000000E+00 -0.12007751794E+04  0.12007751794E+04  0.00000000000E+00 0. -1.
         23    2    1    2    0    0 -0.45687729886E+03 -0.20912016636E+03 -0.10708676850E+04  0.11862340017E+04  0.89024702951E+02 0.  0.
         13    1    3    3    0    0 -0.40811189091E+03 -0.19818865717E+03 -0.10117994129E+04  0.11088607267E+04  0.00000000000E+00 0. -1.
        -13    1    3    3    0    0 -0.48765407953E+02 -0.10931509190E+02 -0.59068272109E+02  0.77373274946E+02  0.00000000000E+00 0.  1.
         22    1    1    2    0    0  0.45687729886E+03  0.20912016636E+03  0.80167815999E+03  0.94612683209E+03  0.00000000000E+00 0.  1.
<mgrwt>
<rscale>  0 0.21153013E+04</rscale>
<asrwt>0</asrwt>
<pdfrwt beam="1">  1        2 0.18473464E+00 0.21153013E+04</pdfrwt>
<pdfrwt beam="2">  1       -2 0.14332087E+00 0.21153013E+04</pdfrwt>
<totfact> 0.58839860E+00</totfact>
</mgrwt>
</event>
<event>
 6    1  0.1001928E-005  0.3511662E+04  0.7818608E-02  0.8111032E-01
         -1   -1    0    0    0  501 -0.00000000000E+00  0.00000000000E+00  0.17677734371E+04  0.17677734371E+04  0.00000000000E+00 0.  1.
          1   -1    0    0  501    0  0.00000000000E+00 -0.00000000000E+00 -0.17439695910E+04  0.17439695910E+04  0.00000000000E+00 0. -1.
         23    2    1    2    0    0  0.14329182785E+04  0.65422687554E+03  0.78483507470E+03  0.17623328051E+04  0.92645689187E+02 0.  0.
         11    1    3    3    0    0  0.64351796358E+03  0.28992308329E+03  0.40310816143E+03  0.81281421831E+03  0.00000000000E+00 0. -1.
        -11    1    3    3    0    0  0.78940031493E+03  0.36430379225E+03  0.38172691327E+03  0.94951858674E+03  0.00000000000E+00 0.  1.
         22    1    1    2    0    0 -0.14329182785E+04 -0.65422687554E+03 -0.76103122860E+03  0.17494102230E+04  0.00000000000E+00 0. -1.
<mgrwt>
<rscale>  0 0.35116624E+04</rscale>
<asrwt>0</asrwt>
<pdfrwt beam="1">  1        1 0.26830301E+00 0.35116624E+04</pdfrwt>
<pdfrwt beam="2">  1       -1 0.27196514E+00 0.35116624E+04</pdfrwt>
<totfact> 0.18189745E-01</totfact>
</mgrwt>
</event>
<event>
 6    1  0.1001928E-005  0.2092877E+04  0.7818608E-02  0.8564388E-01
         -2   -1    0    0    0  501 -0.00000000000E+00  0.00000000000E+00  0.11968037784E+04  0.11968037784E+04  0.00000000000E+00 0. -1.
          2   -1    0    0  501    0  0.00000000000E+00 -0.00000000000E+00 -0.91496488180E+03  0.91496488180E+03  0.00000000000E+00 0.  1.
         23    2    1    2    0    0 -0.31022474785E+03 -0.55276415051E+03 -0.69638893369E+03  0.94612836912E+03  0.91726460879E+02 0.  0.
         11    1    3    3    0    0 -0.27561190241E+03 -0.41662767028E+03 -0.52839651164E+03  0.72714744715E+03  0.00000000000E+00 0.  1.
        -11    1    3    3    0    0 -0.34612845439E+02 -0.13613648023E+03 -0.16799242205E+03  0.21898092196E+03  0.00000000000E+00 0. -1.
         22    1    1    2    0    0  0.31022474785E+03  0.55276415051E+03  0.97822783033E+03  0.11656402911E+04  0.00000000000E+00 0. -1.
<mgrwt>
<rscale>  0 0.20928769E+04</rscale>
<asrwt>0</asrwt>
<pdfrwt beam="1">  1        2 0.14076383E+00 0.20928769E+04</pdfrwt>
<pdfrwt beam="2">  1       -2 0.18412366E+00 0.20928769E+04</pdfrwt>
<totfact> 0.44857964E+00</totfact>
</mgrwt>
</event>
<event>
 6    1  0.1001928E-005  0.1428169E+04  0.7818608E-02  0.8933677E-01
         -2   -1    0    0    0  501 -0.00000000000E+00  0.00000000000E+00  0.15923481391E+04  0.15923481391E+04  0.00000000000E+00 0.  1.
          2   -1    0    0  501    0  0.00000000000E+00 -0.00000000000E+00 -0.32022942604E+03  0.32022942604E+03  0.00000000000E+00 0. -1.
         23    2    1    2    0    0 -0.43430652195E+03  0.15247430276E+02  0.13925124533E+04  0.14616348949E+04  0.91820444795E+02 0.  0.
         11    1    3    3    0    0 -0.28742957689E+02  0.16481178764E+02  0.57332812931E+02  0.66218111637E+02  0.00000000000E+00 0. -1.
        -11    1    3    3    0    0 -0.40556356426E+03 -0.12337484876E+01  0.13351796404E+04  0.13954167832E+04  0.00000000000E+00 0.  1.
         22    1    1    2    0    0  0.43430652195E+03 -0.15247430276E+02 -0.12039374030E+03  0.45094267024E+03  0.00000000000E+00 0. -1.
<mgrwt>
<rscale>  0 0.14281691E+04</rscale>
<asrwt>0</asrwt>
<pdfrwt beam="1">  1        2 0.49266066E-01 0.14281691E+04</pdfrwt>
<pdfrwt beam="2">  1       -2 0.24497663E+00 0.14281691E+04</pdfrwt>
<totfact> 0.68468275E+00</totfact>
</mgrwt>
</event>
<event>
 6    1  0.1001928E-005  0.3095538E+04  0.7818608E-02  0.8216964E-01
          2   -1    0    0  501    0  0.00000000000E+00  0.00000000000E+00  0.29461342056E+04  0.29461342056E+04  0.00000000000E+00 0. -1.
         -2   -1    0    0    0  501 -0.00000000000E+00 -0.00000000000E+00 -0.81312939757E+03  0.81312939757E+03  0.00000000000E+00 0.  1.
         23    2    1    2    0    0 -0.42853793534E+03 -0.11404005465E+04 -0.89356113881E+02  0.12248906559E+04  0.90633523204E+02 0.  0.
         11    1    3    3    0    0 -0.10350134268E+03 -0.22019608971E+03  0.12744464189E+02  0.24364167794E+03  0.00000000000E+00 0. -1.
        -11    1    3    3    0    0 -0.32503659266E+03 -0.92020445674E+03 -0.10210057807E+03  0.98124897800E+03  0.00000000000E+00 0.  1.
         22    1    1    2    0    0  0.42853793534E+03  0.11404005465E+04  0.22223609219E+04  0.25343729472E+04  0.00000000000E+00 0. -1.
<mgrwt>
<rscale>  0 0.30955376E+04</rscale>
<asrwt>0</asrwt>
<pdfrwt beam="1">  1        2 0.45325141E+00 0.30955376E+04</pdfrwt>
<pdfrwt beam="2">  1       -2 0.12509683E+00 0.30955376E+04</pdfrwt>
<totfact> 0.76418011E-01</totfact>
</mgrwt>
</event>
<event>
 6    1  0.1001928E-005  0.2776884E+04  0.7818608E-02  0.8310481E-01
          2   -1    0    0  501    0  0.00000000000E+00  0.00000000000E+00  0.25492001817E+04  0.25492001817E+04  0.00000000000E+00 0. -1.
         -2   -1    0    0    0  501 -0.00000000000E+00 -0.00000000000E+00 -0.75622599474E+03  0.75622599474E+03  0.00000000000E+00 0.  1.
         23    2    1    2    0    0  0.11764567207E+04 -0.14101552089E+02  0.17720097326E+04  0.21286981800E+04  0.84191328165E+02 0.  0.
         11    1    3    3    0    0  0.55609257911E+03 -0.17608138986E+02  0.76480255447E+03  0.94576527237E+03  0.00000000000E+00 0. -1.
        -11    1    3    3    0    0  0.62036414158E+03  0.35065868975E+01  0.10072071781E+04  0.11829329076E+04  0.00000000000E+00 0.  1.
         22    1    1    2    0    0 -0.11764567207E+04  0.14101552089E+02  0.20964454457E+02  0.11767279965E+04  0.00000000000E+00 0.  1.
<mgrwt>
<rscale>  0 0.27768842E+04</rscale>
<asrwt>0</asrwt>
<pdfrwt beam="1">  1        2 0.39218464E+00 0.27768842E+04</pdfrwt>
<pdfrwt beam="2">  1       -2 0.11634246E+00 0.27768842E+04</pdfrwt>
<totfact> 0.16280070E+00</totfact>
</mgrwt>
</event>
<event>
 6    1  0.1001928E-005  0.2516818E+04  0.7818608E-02  0.8397018E-01
         -2   -1    0    0    0  501 -0.00000000000E+00  0.00000000000E+00  0.64203228450E+03  0.64203228450E+03  0.00000000000E+00 0.  1.
          2   -1    0    0  501    0  0.00000000000E+00 -0.00000000000E+00 -0.24665317273E+04  0.24665317273E+04  0.00000000000E+00 0. -1.
         23    2    1    2    0    0 -0.12504212988E+03 -0.96025198216E+03  0.75918546118E+02  0.97565333948E+03  0.91740992454E+02 0.  0.
         13    1    3    3    0    0 -0.18008831851E+02 -0.26174342849E+03 -0.16983580440E+02  0.26291135842E+03  0.00000000000E+00 0.  1.
        -13    1    3    3    0    0 -0.10703329803E+03 -0.69850855367E+03  0.92902126558E+02  0.71274198106E+03  0.00000000000E+00 0. -1.
         22    1    1    2    0    0  0.12504212988E+03  0.96025198216E+03 -0.19004179889E+04  0.21329106723E+04  0.00000000000E+00 0. -1.
<mgrwt>
<rscale>  0 0.25168178E+04</rscale>
<asrwt>0</asrwt>
<pdfrwt beam="1">  1        2 0.37946643E+00 0.25168178E+04</pdfrwt>
<pdfrwt beam="2">  1       -2 0.98774196E-01 0.25168178E+04</pdfrwt>
<totfact> 0.27566284E+00</totfact>
</mgrwt>
</event>
<event>
 6    1  0.1001928E-005  0.3032324E+04  0.7818608E-02  0.8234560E-01
          1   -1    0    0  501    0  0.00000000000E+00  0.00000000000E+00  0.12432750432E+04  0.12432750432E+04  0.00000000000E+00 0.  1.
         -1   -1    0    0    0  501 -0.00000000000E+00 -0.00000000000E+00 -0.18489444948E+04  0.18489444948E+04  0.00000000000E+00 0. -1.
         23    2    1    2    0    0  0.30833250603E+03 -0.80638080581E+03  0.96616942288E+03  0.12988996041E+04  0.91312044601E+02 0.  0.
         11    1    3    3    0    0  0.14759390145E+03 -0.42921327349E+03  0.57158472762E+03  0.72987471167E+03  0.00000000000E+00 0.  1.
        -11    1    3    3    0    0  0.16073860458E+03 -0.37716753231E+03  0.39458469526E+03  0.56902489239E+03  0.00000000000E+00 0. -1.
         22    1    1    2    0    0 -0.30833250603E+03  0.80638080581E+03 -0.15718388745E+04  0.17933199340E+04  0.00000000000E+00 0. -1.
<mgrwt>
<rscale>  0 0.30323236E+04</rscale>
<asrwt>0</asrwt>
<pdfrwt beam="1">  1        1 0.19127308E+00 0.30323236E+04</pdfrwt>
<pdfrwt beam="2">  1       -1 0.28445300E+00 0.30323236E+04</pdfrwt>
<totfact> 0.35123796E-01</totfact>
</mgrwt>
</event>
<event>
 6    1  0.1001928E-005  0.1695701E+04  0.7818608E-02  0.8763820E-01
         -2   -1    0    0    0  501 -0.00000000000E+00  0.00000000000E+00  0.38041567940E+03  0.38041567940E+03  0.00000000000E+00 0.  1.
          2   -1    0    0  501    0  0.00000000000E+00 -0.00000000000E+00 -0.18896456970E+04  0.18896456970E+04  0.00000000000E+00 0. -1.
         23    2    1    2    0    0 -0.21226705324E+03  0.48114718716E+03  0.12924546968E+03  0.54925870321E+03  0.91764993410E+02 0.  0.
         11    1    3    3    0    0 -0.16442182106E+03  0.26457960778E+03  0.63313706164E+02  0.31787659474E+03  0.00000000000E+00 0. -1.
        -11    1    3    3    0    0 -0.47845232181E+02  0.21656757938E+03  0.65931763518E+02  0.23138210847E+03  0.00000000000E+00 0.  1.
         22    1    1    2    0    0  0.21226705324E+03 -0.48114718716E+03 -0.16384754873E+04  0.17208026732E+04  0.00000000000E+00 0. -1.
<mgrwt>
<rscale>  0 0.16957014E+04</rscale>
<asrwt>0</asrwt>
<pdfrwt beam="1">  1        2 0.29071472E+00 0.16957014E+04</pdfrwt>
<pdfrwt beam="2">  1       -2 0.58525489E-01 0.16957014E+04</pdfrwt>
<totfact> 0.19992456E+01</totfact>
</mgrwt>
</event>
<event>
 6    1  0.1001928E-005  0.1367753E+04  0.7818608E-02  0.8977497E-01
          2   -1    0    0  501    0  0.00000000000E+00  0.00000000000E+00  0.41065265107E+03  0.41065265107E+03  0.00000000000E+00 0. -1.
         -2   -1    0    0    0  501 -0.00000000000E+00 -0.00000000000E+00 -0.11388872877E+04  0.11388872877E+04  0.00000000000E+00 0.  1.
         23    2    1    2    0    0  0.59429001291E+03 -0.19047410161E+03 -0.57280387356E+02  0.63322088546E+03  0.90700849953E+02 0.  0.
         13    1    3    3    0    0  0.23015094201E+03 -0.57202094097E+02 -0.63144238208E+02  0.24541542432E+03  0.00000000000E+00 0.  1.
        -13    1    3    3    0    0  0.36413907090E+03 -0.13327200752E+03  0.58638508519E+01  0.38780546114E+03  0.00000000000E+00 0. -1.
         22    1    1    2    0    0 -0.59429001291E+03  0.19047410161E+03 -0.67095424927E+03  0.91631905330E+03  0.00000000000E+00 0.  1.
<mgrwt>
<rscale>  0 0.13677530E+04</rscale>
<asrwt>0</asrwt>
<pdfrwt beam="1">  1        2 0.63177332E-01 0.13677530E+04</pdfrwt>
<pdfrwt beam="2">  1       -2 0.17521342E+00 0.13677530E+04</pdfrwt>
<totfact> 0.14726663E+01</totfact>
</mgrwt>
</event>
<event>
 6    1  0.1001928E-005  0.1795162E+04  0.7818608E-02  0.8708877E-01
          2   -1    0    0  501    0  0.00000000000E+00  0.00000000000E+00  0.12612840728E+04  0.12612840728E+04  0.00000000000E+00 0. -1.
         -2   -1    0    0    0  501 -0.00000000000E+00 -0.00000000000E+00 -0.63875508656E+03  0.63875508656E+03  0.00000000000E+00 0.  1.
         23    2    1    2    0    0  0.21158016598E+03 -0.66989622307E+03  0.89933045542E+03  0.11449589188E+04  0.92782225627E+02 0.  0.
         11    1    3    3    0    0  0.11652274881E+03 -0.39196432788E+03  0.59524559546E+03  0.72217096607E+03  0.00000000000E+00 0. -1.
        -11    1    3    3    0    0  0.95057417173E+02 -0.27793189519E+03  0.30408485996E+03  0.42278795274E+03  0.00000000000E+00 0.  1.
         22    1    1    2    0    0 -0.21158016598E+03  0.66989622307E+03 -0.27680146920E+03  0.75508024055E+03  0.00000000000E+00 0. -1.
<mgrwt>
<rscale>  0 0.17951620E+04</rscale>
<asrwt>0</asrwt>
<pdfrwt beam="1">  1        2 0.19404370E+00 0.17951620E+04</pdfrwt>
<pdfrwt beam="2">  1       -2 0.98270014E-01 0.17951620E+04</pdfrwt>
<totfact> 0.14163037E+01</totfact>
</mgrwt>
</event>
<event>
 6    1  0.1001928E-005  0.5627711E+04  0.7818608E-02  0.7738357E-01
          2   -1    0    0  501    0  0.00000000000E+00  0.00000000000E+00  0.19402847150E+04  0.19402847150E+04  0.00000000000E+00 0. -1.
         -2   -1    0    0    0  501 -0.00000000000E+00 -0.00000000000E+00 -0.40807322911E+04  0.40807322911E+04  0.00000000000E+00 0.  1.
         23    2    1    2    0    0 -0.26435303650E+04  0.44994817879E+03 -0.19800651471E+04  0.33346758740E+04  0.93268664650E+02 0.  0.
         13    1    3    3    0    0 -0.24382636187E+04  0.39743803793E+03 -0.18004560007E+04  0.30569148301E+04  0.00000000000E+00 0. -1.
        -13    1    3    3    0    0 -0.20526674626E+03  0.52510140858E+02 -0.17960914647E+03  0.27776104390E+03  0.00000000000E+00 0.  1.
         22    1    1    2    0    0  0.26435303650E+04 -0.44994817879E+03 -0.16038242897E+03  0.26863411320E+04  0.00000000000E+00 0.  1.
<mgrwt>
<rscale>  0 0.56277109E+04</rscale>
<asrwt>0</asrwt>
<pdfrwt beam="1">  1        2 0.29850534E+00 0.56277109E+04</pdfrwt>
<pdfrwt beam="2">  1       -2 0.62780497E+00 0.56277109E+04</pdfrwt>
<totfact> 0.20350653E-03</totfact>
</mgrwt>
</event>
<event>
 6    1  0.1001928E-005  0.2447582E+04  0.7818608E-02  0.8421901E-01
          2   -1    0    0  501    0  0.00000000000E+00  0.00000000000E+00  0.29607365583E+04  0.29607365583E+04  0.00000000000E+00 0. -1.
         -2   -1    0    0    0  501 -0.00000000000E+00 -0.00000000000E+00 -0.50584176814E+03  0.50584176814E+03  0.00000000000E+00 0.  1.
         23    2    1    2    0    0  0.49781215269E+03  0.10719421345E+04  0.16686835267E+04  0.20470695980E+04  0.95458618259E+02 0.  0.
         11    1    3    3    0    0  0.25492364051E+03  0.51065618823E+03  0.72818496158E+03  0.92520762175E+03  0.00000000000E+00 0. -1.
        -11    1    3    3    0    0  0.24288851218E+03  0.56128594631E+03  0.94049856509E+03  0.11218619763E+04  0.00000000000E+00 0.  1.
         22    1    1    2    0    0 -0.49781215269E+03 -0.10719421345E+04  0.78621126345E+03  0.14195087284E+04  0.00000000000E+00 0.  1.
<mgrwt>
<rscale>  0 0.24475818E+04</rscale>
<asrwt>0</asrwt>
<pdfrwt beam="1">  1        2 0.45549792E+00 0.24475818E+04</pdfrwt>
<pdfrwt beam="2">  1       -2 0.77821812E-01 0.24475818E+04</pdfrwt>
<totfact> 0.24275701E+00</totfact>
</mgrwt>
</event>
<event>
 6    1  0.1001928E-005  0.1494759E+04  0.7818608E-02  0.8887945E-01
          2   -1    0    0  501    0  0.00000000000E+00  0.00000000000E+00  0.50043734715E+03  0.50043734715E+03  0.00000000000E+00 0. -1.
         -2   -1    0    0    0  501 -0.00000000000E+00 -0.00000000000E+00 -0.11161764477E+04  0.11161764477E+04  0.00000000000E+00 0.  1.
         23    2    1    2    0    0  0.36818290270E+03 -0.13486669502E+03 -0.99317866867E+03  0.10723635740E+04  0.99056003121E+02 0.  0.
         11    1    3    3    0    0  0.23811119855E+03 -0.13220967059E+03 -0.62089140987E+03  0.67799888106E+03  0.00000000000E+00 0. -1.
        -11    1    3    3    0    0  0.13007170415E+03 -0.26570244281E+01 -0.37228725881E+03  0.39436469298E+03  0.00000000000E+00 0.  1.
         22    1    1    2    0    0 -0.36818290270E+03  0.13486669502E+03  0.37743956812E+03  0.54425022081E+03  0.00000000000E+00 0. -1.
<mgrwt>
<rscale>  0 0.14947594E+04</rscale>
<asrwt>0</asrwt>
<pdfrwt beam="1">  1        2 0.76990362E-01 0.14947594E+04</pdfrwt>
<pdfrwt beam="2">  1       -2 0.17171945E+00 0.14947594E+04</pdfrwt>
<totfact> 0.12308569E+01</totfact>
</mgrwt>
</event>
<event>
 6    1  0.1001928E-005  0.1230889E+04  0.7818608E-02  0.9086241E-01
         -1   -1    0    0    0  501 -0.00000000000E+00  0.00000000000E+00  0.26278626416E+03  0.26278626416E+03  0.00000000000E+00 0. -1.
          1   -1    0    0  501    0  0.00000000000E+00 -0.00000000000E+00 -0.14413683596E+04  0.14413683596E+04  0.00000000000E+00 0.  1.
         23    2    1    2    0    0  0.24300822486E+03 -0.22964613516E+03  0.11754623432E+03  0.36559607369E+03  0.89738660315E+02 0.  0.
         11    1    3    3    0    0  0.15348009849E+03 -0.90809646909E+02  0.38419037584E+02  0.18242410765E+03  0.00000000000E+00 0. -1.
        -11    1    3    3    0    0  0.89528126375E+02 -0.13883648825E+03  0.79127196733E+02  0.18317196605E+03  0.00000000000E+00 0.  1.
         22    1    1    2    0    0 -0.24300822486E+03  0.22964613516E+03 -0.12961283297E+04  0.13385585500E+04  0.00000000000E+00 0.  1.
<mgrwt>
<rscale>  0 0.12308888E+04</rscale>
<asrwt>0</asrwt>
<pdfrwt beam="1">  1        1 0.22174898E+00 0.12308888E+04</pdfrwt>
<pdfrwt beam="2">  1       -1 0.40428656E-01 0.12308888E+04</pdfrwt>
<totfact> 0.42377713E+01</totfact>
</mgrwt>
</event>
<event>
 6    1  0.1001928E-005  0.4039297E+04  0.7818608E-02  0.7996666E-01
          1   -1    0    0  501    0  0.00000000000E+00  0.00000000000E+00  0.24874553104E+04  0.24874553104E+04  0.00000000000E+00 0. -1.
         -1   -1    0    0    0  501 -0.00000000000E+00 -0.00000000000E+00 -0.16398200968E+04  0.16398200968E+04  0.00000000000E+00 0.  1.
         23    2    1    2    0    0  0.19032408336E+02  0.60071909949E+03  0.23930768862E+04  0.24690789073E+04  0.91148223170E+02 0.  0.
         13    1    3    3    0    0  0.41568163697E+02  0.48753911003E+03  0.20281392190E+04  0.20863295492E+04  0.00000000000E+00 0. -1.
        -13    1    3    3    0    0 -0.22535755361E+02  0.11317998946E+03  0.36493766712E+03  0.38274935815E+03  0.00000000000E+00 0.  1.
         22    1    1    2    0    0 -0.19032408336E+02 -0.60071909949E+03 -0.15454416725E+04  0.16581964999E+04  0.00000000000E+00 0.  1.
<mgrwt>
<rscale>  0 0.40392966E+04</rscale>
<asrwt>0</asrwt>
<pdfrwt beam="1">  1        1 0.38268543E+00 0.40392966E+04</pdfrwt>
<pdfrwt beam="2">  1       -1 0.25228002E+00 0.40392966E+04</pdfrwt>
<totfact> 0.72644214E-02</totfact>
</mgrwt>
</event>
<event>
 6    1  0.1001928E-005  0.8075077E+03  0.7818608E-02  0.9549213E-01
         -1   -1    0    0    0  501 -0.00000000000E+00  0.00000000000E+00  0.59146375826E+03  0.59146375826E+03  0.00000000000E+00 0.  1.
          1   -1    0    0  501    0  0.00000000000E+00 -0.00000000000E+00 -0.27561647797E+03  0.27561647797E+03  0.00000000000E+00 0. -1.
         23    2    1    2    0    0  0.36415811674E+03 -0.15521683212E+03  0.10975639998E+03  0.42078789940E+03  0.91173406119E+02 0.  0.
         13    1    3    3    0    0  0.25138493328E+03 -0.14367186012E+03  0.10265323937E+03  0.30720298765E+03  0.00000000000E+00 0. -1.
        -13    1    3    3    0    0  0.11277318346E+03 -0.11544972007E+02  0.71031606153E+01  0.11358491175E+03  0.00000000000E+00 0.  1.
         22    1    1    2    0    0 -0.36415811674E+03  0.15521683212E+03  0.20609088031E+03  0.44629233683E+03  0.00000000000E+00 0. -1.
<mgrwt>
<rscale>  0 0.80750767E+03</rscale>
<asrwt>0</asrwt>
<pdfrwt beam="1">  1        1 0.42402535E-01 0.80750767E+03</pdfrwt>
<pdfrwt beam="2">  1       -1 0.90994424E-01 0.80750767E+03</pdfrwt>
<totfact> 0.11688128E+02</totfact>
</mgrwt>
</event>
<event>
 6    1  0.1001928E-005  0.2527184E+04  0.7818608E-02  0.8393365E-01
         -2   -1    0    0    0  501 -0.00000000000E+00  0.00000000000E+00  0.76174985330E+03  0.76174985330E+03  0.00000000000E+00 0.  1.
          2   -1    0    0  501    0  0.00000000000E+00 -0.00000000000E+00 -0.20960485404E+04  0.20960485404E+04  0.00000000000E+00 0. -1.
         23    2    1    2    0    0 -0.90020032847E+03 -0.72977201384E+03 -0.12329090446E+04  0.16945238418E+04  0.91752464297E+02 0.  0.
         13    1    3    3    0    0 -0.13612770287E+03 -0.14147028721E+03 -0.17415881201E+03  0.26244215639E+03  0.00000000000E+00 0.  1.
        -13    1    3    3    0    0 -0.76407262559E+03 -0.58830172663E+03 -0.10587502326E+04  0.14320816854E+04  0.00000000000E+00 0. -1.
         22    1    1    2    0    0  0.90020032847E+03  0.72977201384E+03 -0.10138964257E+03  0.11632745519E+04  0.00000000000E+00 0.  1.
<mgrwt>
<rscale>  0 0.25271839E+04</rscale>
<asrwt>0</asrwt>
<pdfrwt beam="1">  1        2 0.32246900E+00 0.25271839E+04</pdfrwt>
<pdfrwt beam="2">  1       -2 0.11719229E+00 0.25271839E+04</pdfrwt>
<totfact> 0.29587476E+00</totfact>
</mgrwt>
</event>
<event>
 6    1  0.1001928E-005  0.2708383E+04  0.7818608E-02  0.8332290E-01
         -2   -1    0    0    0  501 -0.00000000000E+00  0.00000000000E+00  0.47043209034E+03  0.47043209034E+03  0.00000000000E+00 0.  1.
          2   -1    0    0  501    0  0.00000000000E+00 -0.00000000000E+00 -0.38981926792E+04  0.38981926792E+04  0.00000000000E+00 0. -1.
         23    2    1    2    0    0  0.10628791742E+04  0.80789641179E+03 -0.20671866097E+04  0.24624321497E+04  0.88898039264E+02 0.  0.
         11    1    3    3    0    0  0.39887477638E+03  0.27663604994E+03 -0.82055140796E+03  0.95337988466E+03  0.00000000000E+00 0. -1.
        -11    1    3    3    0    0  0.66400439785E+03  0.53126036185E+03 -0.12466352017E+04  0.15090522650E+04  0.00000000000E+00 0.  1.
         22    1    1    2    0    0 -0.10628791742E+04 -0.80789641179E+03 -0.13605739792E+04  0.19061926199E+04  0.00000000000E+00 0.  1.
<mgrwt>
<rscale>  0 0.27083832E+04</rscale>
<asrwt>0</asrwt>
<pdfrwt beam="1">  1        2 0.59972193E+00 0.27083832E+04</pdfrwt>
<pdfrwt beam="2">  1       -2 0.72374170E-01 0.27083832E+04</pdfrwt>
<totfact> 0.62536156E-01</totfact>
</mgrwt>
</event>
<event>
 6    1  0.1001928E-005  0.2226931E+04  0.7818608E-02  0.8507302E-01
          2   -1    0    0  501    0  0.00000000000E+00  0.00000000000E+00  0.25685580714E+04  0.25685580714E+04  0.00000000000E+00 0. -1.
         -2   -1    0    0    0  501 -0.00000000000E+00 -0.00000000000E+00 -0.48268557728E+03  0.48268557728E+03  0.00000000000E+00 0.  1.
         23    2    1    2    0    0 -0.43721213995E+03  0.36759571395E+03  0.23512656564E+04  0.24213908128E+04  0.91663608460E+02 0.  0.
         13    1    3    3    0    0 -0.21728134509E+03  0.17293093125E+03  0.13326931220E+04  0.13613182021E+04  0.00000000000E+00 0.  1.
        -13    1    3    3    0    0 -0.21993079487E+03  0.19466478270E+03  0.10185725344E+04  0.10600726107E+04  0.00000000000E+00 0. -1.
         22    1    1    2    0    0  0.43721213995E+03 -0.36759571395E+03 -0.26539316231E+03  0.62985283585E+03  0.00000000000E+00 0.  1.
<mgrwt>
<rscale>  0 0.22269315E+04</rscale>
<asrwt>0</asrwt>
<pdfrwt beam="1">  1        2 0.39516277E+00 0.22269315E+04</pdfrwt>
<pdfrwt beam="2">  1       -2 0.74259321E-01 0.22269315E+04</pdfrwt>
<totfact> 0.47276991E+00</totfact>
</mgrwt>
</event>
<event>
 6    1  0.1001928E-005  0.9737862E+03  0.7818608E-02  0.9337772E-01
         -2   -1    0    0    0  501 -0.00000000000E+00  0.00000000000E+00  0.14969081079E+03  0.14969081079E+03  0.00000000000E+00 0.  1.
          2   -1    0    0  501    0  0.00000000000E+00 -0.00000000000E+00 -0.15836968602E+04  0.15836968602E+04  0.00000000000E+00 0. -1.
         23    2    1    2    0    0  0.27149400750E+03 -0.21114781606E+03 -0.12099255881E+03  0.37607531827E+03  0.92201135510E+02 0.  0.
         11    1    3    3    0    0  0.29063637260E+02 -0.60567775360E+02 -0.44606894683E+02  0.80640718475E+02  0.00000000000E+00 0. -1.
        -11    1    3    3    0    0  0.24243037024E+03 -0.15058004070E+03 -0.76385664124E+02  0.29543459979E+03  0.00000000000E+00 0.  1.
         22    1    1    2    0    0 -0.27149400750E+03  0.21114781606E+03 -0.13130134906E+04  0.13573123527E+04  0.00000000000E+00 0. -1.
<mgrwt>
<rscale>  0 0.97378615E+03</rscale>
<asrwt>0</asrwt>
<pdfrwt beam="1">  1        2 0.24364567E+00 0.97378615E+03</pdfrwt>
<pdfrwt beam="2">  1       -2 0.23029355E-01 0.97378615E+03</pdfrwt>
<totfact> 0.18937905E+02</totfact>
</mgrwt>
</event>
<event>
 6    1  0.1001928E-005  0.1962699E+04  0.7818608E-02  0.8624261E-01
          2   -1    0    0  501    0  0.00000000000E+00  0.00000000000E+00  0.11274141975E+04  0.11274141975E+04  0.00000000000E+00 0. -1.
         -2   -1    0    0    0  501 -0.00000000000E+00 -0.00000000000E+00 -0.85420856031E+03  0.85420856031E+03  0.00000000000E+00 0.  1.
         23    2    1    2    0    0 -0.84904125619E+03 -0.47317970728E+03  0.25789980000E+03  0.10095094111E+04  0.88469510158E+02 0.  0.
         11    1    3    3    0    0 -0.40710036621E+03 -0.19077020204E+03  0.15095859058E+03  0.47424937979E+03  0.00000000000E+00 0. -1.
        -11    1    3    3    0    0 -0.44194088998E+03 -0.28240950524E+03  0.10694120942E+03  0.53526003134E+03  0.00000000000E+00 0.  1.
         22    1    1    2    0    0  0.84904125619E+03  0.47317970728E+03  0.15305837169E+02  0.97211334666E+03  0.00000000000E+00 0. -1.
<mgrwt>
<rscale>  0 0.19626990E+04</rscale>
<asrwt>0</asrwt>
<pdfrwt beam="1">  1        2 0.17344834E+00 0.19626990E+04</pdfrwt>
<pdfrwt beam="2">  1       -2 0.13141670E+00 0.19626990E+04</pdfrwt>
<totfact> 0.82519860E+00</totfact>
</mgrwt>
</event>
<event>
 6    1  0.1001928E-005  0.3026439E+04  0.7818608E-02  0.8236221E-01
          1   -1    0    0  501    0  0.00000000000E+00  0.00000000000E+00  0.27985645389E+04  0.27985645389E+04  0.00000000000E+00 0. -1.
         -1   -1    0    0    0  501 -0.00000000000E+00 -0.00000000000E+00 -0.81821692978E+03  0.81821692978E+03  0.00000000000E+00 0.  1.
         23    2    1    2    0    0 -0.14468732206E+03  0.13285973361E+04  0.14645829387E+03  0.13475844029E+04  0.91806255952E+02 0.  0.
         13    1    3    3    0    0 -0.86696091604E+02  0.71129080919E+03  0.33372905318E+02  0.71733156792E+03  0.00000000000E+00 0.  1.
        -13    1    3    3    0    0 -0.57991230461E+02  0.61730652689E+03  0.11308538855E+03  0.63025283502E+03  0.00000000000E+00 0. -1.
         22    1    1    2    0    0  0.14468732206E+03 -0.13285973361E+04  0.18338893152E+04  0.22691970657E+04  0.00000000000E+00 0. -1.
<mgrwt>
<rscale>  0 0.30264388E+04</rscale>
<asrwt>0</asrwt>
<pdfrwt beam="1">  1        1 0.43054839E+00 0.30264388E+04</pdfrwt>
<pdfrwt beam="2">  1       -1 0.12587953E+00 0.30264388E+04</pdfrwt>
<totfact> 0.38983302E-01</totfact>
</mgrwt>
</event>
<event>
 6    1  0.1001928E-005  0.2876120E+04  0.7818608E-02  0.8280018E-01
          2   -1    0    0  501    0  0.00000000000E+00  0.00000000000E+00  0.22403250843E+04  0.22403250843E+04  0.00000000000E+00 0. -1.
         -2   -1    0    0    0  501 -0.00000000000E+00 -0.00000000000E+00 -0.92308761817E+03  0.92308761817E+03  0.00000000000E+00 0.  1.
         23    2    1    2    0    0  0.19894830779E+03  0.12577186226E+04 -0.73069094927E+02  0.12781040019E+04  0.82305432547E+02 0.  0.
         13    1    3    3    0    0  0.11816424972E+03  0.78938902502E+03 -0.64393203486E+01  0.79821005230E+03  0.00000000000E+00 0.  1.
        -13    1    3    3    0    0  0.80784058065E+02  0.46832959757E+03 -0.66629774578E+02  0.47989394959E+03  0.00000000000E+00 0. -1.
         22    1    1    2    0    0 -0.19894830779E+03 -0.12577186226E+04  0.13903065610E+04  0.18853087006E+04  0.00000000000E+00 0. -1.
<mgrwt>
<rscale>  0 0.28761198E+04</rscale>
<asrwt>0</asrwt>
<pdfrwt beam="1">  1        2 0.34466539E+00 0.28761198E+04</pdfrwt>
<pdfrwt beam="2">  1       -2 0.14201348E+00 0.28761198E+04</pdfrwt>
<totfact> 0.14663039E+00</totfact>
</mgrwt>
</event>
<event>
 6    1  0.1001928E-005  0.1068096E+04  0.7818608E-02  0.9236857E-01
          2   -1    0    0  501    0  0.00000000000E+00  0.00000000000E+00  0.89718909731E+03  0.89718909731E+03  0.00000000000E+00 0. -1.
         -2   -1    0    0    0  501 -0.00000000000E+00 -0.00000000000E+00 -0.31789007825E+03  0.31789007825E+03  0.00000000000E+00 0.  1.
         23    2    1    2    0    0 -0.12181378728E+03  0.50140968295E+03  0.15353730563E+03  0.54610734840E+03  0.91702032842E+02 0.  0.
         13    1    3    3    0    0 -0.83126076652E+01  0.14378739750E+03  0.76482715138E+02  0.16307519996E+03  0.00000000000E+00 0.  1.
        -13    1    3    3    0    0 -0.11350117961E+03  0.35762228544E+03  0.77054590491E+02  0.38303214844E+03  0.00000000000E+00 0. -1.
         22    1    1    2    0    0  0.12181378728E+03 -0.50140968295E+03  0.42576171343E+03  0.66897182717E+03  0.00000000000E+00 0.  1.
<mgrwt>
<rscale>  0 0.10680965E+04</rscale>
<asrwt>0</asrwt>
<pdfrwt beam="1">  1        2 0.13802909E+00 0.10680965E+04</pdfrwt>
<pdfrwt beam="2">  1       -2 0.48906166E-01 0.10680965E+04</pdfrwt>
<totfact> 0.11595177E+02</totfact>
</mgrwt>
</event>
<event>
 6    1  0.1001928E-005  0.1365192E+04  0.7818608E-02  0.8979407E-01
          2   -1    0    0  501    0  0.00000000000E+00  0.00000000000E+00  0.31012700040E+04  0.31012700040E+04  0.00000000000E+00 0. -1.
         -2   -1    0    0    0  501 -0.00000000000E+00 -0.00000000000E+00 -0.15024086695E+03  0.15024086695E+03  0.00000000000E+00 0.  1.
         23    2    1    2    0    0 -0.33546930145E+03  0.28825320324E+03  0.27103507308E+04  0.27479677679E+04  0.98469324837E+02 0.  0.
         11    1    3    3    0    0 -0.79554264813E+02  0.11378127405E+03  0.10293735627E+04  0.10386938870E+04  0.00000000000E+00 0.  1.
        -11    1    3    3    0    0 -0.25591503663E+03  0.17447192919E+03  0.16809771681E+04  0.17092738808E+04  0.00000000000E+00 0. -1.
         22    1    1    2    0    0  0.33546930145E+03 -0.28825320324E+03  0.24067840621E+03  0.50354310303E+03  0.00000000000E+00 0.  1.
<mgrwt>
<rscale>  0 0.13651923E+04</rscale>
<asrwt>0</asrwt>
<pdfrwt beam="1">  1        2 0.47711841E+00 0.13651923E+04</pdfrwt>
<pdfrwt beam="2">  1       -2 0.23113982E-01 0.13651923E+04</pdfrwt>
<totfact> 0.24501483E+01</totfact>
</mgrwt>
</event>
<event>
 6    1  0.1001928E-005  0.1387392E+04  0.7818608E-02  0.8962996E-01
          2   -1    0    0  501    0  0.00000000000E+00  0.00000000000E+00  0.41216315458E+04  0.41216315458E+04  0.00000000000E+00 0.  1.
         -2   -1    0    0    0  501 -0.00000000000E+00 -0.00000000000E+00 -0.11675336823E+03  0.11675336823E+03  0.00000000000E+00 0. -1.
         23    2    1    2    0    0 -0.15869843045E+02  0.65025774599E+03  0.27217544830E+04  0.27998115222E+04  0.88938776589E+02 0.  0.
         11    1    3    3    0    0  0.29786102346E+02  0.45205233560E+03  0.18979041883E+04  0.19512249573E+04  0.00000000000E+00 0. -1.
        -11    1    3    3    0    0 -0.45655945391E+02  0.19820541039E+03  0.82385029469E+03  0.84858656489E+03  0.00000000000E+00 0.  1.
         22    1    1    2    0    0  0.15869843045E+02 -0.65025774599E+03  0.12831236946E+04  0.14385733919E+04  0.00000000000E+00 0. -1.
<mgrwt>
<rscale>  0 0.13873923E+04</rscale>
<asrwt>0</asrwt>
<pdfrwt beam="1">  1        2 0.63409705E+00 0.13873923E+04</pdfrwt>
<pdfrwt beam="2">  1       -2 0.17962060E-01 0.13873923E+04</pdfrwt>
<totfact> 0.70389765E+00</totfact>
</mgrwt>
</event>
<event>
 6    1  0.1001928E-005  0.2116648E+04  0.7818608E-02  0.8553945E-01
         -2   -1    0    0    0  501 -0.00000000000E+00  0.00000000000E+00  0.95214337853E+03  0.95214337853E+03  0.00000000000E+00 0. -1.
          2   -1    0    0  501    0  0.00000000000E+00 -0.00000000000E+00 -0.11763455574E+04  0.11763455574E+04  0.00000000000E+00 0.  1.
         23    2    1    2    0    0 -0.41835077797E+03 -0.84352039505E+03 -0.59398618089E+03  0.11169138084E+04  0.90182271330E+02 0.  0.
         11    1    3    3    0    0 -0.31963017302E+03 -0.55660639401E+03 -0.38463736882E+03  0.74827804381E+03  0.00000000000E+00 0. -1.
        -11    1    3    3    0    0 -0.98720604947E+02 -0.28691400104E+03 -0.20934881207E+03  0.36863576461E+03  0.00000000000E+00 0.  1.
         22    1    1    2    0    0  0.41835077797E+03  0.84352039505E+03  0.36978400207E+03  0.10115751275E+04  0.00000000000E+00 0. -1.
<mgrwt>
<rscale>  0 0.21166479E+04</rscale>
<asrwt>0</asrwt>
<pdfrwt beam="1">  1        2 0.18097624E+00 0.21166479E+04</pdfrwt>
<pdfrwt beam="2">  1       -2 0.14648360E+00 0.21166479E+04</pdfrwt>
<totfact> 0.57461960E+00</totfact>
</mgrwt>
</event>
<event>
 6    1  0.1001928E-005  0.5152144E+04  0.7818608E-02  0.7805457E-01
         -2   -1    0    0    0  501 -0.00000000000E+00  0.00000000000E+00  0.18957957095E+04  0.18957957095E+04  0.00000000000E+00 0.  1.
          2   -1    0    0  501    0  0.00000000000E+00 -0.00000000000E+00 -0.35004548537E+04  0.35004548537E+04  0.00000000000E+00 0. -1.
         23    2    1    2    0    0 -0.95604922305E+03  0.48733964352E+03  0.16493693631E+04  0.19698484310E+04  0.91397484032E+02 0.  0.
         13    1    3    3    0    0 -0.17168387153E+03  0.57470698418E+02  0.24030903256E+03  0.30087649302E+03  0.00000000000E+00 0.  1.
        -13    1    3    3    0    0 -0.78436535152E+03  0.42986894510E+03  0.14090603306E+04  0.16689719380E+04  0.00000000000E+00 0. -1.
         22    1    1    2    0    0  0.95604922305E+03 -0.48733964352E+03 -0.32540285074E+04  0.34264021322E+04  0.00000000000E+00 0. -1.
<mgrwt>
<rscale>  0 0.51521441E+04</rscale>
<asrwt>0</asrwt>
<pdfrwt beam="1">  1        2 0.53853151E+00 0.51521441E+04</pdfrwt>
<pdfrwt beam="2">  1       -2 0.29166088E+00 0.51521441E+04</pdfrwt>
<totfact> 0.20845317E-02</totfact>
</mgrwt>
</event>
<event>
 6    1  0.1001928E-005  0.4134673E+04  0.7818608E-02  0.7977916E-01
         -2   -1    0    0    0  501 -0.00000000000E+00  0.00000000000E+00  0.14955504612E+04  0.14955504612E+04  0.00000000000E+00 0.  1.
          2   -1    0    0  501    0  0.00000000000E+00 -0.00000000000E+00 -0.28577303039E+04  0.28577303039E+04  0.00000000000E+00 0. -1.
         23    2    1    2    0    0 -0.14530122509E+04  0.11356236272E+03  0.86072613940E+03  0.16951889652E+04  0.93140374369E+02 0.  0.
         13    1    3    3    0    0 -0.10361786512E+04  0.44195948165E+02  0.63567674608E+03  0.12164310110E+04  0.00000000000E+00 0.  1.
        -13    1    3    3    0    0 -0.41683359973E+03  0.69366414550E+02  0.22504939332E+03  0.47875795426E+03  0.00000000000E+00 0. -1.
         22    1    1    2    0    0  0.14530122509E+04 -0.11356236272E+03 -0.22229059821E+04  0.26580917999E+04  0.00000000000E+00 0. -1.
<mgrwt>
<rscale>  0 0.41346728E+04</rscale>
<asrwt>0</asrwt>
<pdfrwt beam="1">  1        2 0.43965081E+00 0.41346728E+04</pdfrwt>
<pdfrwt beam="2">  1       -2 0.23008469E+00 0.41346728E+04</pdfrwt>
<totfact> 0.14207432E-01</totfact>
</mgrwt>
</event>
<event>
 6    1  0.1001928E-005  0.1353308E+04  0.7818608E-02  0.8988327E-01
          2   -1    0    0  501    0  0.00000000000E+00  0.00000000000E+00  0.71283040169E+03  0.71283040169E+03  0.00000000000E+00 0. -1.
         -2   -1    0    0    0  501 -0.00000000000E+00 -0.00000000000E+00 -0.64231400607E+03  0.64231400607E+03  0.00000000000E+00 0.  1.
         23    2    1    2    0    0  0.26211555055E+03  0.34485782862E+03 -0.48113291217E+03  0.65375404385E+03  0.90961458227E+02 0.  0.
         11    1    3    3    0    0  0.17597368015E+01  0.40416086130E+02 -0.61518856021E+02  0.73628298485E+02  0.00000000000E+00 0.  1.
        -11    1    3    3    0    0  0.26035581375E+03  0.30444174249E+03 -0.41961405615E+03  0.58012574537E+03  0.00000000000E+00 0. -1.
         22    1    1    2    0    0 -0.26211555055E+03 -0.34485782862E+03  0.55164930779E+03  0.70139036391E+03  0.00000000000E+00 0. -1.
<mgrwt>
<rscale>  0 0.13533085E+04</rscale>
<asrwt>0</asrwt>
<pdfrwt beam="1">  1        2 0.10966622E+00 0.13533085E+04</pdfrwt>
<pdfrwt beam="2">  1       -2 0.98817539E-01 0.13533085E+04</pdfrwt>
<totfact> 0.33225376E+01</totfact>
</mgrwt>
</event>
<event>
 6    1  0.1001928E-005  0.9003712E+03  0.7818608E-02  0.9425118E-01
         -2   -1    0    0    0  501 -0.00000000000E+00  0.00000000000E+00  0.11476303284E+03  0.11476303284E+03  0.00000000000E+00 0.  1.
          2   -1    0    0  501    0  0.00000000000E+00 -0.00000000000E+00 -0.17659613498E+04  0.17659613498E+04  0.00000000000E+00 0. -1.
         23    2    1    2    0    0 -0.14311483809E+03  0.22284408816E+03 -0.86279083428E+02  0.29355282543E+03  0.92670580951E+02 0.  0.
         13    1    3    3    0    0 -0.28555719752E+02  0.46445720061E+02 -0.60825802264E+02  0.81684834967E+02  0.00000000000E+00 0.  1.
        -13    1    3    3    0    0 -0.11455911834E+03  0.17639836810E+03 -0.25453281164E+02  0.21186799047E+03  0.00000000000E+00 0. -1.
         22    1    1    2    0    0  0.14311483809E+03 -0.22284408816E+03 -0.15649192335E+04  0.15871715572E+04  0.00000000000E+00 0. -1.
<mgrwt>
<rscale>  0 0.90037121E+03</rscale>
<asrwt>0</asrwt>
<pdfrwt beam="1">  1        2 0.27168637E+00 0.90037121E+03</pdfrwt>
<pdfrwt beam="2">  1       -2 0.17655850E-01 0.90037121E+03</pdfrwt>
<totfact> 0.24077962E+02</totfact>
</mgrwt>
</event>
<event>
 6    1  0.1001928E-005  0.2073412E+04  0.7818608E-02  0.8573047E-01
         -2   -1    0    0    0  501 -0.00000000000E+00  0.00000000000E+00  0.54544745457E+03  0.54544745457E+03  0.00000000000E+00 0. -1.
          2   -1    0    0  501    0  0.00000000000E+00 -0.00000000000E+00 -0.19704171720E+04  0.19704171720E+04  0.00000000000E+00 0.  1.
         23    2    1    2    0    0 -0.72486983282E+03  0.73577428750E+03 -0.78882503195E+03  0.13028188164E+04  0.91059654803E+02 0.  0.
         11    1    3    3    0    0 -0.68169804421E+03  0.65624953830E+03 -0.71393323598E+03  0.11853591631E+04  0.00000000000E+00 0. -1.
        -11    1    3    3    0    0 -0.43171788604E+02  0.79524749203E+02 -0.74891795974E+02  0.11745965338E+03  0.00000000000E+00 0.  1.
         22    1    1    2    0    0  0.72486983282E+03 -0.73577428750E+03 -0.63614468552E+03  0.12130458102E+04  0.00000000000E+00 0. -1.
<mgrwt>
<rscale>  0 0.20734117E+04</rscale>
<asrwt>0</asrwt>
<pdfrwt beam="1">  1        2 0.30314110E+00 0.20734117E+04</pdfrwt>
<pdfrwt beam="2">  1       -2 0.83914994E-01 0.20734117E+04</pdfrwt>
<totfact> 0.79504006E+00</totfact>
</mgrwt>
</event>
<event>
 6    1  0.1001928E-005  0.2197770E+04  0.7818608E-02  0.8519357E-01
         -2   -1    0    0    0  501 -0.00000000000E+00  0.00000000000E+00  0.58797527238E+03  0.58797527238E+03  0.00000000000E+00 0.  1.
          2   -1    0    0  501    0  0.00000000000E+00 -0.00000000000E+00 -0.20537389895E+04  0.20537389895E+04  0.00000000000E+00 0. -1.
         23    2    1    2    0    0  0.98635533777E+03 -0.20308865349E+03 -0.12568789515E+04  0.16132325174E+04  0.92911801780E+02 0.  0.
         11    1    3    3    0    0  0.24372158212E+03 -0.81675906322E+02 -0.36289168755E+03  0.44470387918E+03  0.00000000000E+00 0.  1.
        -11    1    3    3    0    0  0.74263375565E+03 -0.12141274717E+03 -0.89398726391E+03  0.11685286382E+04  0.00000000000E+00 0. -1.
         22    1    1    2    0    0 -0.98635533777E+03  0.20308865349E+03 -0.20888476568E+03  0.10284817445E+04  0.00000000000E+00 0. -1.
<mgrwt>
<rscale>  0 0.21977695E+04</rscale>
<asrwt>0</asrwt>
<pdfrwt beam="1">  1        2 0.31595984E+00 0.21977695E+04</pdfrwt>
<pdfrwt beam="2">  1       -2 0.90457734E-01 0.21977695E+04</pdfrwt>
<totfact> 0.59540953E+00</totfact>
</mgrwt>
</event>
<event>
 6    1  0.1001928E-005  0.2160652E+04  0.7818608E-02  0.8534986E-01
          2   -1    0    0  501    0  0.00000000000E+00  0.00000000000E+00  0.16284192661E+04  0.16284192661E+04  0.00000000000E+00 0. -1.
         -2   -1    0    0    0  501 -0.00000000000E+00 -0.00000000000E+00 -0.71671023063E+03  0.71671023063E+03  0.00000000000E+00 0.  1.
         23    2    1    2    0    0  0.86169690537E+03 -0.42511918865E+02  0.11587502981E+04  0.14477119766E+04  0.94015390401E+02 0.  0.
         13    1    3    3    0    0  0.19818982247E+03  0.29711614034E+02  0.26330772057E+03  0.33089717655E+03  0.00000000000E+00 0.  1.
        -13    1    3    3    0    0  0.66350708290E+03 -0.72223532898E+02  0.89544257758E+03  0.11168148000E+04  0.00000000000E+00 0. -1.
         22    1    1    2    0    0 -0.86169690537E+03  0.42511918865E+02 -0.24704126270E+03  0.89741752014E+03  0.00000000000E+00 0.  1.
<mgrwt>
<rscale>  0 0.21606524E+04</rscale>
<asrwt>0</asrwt>
<pdfrwt beam="1">  1        2 0.25052604E+00 0.21606524E+04</pdfrwt>
<pdfrwt beam="2">  1       -2 0.11026311E+00 0.21606524E+04</pdfrwt>
<totfact> 0.64406097E+00</totfact>
</mgrwt>
</event>
<event>
 6    1  0.1001928E-005  0.1031314E+04  0.7818608E-02  0.9274851E-01
         -1   -1    0    0    0  501 -0.00000000000E+00  0.00000000000E+00  0.59610555163E+03  0.59610555163E+03  0.00000000000E+00 0.  1.
          1   -1    0    0  501    0  0.00000000000E+00 -0.00000000000E+00 -0.44606572896E+03  0.44606572896E+03  0.00000000000E+00 0. -1.
         23    2    1    2    0    0  0.11636541723E+03 -0.23332811928E+03 -0.37038809228E+03  0.46008182334E+03  0.80653727076E+02 0.  0.
         11    1    3    3    0    0  0.38664581294E+02 -0.16464357746E+03 -0.23548810133E+03  0.28992603076E+03  0.00000000000E+00 0.  1.
        -11    1    3    3    0    0  0.77700835933E+02 -0.68684541829E+02 -0.13489999095E+03  0.17015579258E+03  0.00000000000E+00 0. -1.
         22    1    1    2    0    0 -0.11636541723E+03  0.23332811928E+03  0.52042791495E+03  0.58208945724E+03  0.00000000000E+00 0.  1.
<mgrwt>
<rscale>  0 0.10313142E+04</rscale>
<asrwt>0</asrwt>
<pdfrwt beam="1">  1        1 0.68625496E-01 0.10313142E+04</pdfrwt>
<pdfrwt beam="2">  1       -1 0.91708547E-01 0.10313142E+04</pdfrwt>
<totfact> 0.60120363E+01</totfact>
</mgrwt>
</event>
<event>
 6    1  0.1001928E-005  0.2971703E+04  0.7818608E-02  0.8251858E-01
         -1   -1    0    0    0  501 -0.00000000000E+00  0.00000000000E+00  0.88049644319E+03  0.88049644319E+03  0.00000000000E+00 0.  1.
          1   -1    0    0  501    0  0.00000000000E+00 -0.00000000000E+00 -0.25073979966E+04  0.25073979966E+04  0.00000000000E+00 0. -1.
         23    2    1    2    0    0  0.12580363280E+04  0.53642137210E+03 -0.14722955291E+04  0.20115564313E+04  0.91114545778E+02 0.  0.
         13    1    3    3    0    0  0.53721649825E+03  0.25498644479E+03 -0.69637856942E+03  0.91573072733E+03  0.00000000000E+00 0. -1.
        -13    1    3    3    0    0  0.72081982970E+03  0.28143492731E+03 -0.77591695970E+03  0.10958257040E+04  0.00000000000E+00 0.  1.
         22    1    1    2    0    0 -0.12580363280E+04 -0.53642137210E+03 -0.15460602434E+03  0.13763380085E+04  0.00000000000E+00 0.  1.
<mgrwt>
<rscale>  0 0.29717032E+04</rscale>
<asrwt>0</asrwt>
<pdfrwt beam="1">  1        1 0.38575354E+00 0.29717032E+04</pdfrwt>
<pdfrwt beam="2">  1       -1 0.13546099E+00 0.29717032E+04</pdfrwt>
<totfact> 0.52132620E-01</totfact>
</mgrwt>
</event>
<event>
 6    1  0.1001928E-005  0.1476740E+04  0.7818608E-02  0.8900070E-01
         -1   -1    0    0    0  501 -0.00000000000E+00  0.00000000000E+00  0.17138886889E+03  0.17138886889E+03  0.00000000000E+00 0.  1.
          1   -1    0    0  501    0  0.00000000000E+00 -0.00000000000E+00 -0.31810136395E+04  0.31810136395E+04  0.00000000000E+00 0. -1.
         23    2    1    2    0    0  0.59028121063E+03  0.95296569534E+02 -0.53831503937E+03  0.80978866993E+03  0.91985132235E+02 0.  0.
         11    1    3    3    0    0  0.23769648771E+03  0.83458484865E+02 -0.23583395804E+03  0.34508346053E+03  0.00000000000E+00 0.  1.
        -11    1    3    3    0    0  0.35258472292E+03  0.11838084669E+02 -0.30248108133E+03  0.46470520940E+03  0.00000000000E+00 0. -1.
         22    1    1    2    0    0 -0.59028121063E+03 -0.95296569534E+02 -0.24713097312E+04  0.25426138385E+04  0.00000000000E+00 0. -1.
<mgrwt>
<rscale>  0 0.14767401E+04</rscale>
<asrwt>0</asrwt>
<pdfrwt beam="1">  1        1 0.48938673E+00 0.14767401E+04</pdfrwt>
<pdfrwt beam="2">  1       -1 0.26367517E-01 0.14767401E+04</pdfrwt>
<totfact> 0.54858696E+00</totfact>
</mgrwt>
</event>
<event>
 6    1  0.1001928E-005  0.1913863E+04  0.7818608E-02  0.8647987E-01
          2   -1    0    0  501    0  0.00000000000E+00  0.00000000000E+00  0.13970134861E+04  0.13970134861E+04  0.00000000000E+00 0. -1.
         -2   -1    0    0    0  501 -0.00000000000E+00 -0.00000000000E+00 -0.65548237139E+03  0.65548237139E+03  0.00000000000E+00 0.  1.
         23    2    1    2    0    0 -0.16285046174E+03  0.86601046962E+03 -0.22591815739E+02  0.88614331249E+03  0.90802939133E+02 0.  0.
         13    1    3    3    0    0 -0.13577310990E+03  0.50788376179E+03 -0.33960382241E+02  0.52681454083E+03  0.00000000000E+00 0.  1.
        -13    1    3    3    0    0 -0.27077351841E+02  0.35812670783E+03  0.11368566502E+02  0.35932877167E+03  0.00000000000E+00 0. -1.
         22    1    1    2    0    0  0.16285046174E+03 -0.86601046962E+03  0.76412293046E+03  0.11663525450E+04  0.00000000000E+00 0. -1.
<mgrwt>
<rscale>  0 0.19138628E+04</rscale>
<asrwt>0</asrwt>
<pdfrwt beam="1">  1        2 0.21492515E+00 0.19138628E+04</pdfrwt>
<pdfrwt beam="2">  1       -2 0.10084344E+00 0.19138628E+04</pdfrwt>
<totfact> 0.11005848E+01</totfact>
</mgrwt>
</event>
<event>
 6    1  0.1001928E-005  0.3916860E+04  0.7818608E-02  0.8021532E-01
         -2   -1    0    0    0  501 -0.00000000000E+00  0.00000000000E+00  0.22574725063E+04  0.22574725063E+04  0.00000000000E+00 0.  1.
          2   -1    0    0  501    0  0.00000000000E+00 -0.00000000000E+00 -0.16990007936E+04  0.16990007936E+04  0.00000000000E+00 0. -1.
         23    2    1    2    0    0 -0.18703992148E+04 -0.20491748525E+03  0.82405700477E+03  0.20562312242E+04  0.92911257064E+02 0.  0.
         11    1    3    3    0    0 -0.41959399401E+03 -0.94947119369E+01  0.16907801139E+03  0.45247833462E+03  0.00000000000E+00 0. -1.
        -11    1    3    3    0    0 -0.14508052208E+04 -0.19542277331E+03  0.65497899338E+03  0.16037528896E+04  0.00000000000E+00 0.  1.
         22    1    1    2    0    0  0.18703992148E+04  0.20491748525E+03 -0.26558529206E+03  0.19002420756E+04  0.00000000000E+00 0. -1.
<mgrwt>
<rscale>  0 0.39168598E+04</rscale>
<asrwt>0</asrwt>
<pdfrwt beam="1">  1        2 0.26138474E+00 0.39168598E+04</pdfrwt>
<pdfrwt beam="2">  1       -2 0.34730346E+00 0.39168598E+04</pdfrwt>
<totfact> 0.12613708E-01</totfact>
</mgrwt>
</event>
<event>
 6    1  0.1001928E-005  0.4387649E+04  0.7818608E-02  0.7930607E-01
          2   -1    0    0  501    0  0.00000000000E+00  0.00000000000E+00  0.14003978108E+04  0.14003978108E+04  0.00000000000E+00 0. -1.
         -2   -1    0    0    0  501 -0.00000000000E+00 -0.00000000000E+00 -0.34367853513E+04  0.34367853513E+04  0.00000000000E+00 0.  1.
         23    2    1    2    0    0  0.87881178217E+03  0.17641455601E+04 -0.20790400687E+04  0.28658032028E+04  0.76815911641E+02 0.  0.
         11    1    3    3    0    0  0.81375048461E+03  0.15838189792E+04 -0.18841613712E+04  0.25924383277E+04  0.00000000000E+00 0. -1.
        -11    1    3    3    0    0  0.65061297563E+02  0.18032658088E+03 -0.19487869749E+03  0.27336487512E+03  0.00000000000E+00 0.  1.
         22    1    1    2    0    0 -0.87881178217E+03 -0.17641455601E+04  0.42652528192E+02  0.19713799593E+04  0.00000000000E+00 0. -1.
<mgrwt>
<rscale>  0 0.43876493E+04</rscale>
<asrwt>0</asrwt>
<pdfrwt beam="1">  1        2 0.21544582E+00 0.43876493E+04</pdfrwt>
<pdfrwt beam="2">  1       -2 0.52873621E+00 0.43876493E+04</pdfrwt>
<totfact> 0.12357231E-02</totfact>
</mgrwt>
</event>
<event>
 6    1  0.1001928E-005  0.1670462E+04  0.7818608E-02  0.8778393E-01
          2   -1    0    0  501    0  0.00000000000E+00  0.00000000000E+00  0.54189563642E+03  0.54189563642E+03  0.00000000000E+00 0. -1.
         -2   -1    0    0    0  501 -0.00000000000E+00 -0.00000000000E+00 -0.12873521089E+04  0.12873521089E+04  0.00000000000E+00 0.  1.
         23    2    1    2    0    0  0.10245195481E+03 -0.44236358504E+03 -0.11381838610E+04  0.12289005573E+04  0.92477747998E+02 0.  0.
         13    1    3    3    0    0  0.46897974919E+02 -0.81110502816E+02 -0.30517651830E+03  0.31923508742E+03  0.00000000000E+00 0. -1.
        -13    1    3    3    0    0  0.55553979892E+02 -0.36125308223E+03 -0.83300734273E+03  0.90966546991E+03  0.00000000000E+00 0.  1.
         22    1    1    2    0    0 -0.10245195481E+03  0.44236358504E+03  0.39272738855E+03  0.60034718799E+03  0.00000000000E+00 0. -1.
<mgrwt>
<rscale>  0 0.16704616E+04</rscale>
<asrwt>0</asrwt>
<pdfrwt beam="1">  1        2 0.83368560E-01 0.16704616E+04</pdfrwt>
<pdfrwt beam="2">  1       -2 0.19805417E+00 0.16704616E+04</pdfrwt>
<totfact> 0.73130818E+00</totfact>
</mgrwt>
</event>
<event>
 6    1  0.1001928E-005  0.1510227E+04  0.7818608E-02  0.8877680E-01
          1   -1    0    0  501    0  0.00000000000E+00  0.00000000000E+00  0.14544251080E+04  0.14544251080E+04  0.00000000000E+00 0. -1.
         -1   -1    0    0    0  501 -0.00000000000E+00 -0.00000000000E+00 -0.39204255361E+03  0.39204255361E+03  0.00000000000E+00 0.  1.
         23    2    1    2    0    0 -0.27818913767E+03 -0.36512643244E+02 -0.32021003085E+03  0.43569318418E+03  0.92583570124E+02 0.  0.
         11    1    3    3    0    0 -0.26588388945E+03 -0.16192809846E+02 -0.31270441383E+03  0.41078035516E+03  0.00000000000E+00 0. -1.
        -11    1    3    3    0    0 -0.12305248215E+02 -0.20319833398E+02 -0.75056170186E+01  0.24912829020E+02  0.00000000000E+00 0.  1.
         22    1    1    2    0    0  0.27818913767E+03  0.36512643244E+02  0.13825925853E+04  0.14107744775E+04  0.00000000000E+00 0. -1.
<mgrwt>
<rscale>  0 0.15102272E+04</rscale>
<asrwt>0</asrwt>
<pdfrwt beam="1">  1        1 0.22375771E+00 0.15102272E+04</pdfrwt>
<pdfrwt beam="2">  1       -1 0.60314240E-01 0.15102272E+04</pdfrwt>
<totfact> 0.18958904E+01</totfact>
</mgrwt>
</event>
<event>
 6    1  0.1001928E-005  0.1297870E+04  0.7818608E-02  0.9031256E-01
         -1   -1    0    0    0  501 -0.00000000000E+00  0.00000000000E+00  0.33987098813E+03  0.33987098813E+03  0.00000000000E+00 0.  1.
          1   -1    0    0  501    0  0.00000000000E+00 -0.00000000000E+00 -0.12390480927E+04  0.12390480927E+04  0.00000000000E+00 0. -1.
         23    2    1    2    0    0  0.73947760616E+02  0.41924991266E+03  0.13881104421E+03  0.45701972814E+03  0.91431752432E+02 0.  0.
         11    1    3    3    0    0  0.23445446927E+02  0.34382958972E+03  0.10755450184E+03  0.36102139357E+03  0.00000000000E+00 0.  1.
        -11    1    3    3    0    0  0.50502313689E+02  0.75420322941E+02  0.31256542365E+02  0.95998334575E+02  0.00000000000E+00 0. -1.
         22    1    1    2    0    0 -0.73947760616E+02 -0.41924991266E+03 -0.10379881488E+04  0.11218993527E+04  0.00000000000E+00 0. -1.
<mgrwt>
<rscale>  0 0.12978698E+04</rscale>
<asrwt>0</asrwt>
<pdfrwt beam="1">  1        1 0.19062278E+00 0.12978698E+04</pdfrwt>
<pdfrwt beam="2">  1       -1 0.52287845E-01 0.12978698E+04</pdfrwt>
<totfact> 0.36226886E+01</totfact>
</mgrwt>
</event>
<event>
 6    1  0.1001928E-005  0.8181865E+03  0.7818608E-02  0.9534060E-01
          1   -1    0    0  501    0  0.00000000000E+00  0.00000000000E+00  0.54801538137E+03  0.54801538137E+03  0.00000000000E+00 0. -1.
         -1   -1    0    0    0  501 -0.00000000000E+00 -0.00000000000E+00 -0.30538791454E+03  0.30538791454E+03  0.00000000000E+00 0.  1.
         23    2    1    2    0    0  0.34413739229E+03 -0.15856046663E+03 -0.24753004427E+02  0.38965305843E+03  0.87434709143E+02 0.  0.
         11    1    3    3    0    0  0.11275682305E+03 -0.94963976081E+02  0.70845768422E+01  0.14758878388E+03  0.00000000000E+00 0.  1.
        -11    1    3    3    0    0  0.23138056924E+03 -0.63596490546E+02 -0.31837581269E+02  0.24206427455E+03  0.00000000000E+00 0. -1.
         22    1    1    2    0    0 -0.34413739229E+03  0.15856046663E+03  0.26738047125E+03  0.46375023748E+03  0.00000000000E+00 0.  1.
<mgrwt>
<rscale>  0 0.81818647E+03</rscale>
<asrwt>0</asrwt>
<pdfrwt beam="1">  1        1 0.84310058E-01 0.81818647E+03</pdfrwt>
<pdfrwt beam="2">  1       -1 0.46982756E-01 0.81818647E+03</pdfrwt>
<totfact> 0.17797957E+02</totfact>
</mgrwt>
</event>
<event>
 6    1  0.1001928E-005  0.1054646E+04  0.7818608E-02  0.9250561E-01
          2   -1    0    0  501    0  0.00000000000E+00  0.00000000000E+00  0.12355456094E+04  0.12355456094E+04  0.00000000000E+00 0. -1.
         -2   -1    0    0    0  501 -0.00000000000E+00 -0.00000000000E+00 -0.22505797046E+03  0.22505797046E+03  0.00000000000E+00 0.  1.
         23    2    1    2    0    0  0.12744845674E+03 -0.34554624024E+03  0.39800471589E+00  0.38546341112E+03  0.11373904181E+03 0.  0.
         11    1    3    3    0    0  0.35666158507E+02 -0.23785996791E+03 -0.24618462685E+02  0.24177573886E+03  0.00000000000E+00 0. -1.
        -11    1    3    3    0    0  0.91782298232E+02 -0.10768627233E+03  0.25016467401E+02  0.14368767226E+03  0.00000000000E+00 0.  1.
         22    1    1    2    0    0 -0.12744845674E+03  0.34554624024E+03  0.10100896343E+04  0.10751401688E+04  0.00000000000E+00 0. -1.
<mgrwt>
<rscale>  0 0.10546457E+04</rscale>
<asrwt>0</asrwt>
<pdfrwt beam="1">  1        2 0.19008394E+00 0.10546457E+04</pdfrwt>
<pdfrwt beam="2">  1       -2 0.34624304E-01 0.10546457E+04</pdfrwt>
<totfact> 0.14028108E+02</totfact>
</mgrwt>
</event>
<event>
 6    1  0.1001928E-005  0.2022330E+04  0.7818608E-02  0.8596251E-01
         -2   -1    0    0    0  501 -0.00000000000E+00  0.00000000000E+00  0.87418936596E+03  0.87418936596E+03  0.00000000000E+00 0. -1.
          2   -1    0    0  501    0  0.00000000000E+00 -0.00000000000E+00 -0.11696032039E+04  0.11696032039E+04  0.00000000000E+00 0.  1.
         23    2    1    2    0    0 -0.69095291143E+03  0.29911017282E+03  0.53093861345E+03  0.92587432811E+03  0.92003472189E+02 0.  0.
         11    1    3    3    0    0 -0.61133496629E+03  0.29500166142E+03  0.47442936965E+03  0.82815436244E+03  0.00000000000E+00 0.  1.
        -11    1    3    3    0    0 -0.79617945143E+02  0.41085114055E+01  0.56509243800E+02  0.97719965665E+02  0.00000000000E+00 0. -1.
         22    1    1    2    0    0  0.69095291143E+03 -0.29911017282E+03 -0.82635245135E+03  0.11179182417E+04  0.00000000000E+00 0.  1.
<mgrwt>
<rscale>  0 0.20223300E+04</rscale>
<asrwt>0</asrwt>
<pdfrwt beam="1">  1        2 0.17993895E+00 0.20223300E+04</pdfrwt>
<pdfrwt beam="2">  1       -2 0.13449067E+00 0.20223300E+04</pdfrwt>
<totfact> 0.72985994E+00</totfact>
</mgrwt>
</event>
<event>
 6    1  0.1001928E-005  0.1565822E+04  0.7818608E-02  0.8841824E-01
         -2   -1    0    0    0  501 -0.00000000000E+00  0.00000000000E+00  0.34910543743E+03  0.34910543743E+03  0.00000000000E+00 0.  1.
          2   -1    0    0  501    0  0.00000000000E+00 -0.00000000000E+00 -0.17557725310E+04  0.17557725310E+04  0.00000000000E+00 0. -1.
         23    2    1    2    0    0  0.89822972349E+02  0.31920121667E+03  0.24330528055E+03  0.42191438641E+03  0.94110078281E+02 0.  0.
         13    1    3    3    0    0  0.50417577026E+02  0.14888163271E+03  0.17229656095E+03  0.23322473614E+03  0.00000000000E+00 0. -1.
        -13    1    3    3    0    0  0.39405395323E+02  0.17031958396E+03  0.71008719594E+02  0.18868965027E+03  0.00000000000E+00 0.  1.
         22    1    1    2    0    0 -0.89822972349E+02 -0.31920121667E+03 -0.16499723741E+04  0.16829635820E+04  0.00000000000E+00 0. -1.
<mgrwt>
<rscale>  0 0.15658221E+04</rscale>
<asrwt>0</asrwt>
<pdfrwt beam="1">  1        2 0.27011885E+00 0.15658221E+04</pdfrwt>
<pdfrwt beam="2">  1       -2 0.53708529E-01 0.15658221E+04</pdfrwt>
<totfact> 0.28670816E+01</totfact>
</mgrwt>
</event>
<event>
 6    1  0.1001928E-005  0.3268889E+04  0.7818608E-02  0.8170857E-01
         -2   -1    0    0    0  501 -0.00000000000E+00  0.00000000000E+00  0.75444757962E+03  0.75444757962E+03  0.00000000000E+00 0.  1.
          2   -1    0    0  501    0  0.00000000000E+00 -0.00000000000E+00 -0.35408809099E+04  0.35408809099E+04  0.00000000000E+00 0. -1.
         23    2    1    2    0    0  0.49919951544E+03  0.48472346159E+03  0.54719864565E+03  0.88985361202E+03  0.90863098063E+02 0.  0.
         11    1    3    3    0    0  0.12454969506E+03  0.14411670559E+03  0.10440452638E+03  0.21721546101E+03  0.00000000000E+00 0.  1.
        -11    1    3    3    0    0  0.37464982038E+03  0.34060675600E+03  0.44279411926E+03  0.67263815101E+03  0.00000000000E+00 0. -1.
         22    1    1    2    0    0 -0.49919951544E+03 -0.48472346159E+03 -0.33336319759E+04  0.34054748775E+04  0.00000000000E+00 0. -1.
<mgrwt>
<rscale>  0 0.32688891E+04</rscale>
<asrwt>0</asrwt>
<pdfrwt beam="1">  1        2 0.54475092E+00 0.32688891E+04</pdfrwt>
<pdfrwt beam="2">  1       -2 0.11606886E+00 0.32688891E+04</pdfrwt>
<totfact> 0.36670772E-01</totfact>
</mgrwt>
</event>
<event>
 6    1  0.1001928E-005  0.2255057E+04  0.7818608E-02  0.8495855E-01
         -2   -1    0    0    0  501 -0.00000000000E+00  0.00000000000E+00  0.20446561691E+04  0.20446561691E+04  0.00000000000E+00 0.  1.
          2   -1    0    0  501    0  0.00000000000E+00 -0.00000000000E+00 -0.62177698976E+03  0.62177698976E+03  0.00000000000E+00 0. -1.
         23    2    1    2    0    0 -0.74125365963E+03 -0.81992129809E+02  0.17096652693E+04  0.18674175403E+04  0.90073524192E+02 0.  0.
         13    1    3    3    0    0 -0.25135817018E+03 -0.29853620055E+02  0.47821722183E+03  0.54107659311E+03  0.00000000000E+00 0.  1.
        -13    1    3    3    0    0 -0.48989548944E+03 -0.52138509755E+02  0.12314480474E+04  0.13263409472E+04  0.00000000000E+00 0. -1.
         22    1    1    2    0    0  0.74125365963E+03  0.81992129809E+02 -0.28678608992E+03  0.79901561852E+03  0.00000000000E+00 0. -1.
<mgrwt>
<rscale>  0 0.22550567E+04</rscale>
<asrwt>0</asrwt>
<pdfrwt beam="1">  1        2 0.95657999E-01 0.22550567E+04</pdfrwt>
<pdfrwt beam="2">  1       -2 0.31456248E+00 0.22550567E+04</pdfrwt>
<totfact> 0.11185529E+00</totfact>
</mgrwt>
</event>
<event>
 6    1  0.1001928E-005  0.5555047E+04  0.7818608E-02  0.7748160E-01
          1   -1    0    0  501    0  0.00000000000E+00  0.00000000000E+00  0.42920753127E+04  0.42920753127E+04  0.00000000000E+00 0. -1.
         -1   -1    0    0    0  501 -0.00000000000E+00 -0.00000000000E+00 -0.17974140770E+04  0.17974140770E+04  0.00000000000E+00 0.  1.
         23    2    1    2    0    0  0.15201103174E+04  0.18098019258E+04  0.28454191391E+04  0.37001067300E+04  0.90891962690E+02 0.  0.
         11    1    3    3    0    0  0.71217558747E+03  0.77891190014E+03  0.12563647119E+04  0.16408382324E+04  0.00000000000E+00 0. -1.
        -11    1    3    3    0    0  0.80793472994E+03  0.10308900256E+04  0.15890544273E+04  0.20592684977E+04  0.00000000000E+00 0.  1.
         22    1    1    2    0    0 -0.15201103174E+04 -0.18098019258E+04 -0.35075790348E+03  0.23893826597E+04  0.00000000000E+00 0.  1.
<mgrwt>
<rscale>  0 0.55550469E+04</rscale>
<asrwt>0</asrwt>
<pdfrwt beam="1">  1        1 0.66031928E+00 0.55550469E+04</pdfrwt>
<pdfrwt beam="2">  1       -1 0.27652524E+00 0.55550469E+04</pdfrwt>
<totfact> 0.16674361E-03</totfact>
</mgrwt>
</event>
<event>
 6    1  0.1001928E-005  0.1766118E+04  0.7818608E-02  0.8724528E-01
         -1   -1    0    0    0  501 -0.00000000000E+00  0.00000000000E+00  0.15355128579E+04  0.15355128579E+04  0.00000000000E+00 0.  1.
          1   -1    0    0  501    0  0.00000000000E+00 -0.00000000000E+00 -0.50783889783E+03  0.50783889783E+03  0.00000000000E+00 0. -1.
         23    2    1    2    0    0  0.11064458879E+03 -0.97864851010E+02  0.15196697886E+04  0.15296595819E+04  0.92964594867E+02 0.  0.
         11    1    3    3    0    0  0.80467064828E+02 -0.21660332911E+02  0.51992490706E+03  0.52656056397E+03  0.00000000000E+00 0.  1.
        -11    1    3    3    0    0  0.30177523962E+02 -0.76204518099E+02  0.99974488156E+03  0.10030990179E+04  0.00000000000E+00 0. -1.
         22    1    1    2    0    0 -0.11064458879E+03  0.97864851010E+02 -0.49199582859E+03  0.51369217381E+03  0.00000000000E+00 0. -1.
<mgrwt>
<rscale>  0 0.17661180E+04</rscale>
<asrwt>0</asrwt>
<pdfrwt beam="1">  1        1 0.78129062E-01 0.17661180E+04</pdfrwt>
<pdfrwt beam="2">  1       -1 0.23623275E+00 0.17661180E+04</pdfrwt>
<totfact> 0.35235824E+00</totfact>
</mgrwt>
</event>
<event>
 6    1  0.1001928E-005  0.1787413E+04  0.7818608E-02  0.8713022E-01
          2   -1    0    0  501    0  0.00000000000E+00  0.00000000000E+00  0.12604905044E+04  0.12604905044E+04  0.00000000000E+00 0. -1.
         -2   -1    0    0    0  501 -0.00000000000E+00 -0.00000000000E+00 -0.63365119973E+03  0.63365119973E+03  0.00000000000E+00 0.  1.
         23    2    1    2    0    0  0.23269349469E+03 -0.60518068813E+03  0.96240264498E+03  0.11640782253E+04  0.92028993852E+02 0.  0.
         13    1    3    3    0    0  0.96720970372E+02 -0.14376621870E+03  0.27664980593E+03  0.32643343405E+03  0.00000000000E+00 0.  1.
        -13    1    3    3    0    0  0.13597252431E+03 -0.46141446943E+03  0.68575283906E+03  0.83764479121E+03  0.00000000000E+00 0. -1.
         22    1    1    2    0    0 -0.23269349469E+03  0.60518068813E+03 -0.33556334034E+03  0.73006347884E+03  0.00000000000E+00 0.  1.
<mgrwt>
<rscale>  0 0.17874130E+04</rscale>
<asrwt>0</asrwt>
<pdfrwt beam="1">  1        2 0.19392162E+00 0.17874130E+04</pdfrwt>
<pdfrwt beam="2">  1       -2 0.97484800E-01 0.17874130E+04</pdfrwt>
<totfact> 0.14457698E+01</totfact>
</mgrwt>
</event>
<event>
 6    1  0.1001928E-005  0.2602290E+04  0.7818608E-02  0.8367424E-01
          2   -1    0    0  501    0  0.00000000000E+00  0.00000000000E+00  0.23531730635E+04  0.23531730635E+04  0.00000000000E+00 0. -1.
         -2   -1    0    0    0  501 -0.00000000000E+00 -0.00000000000E+00 -0.71944498904E+03  0.71944498904E+03  0.00000000000E+00 0.  1.
         23    2    1    2    0    0 -0.10637594546E+04 -0.67774832290E+03  0.44824326440E+03  0.13416353255E+04  0.90201750946E+02 0.  0.
         13    1    3    3    0    0 -0.60330824118E+03 -0.33182066057E+03  0.23637421528E+03  0.72798252335E+03  0.00000000000E+00 0.  1.
        -13    1    3    3    0    0 -0.46045121347E+03 -0.34592766234E+03  0.21186904912E+03  0.61365280210E+03  0.00000000000E+00 0. -1.
         22    1    1    2    0    0  0.10637594546E+04  0.67774832290E+03  0.11854848101E+04  0.17309827271E+04  0.00000000000E+00 0. -1.
<mgrwt>
<rscale>  0 0.26022902E+04</rscale>
<asrwt>0</asrwt>
<pdfrwt beam="1">  1        2 0.36202662E+00 0.26022902E+04</pdfrwt>
<pdfrwt beam="2">  1       -2 0.11068385E+00 0.26022902E+04</pdfrwt>
<totfact> 0.24199001E+00</totfact>
</mgrwt>
</event>
<event>
 6    1  0.1001928E-005  0.1503554E+04  0.7818608E-02  0.8882093E-01
         -1   -1    0    0    0  501 -0.00000000000E+00  0.00000000000E+00  0.11636273588E+04  0.11636273588E+04  0.00000000000E+00 0.  1.
          1   -1    0    0  501    0  0.00000000000E+00 -0.00000000000E+00 -0.48569582495E+03  0.48569582495E+03  0.00000000000E+00 0. -1.
         23    2    1    2    0    0 -0.46919783373E+03 -0.67087399722E+02 -0.29598821523E+03  0.56619484232E+03  0.91215401804E+02 0.  0.
         13    1    3    3    0    0 -0.13287274840E+03  0.45460093445E+01 -0.44589382648E+02  0.14022855099E+03  0.00000000000E+00 0.  1.
        -13    1    3    3    0    0 -0.33632508533E+03 -0.71633409067E+02 -0.25139883258E+03  0.42596629132E+03  0.00000000000E+00 0. -1.
         22    1    1    2    0    0  0.46919783373E+03  0.67087399722E+02  0.97391974907E+03  0.10831283414E+04  0.00000000000E+00 0.  1.
<mgrwt>
<rscale>  0 0.15035544E+04</rscale>
<asrwt>0</asrwt>
<pdfrwt beam="1">  1        1 0.74722435E-01 0.15035544E+04</pdfrwt>
<pdfrwt beam="2">  1       -1 0.17901959E+00 0.15035544E+04</pdfrwt>
<totfact> 0.94354753E+00</totfact>
</mgrwt>
</event>
<event>
 6    1  0.1001928E-005  0.1459738E+04  0.7818608E-02  0.8911677E-01
         -1   -1    0    0    0  501 -0.00000000000E+00  0.00000000000E+00  0.96270392804E+03  0.96270392804E+03  0.00000000000E+00 0.  1.
          1   -1    0    0  501    0  0.00000000000E+00 -0.00000000000E+00 -0.55334628878E+03  0.55334628878E+03  0.00000000000E+00 0. -1.
         23    2    1    2    0    0 -0.33221993379E+03 -0.15270168670E+03  0.85804652865E+03  0.93725007084E+03  0.92227763821E+02 0.  0.
         13    1    3    3    0    0 -0.29729938877E+03 -0.15837272933E+03  0.81263527743E+03  0.87968456965E+03  0.00000000000E+00 0. -1.
        -13    1    3    3    0    0 -0.34920545024E+02  0.56710426269E+01  0.45411251226E+02  0.57565501190E+02  0.00000000000E+00 0.  1.
         22    1    1    2    0    0  0.33221993379E+03  0.15270168670E+03 -0.44868888939E+03  0.57880014599E+03  0.00000000000E+00 0. -1.
<mgrwt>
<rscale>  0 0.14597378E+04</rscale>
<asrwt>0</asrwt>
<pdfrwt beam="1">  1        1 0.85130198E-01 0.14597378E+04</pdfrwt>
<pdfrwt beam="2">  1       -1 0.14810830E+00 0.14597378E+04</pdfrwt>
<totfact> 0.13476162E+01</totfact>
</mgrwt>
</event>
<event>
 6    1  0.1001928E-005  0.2212128E+04  0.7818608E-02  0.8513397E-01
         -1   -1    0    0    0  501 -0.00000000000E+00  0.00000000000E+00  0.84906084336E+03  0.84906084336E+03  0.00000000000E+00 0.  1.
          1   -1    0    0  501    0  0.00000000000E+00 -0.00000000000E+00 -0.14408593138E+04  0.14408593138E+04  0.00000000000E+00 0. -1.
         23    2    1    2    0    0 -0.67148776683E+03  0.57352306477E+01 -0.12037484704E+04  0.13813985469E+04  0.91229664266E+02 0.  0.
         11    1    3    3    0    0 -0.63321423331E+03  0.11065159271E+02 -0.11685309683E+04  0.13291152421E+04  0.00000000000E+00 0. -1.
        -11    1    3    3    0    0 -0.38273533519E+02 -0.53299286232E+01 -0.35217502101E+02  0.52283304805E+02  0.00000000000E+00 0.  1.
         22    1    1    2    0    0  0.67148776683E+03 -0.57352306477E+01  0.61194999992E+03  0.90852161024E+03  0.00000000000E+00 0.  1.
<mgrwt>
<rscale>  0 0.22121277E+04</rscale>
<asrwt>0</asrwt>
<pdfrwt beam="1">  1        1 0.22167066E+00 0.22121277E+04</pdfrwt>
<pdfrwt beam="2">  1       -1 0.13062474E+00 0.22121277E+04</pdfrwt>
<totfact> 0.32821047E+00</totfact>
</mgrwt>
</event>
<event>
 6    1  0.1001928E-005  0.7540040E+03  0.7818608E-02  0.9629090E-01
          1   -1    0    0  501    0  0.00000000000E+00  0.00000000000E+00  0.92536980879E+03  0.92536980879E+03  0.00000000000E+00 0. -1.
         -1   -1    0    0    0  501 -0.00000000000E+00 -0.00000000000E+00 -0.15359318778E+03  0.15359318778E+03  0.00000000000E+00 0.  1.
         23    2    1    2    0    0  0.74676031203E+02  0.13282705290E+03 -0.94446311642E+02  0.19943942972E+03  0.87386753714E+02 0.  0.
         13    1    3    3    0    0 -0.43955606882E+01  0.24417363230E+02  0.12565516438E+02  0.27810443797E+02  0.00000000000E+00 0.  1.
        -13    1    3    3    0    0  0.79071591891E+02  0.10840968967E+03 -0.10701182808E+03  0.17162898592E+03  0.00000000000E+00 0. -1.
         22    1    1    2    0    0 -0.74676031203E+02 -0.13282705290E+03  0.86622293265E+03  0.87952356686E+03  0.00000000000E+00 0. -1.
<mgrwt>
<rscale>  0 0.75400398E+03</rscale>
<asrwt>0</asrwt>
<pdfrwt beam="1">  1        1 0.14236458E+00 0.75400398E+03</pdfrwt>
<pdfrwt beam="2">  1       -1 0.23629722E-01 0.75400398E+03</pdfrwt>
<totfact> 0.27052114E+02</totfact>
</mgrwt>
</event>
<event>
 6    1  0.1001928E-005  0.3933775E+04  0.7818608E-02  0.8018041E-01
          1   -1    0    0  501    0  0.00000000000E+00  0.00000000000E+00  0.31078919731E+04  0.31078919731E+04  0.00000000000E+00 0. -1.
         -1   -1    0    0    0  501 -0.00000000000E+00 -0.00000000000E+00 -0.12447812718E+04  0.12447812718E+04  0.00000000000E+00 0.  1.
         23    2    1    2    0    0  0.23235539697E+03 -0.11267019682E+04 -0.83210355925E+03  0.14222080487E+04  0.82662234220E+02 0.  0.
         13    1    3    3    0    0  0.11225850590E+03 -0.51179964487E+03 -0.32903927770E+03  0.61871455042E+03  0.00000000000E+00 0.  1.
        -13    1    3    3    0    0  0.12009689107E+03 -0.61490232331E+03 -0.50306428155E+03  0.80349349831E+03  0.00000000000E+00 0. -1.
         22    1    1    2    0    0 -0.23235539697E+03  0.11267019682E+04  0.26952142605E+04  0.29304651961E+04  0.00000000000E+00 0. -1.
<mgrwt>
<rscale>  0 0.39337746E+04</rscale>
<asrwt>0</asrwt>
<pdfrwt beam="1">  1        1 0.47813722E+00 0.39337746E+04</pdfrwt>
<pdfrwt beam="2">  1       -1 0.19150481E+00 0.39337746E+04</pdfrwt>
<totfact> 0.67519208E-02</totfact>
</mgrwt>
</event>
<event>
 6    1  0.1001928E-005  0.1728705E+04  0.7818608E-02  0.8745160E-01
          1   -1    0    0  501    0  0.00000000000E+00  0.00000000000E+00  0.24009860107E+04  0.24009860107E+04  0.00000000000E+00 0. -1.
         -1   -1    0    0    0  501 -0.00000000000E+00 -0.00000000000E+00 -0.31116597021E+03  0.31116597021E+03  0.00000000000E+00 0.  1.
         23    2    1    2    0    0 -0.72586025318E+03  0.23492996360E+03  0.41858902048E+03  0.87501335870E+03  0.91468108648E+02 0.  0.
         11    1    3    3    0    0 -0.89585937805E+02  0.42435542397E+01  0.69645556019E+02  0.11355241732E+03  0.00000000000E+00 0. -1.
        -11    1    3    3    0    0 -0.63627431537E+03  0.23068640936E+03  0.34894346446E+03  0.76146094138E+03  0.00000000000E+00 0.  1.
         22    1    1    2    0    0  0.72586025318E+03 -0.23492996360E+03  0.16712310200E+04  0.18371386222E+04  0.00000000000E+00 0. -1.
<mgrwt>
<rscale>  0 0.17287049E+04</rscale>
<asrwt>0</asrwt>
<pdfrwt beam="1">  1        1 0.36938245E+00 0.17287049E+04</pdfrwt>
<pdfrwt beam="2">  1       -1 0.47871689E-01 0.17287049E+04</pdfrwt>
<totfact> 0.65718298E+00</totfact>
</mgrwt>
</event>
<event>
 6    1  0.1001928E-005  0.1451622E+04  0.7818608E-02  0.8917277E-01
          3   -1    0    0  501    0  0.00000000000E+00  0.00000000000E+00  0.99966192404E+03  0.99966192404E+03  0.00000000000E+00 0. -1.
         -3   -1    0    0    0  501 -0.00000000000E+00 -0.00000000000E+00 -0.52697989033E+03  0.52697989033E+03  0.00000000000E+00 0.  1.
         23    2    1    2    0    0 -0.45191824132E+03  0.54504726771E+03  0.39071824867E+03  0.81388331183E+03  0.91862258610E+02 0.  0.
         11    1    3    3    0    0 -0.26132539255E+03  0.33662566817E+03  0.28324382937E+03  0.51169802437E+03  0.00000000000E+00 0.  1.
        -11    1    3    3    0    0 -0.19059284877E+03  0.20842159954E+03  0.10747441930E+03  0.30218528746E+03  0.00000000000E+00 0. -1.
         22    1    1    2    0    0  0.45191824132E+03 -0.54504726771E+03  0.81963785038E+02  0.71275850253E+03  0.00000000000E+00 0.  1.
<mgrwt>
<rscale>  0 0.14516222E+04</rscale>
<asrwt>0</asrwt>
<pdfrwt beam="1">  1        3 0.15379414E+00 0.14516222E+04</pdfrwt>
<pdfrwt beam="2">  1       -3 0.81073829E-01 0.14516222E+04</pdfrwt>
<totfact> 0.10872090E+00</totfact>
</mgrwt>
</event>
<event>
 6    1  0.1001928E-005  0.4126142E+04  0.7818608E-02  0.7979572E-01
         -2   -1    0    0    0  501 -0.00000000000E+00  0.00000000000E+00  0.12610369200E+04  0.12610369200E+04  0.00000000000E+00 0. -1.
          2   -1    0    0  501    0  0.00000000000E+00 -0.00000000000E+00 -0.33752083383E+04  0.33752083383E+04  0.00000000000E+00 0.  1.
         23    2    1    2    0    0  0.37556127210E+03 -0.19149985632E+04 -0.30891045958E+03  0.19778184876E+04  0.89858398023E+02 0.  0.
         13    1    3    3    0    0  0.82983777456E+02 -0.30355247064E+03 -0.73905070683E+02  0.32325279461E+03  0.00000000000E+00 0. -1.
        -13    1    3    3    0    0  0.29257749464E+03 -0.16114460925E+04 -0.23500538889E+03  0.16545656930E+04  0.00000000000E+00 0.  1.
         22    1    1    2    0    0 -0.37556127210E+03  0.19149985632E+04 -0.18052609587E+04  0.26584267707E+04  0.00000000000E+00 0. -1.
<mgrwt>
<rscale>  0 0.41261422E+04</rscale>
<asrwt>0</asrwt>
<pdfrwt beam="1">  1        2 0.51926281E+00 0.41261422E+04</pdfrwt>
<pdfrwt beam="2">  1       -2 0.19400568E+00 0.41261422E+04</pdfrwt>
<totfact> 0.11263205E-01</totfact>
</mgrwt>
</event>
<event>
 6    1  0.1001928E-005  0.3027880E+04  0.7818608E-02  0.8235814E-01
         -1   -1    0    0    0  501 -0.00000000000E+00  0.00000000000E+00  0.16295219940E+04  0.16295219940E+04  0.00000000000E+00 0.  1.
          1   -1    0    0  501    0  0.00000000000E+00 -0.00000000000E+00 -0.14065561579E+04  0.14065561579E+04  0.00000000000E+00 0. -1.
         23    2    1    2    0    0 -0.42095710449E+03 -0.14468102023E+04 -0.20553110491E+02  0.15097210106E+04  0.91490186939E+02 0.  0.
         13    1    3    3    0    0 -0.17152571608E+03 -0.74096197887E+03 -0.27755416325E+02  0.76106247348E+03  0.00000000000E+00 0.  1.
        -13    1    3    3    0    0 -0.24943138841E+03 -0.70584822342E+03  0.72023058334E+01  0.74865853715E+03  0.00000000000E+00 0. -1.
         22    1    1    2    0    0  0.42095710449E+03  0.14468102023E+04  0.24351894658E+03  0.15263571412E+04  0.00000000000E+00 0. -1.
<mgrwt>
<rscale>  0 0.30278799E+04</rscale>
<asrwt>0</asrwt>
<pdfrwt beam="1">  1        1 0.21639325E+00 0.30278799E+04</pdfrwt>
<pdfrwt beam="2">  1       -1 0.25069569E+00 0.30278799E+04</pdfrwt>
<totfact> 0.44528508E-01</totfact>
</mgrwt>
</event>
<event>
 6    1  0.1001928E-005  0.4557074E+04  0.7818608E-02  0.7900720E-01
          2   -1    0    0  501    0  0.00000000000E+00  0.00000000000E+00  0.33962772873E+04  0.33962772873E+04  0.00000000000E+00 0. -1.
         -2   -1    0    0    0  501 -0.00000000000E+00 -0.00000000000E+00 -0.15286530911E+04  0.15286530911E+04  0.00000000000E+00 0.  1.
         23    2    1    2    0    0 -0.18349307609E+04  0.74139703513E+03 -0.28398354214E+03  0.20015665076E+04  0.94770096012E+02 0.  0.
         11    1    3    3    0    0 -0.14825306571E+04  0.63328765540E+03 -0.24996524981E+03  0.16313899074E+04  0.00000000000E+00 0.  1.
        -11    1    3    3    0    0 -0.35240010378E+03  0.10810937972E+03 -0.34018292323E+02  0.37017660021E+03  0.00000000000E+00 0. -1.
         22    1    1    2    0    0  0.18349307609E+04 -0.74139703513E+03  0.21516077384E+04  0.29233638708E+04  0.00000000000E+00 0.  1.
<mgrwt>
<rscale>  0 0.45570735E+04</rscale>
<asrwt>0</asrwt>
<pdfrwt beam="1">  1        2 0.52250419E+00 0.45570735E+04</pdfrwt>
<pdfrwt beam="2">  1       -2 0.23517740E+00 0.45570735E+04</pdfrwt>
<totfact> 0.57315563E-02</totfact>
</mgrwt>
</event>
<event>
 6    1  0.1001928E-005  0.2099887E+04  0.7818608E-02  0.8561293E-01
          2   -1    0    0  501    0  0.00000000000E+00  0.00000000000E+00  0.22369513007E+04  0.22369513007E+04  0.00000000000E+00 0. -1.
         -2   -1    0    0    0  501 -0.00000000000E+00 -0.00000000000E+00 -0.49280548793E+03  0.49280548793E+03  0.00000000000E+00 0.  1.
         23    2    1    2    0    0  0.37433481134E+03 -0.19805875270E+03 -0.37241801783E+03  0.57123964264E+03  0.90916053706E+02 0.  0.
         11    1    3    3    0    0  0.30895161903E+03 -0.12091712606E+03 -0.29363107321E+03  0.44304769656E+03  0.00000000000E+00 0.  1.
        -11    1    3    3    0    0  0.65383192310E+02 -0.77141626640E+02 -0.78786944620E+02  0.12819194608E+03  0.00000000000E+00 0. -1.
         22    1    1    2    0    0 -0.37433481134E+03  0.19805875270E+03  0.21165638306E+04  0.21585171460E+04  0.00000000000E+00 0. -1.
<mgrwt>
<rscale>  0 0.20998875E+04</rscale>
<asrwt>0</asrwt>
<pdfrwt beam="1">  1        2 0.34414635E+00 0.20998875E+04</pdfrwt>
<pdfrwt beam="2">  1       -2 0.75816230E-01 0.20998875E+04</pdfrwt>
<totfact> 0.70705563E+00</totfact>
</mgrwt>
</event>
<event>
 6    1  0.1001928E-005  0.3467311E+04  0.7818608E-02  0.8121581E-01
         -2   -1    0    0    0  501 -0.00000000000E+00  0.00000000000E+00  0.14926604353E+04  0.14926604353E+04  0.00000000000E+00 0.  1.
          2   -1    0    0  501    0  0.00000000000E+00 -0.00000000000E+00 -0.20135595135E+04  0.20135595135E+04  0.00000000000E+00 0. -1.
         23    2    1    2    0    0 -0.30837771257E+03  0.15811628230E+04  0.38375192732E+03  0.16586360865E+04  0.92927064399E+02 0.  0.
         13    1    3    3    0    0 -0.44126337882E+02  0.10529380320E+03  0.32506187226E+02  0.11870371053E+03  0.00000000000E+00 0. -1.
        -13    1    3    3    0    0 -0.26425137468E+03  0.14758690198E+04  0.35124574009E+03  0.15399323760E+04  0.00000000000E+00 0.  1.
         22    1    1    2    0    0  0.30837771257E+03 -0.15811628230E+04 -0.90465100548E+03  0.18475838623E+04  0.00000000000E+00 0. -1.
<mgrwt>
<rscale>  0 0.34673106E+04</rscale>
<asrwt>0</asrwt>
<pdfrwt beam="1">  1        2 0.30977839E+00 0.34673106E+04</pdfrwt>
<pdfrwt beam="2">  1       -2 0.22964007E+00 0.34673106E+04</pdfrwt>
<totfact> 0.46497299E-01</totfact>
</mgrwt>
</event>
<event>
 6    1  0.1001928E-005  0.1696271E+04  0.7818608E-02  0.8763494E-01
          1   -1    0    0  501    0  0.00000000000E+00  0.00000000000E+00  0.86482805077E+03  0.86482805077E+03  0.00000000000E+00 0. -1.
         -1   -1    0    0    0  501 -0.00000000000E+00 -0.00000000000E+00 -0.83176481955E+03  0.83176481955E+03  0.00000000000E+00 0.  1.
         23    2    1    2    0    0  0.77166651599E+03  0.31108243856E+02 -0.32789408377E+03  0.84410995672E+03  0.92575126982E+02 0.  0.
         13    1    3    3    0    0  0.68542033630E+03  0.43155422807E+02 -0.26261421645E+03  0.73527522372E+03  0.00000000000E+00 0.  1.
        -13    1    3    3    0    0  0.86246179690E+02 -0.12047178951E+02 -0.65279867316E+02  0.10883473301E+03  0.00000000000E+00 0. -1.
         22    1    1    2    0    0 -0.77166651599E+03 -0.31108243856E+02  0.36095731498E+03  0.85248291360E+03  0.00000000000E+00 0. -1.
<mgrwt>
<rscale>  0 0.16962707E+04</rscale>
<asrwt>0</asrwt>
<pdfrwt beam="1">  1        1 0.13305047E+00 0.16962707E+04</pdfrwt>
<pdfrwt beam="2">  1       -1 0.12796382E+00 0.16962707E+04</pdfrwt>
<totfact> 0.97782717E+00</totfact>
</mgrwt>
</event>
<event>
 6    1  0.1001928E-005  0.1676971E+04  0.7818608E-02  0.8774609E-01
         -1   -1    0    0    0  501 -0.00000000000E+00  0.00000000000E+00  0.80986257630E+03  0.80986257630E+03  0.00000000000E+00 0.  1.
          1   -1    0    0  501    0  0.00000000000E+00 -0.00000000000E+00 -0.86811955747E+03  0.86811955747E+03  0.00000000000E+00 0. -1.
         23    2    1    2    0    0  0.23658308236E+03  0.36118184453E+03 -0.74516341372E+03  0.86664722958E+03  0.96876352728E+02 0.  0.
         13    1    3    3    0    0  0.11158184831E+03  0.93882851319E+02 -0.28197923505E+03  0.31745359919E+03  0.00000000000E+00 0. -1.
        -13    1    3    3    0    0  0.12500123405E+03  0.26729899321E+03 -0.46318417868E+03  0.54919363039E+03  0.00000000000E+00 0.  1.
         22    1    1    2    0    0 -0.23658308236E+03 -0.36118184453E+03  0.68690643255E+03  0.81133490419E+03  0.00000000000E+00 0.  1.
<mgrwt>
<rscale>  0 0.16769705E+04</rscale>
<asrwt>0</asrwt>
<pdfrwt beam="1">  1        1 0.13355686E+00 0.16769705E+04</pdfrwt>
<pdfrwt beam="2">  1       -1 0.12459424E+00 0.16769705E+04</pdfrwt>
<totfact> 0.10404224E+01</totfact>
</mgrwt>
</event>
<event>
 6    1  0.1001928E-005  0.4093869E+04  0.7818608E-02  0.7985873E-01
          2   -1    0    0  501    0  0.00000000000E+00  0.00000000000E+00  0.24542794586E+04  0.24542794586E+04  0.00000000000E+00 0. -1.
         -2   -1    0    0    0  501 -0.00000000000E+00 -0.00000000000E+00 -0.17071976861E+04  0.17071976861E+04  0.00000000000E+00 0.  1.
         23    2    1    2    0    0 -0.88818196121E+03 -0.17527339310E+04 -0.20587374566E+03  0.19776576355E+04  0.88330601440E+02 0.  0.
         13    1    3    3    0    0 -0.36041846258E+03 -0.62268947601E+03 -0.89804997977E+02  0.72505764555E+03  0.00000000000E+00 0. -1.
        -13    1    3    3    0    0 -0.52776349862E+03 -0.11300444550E+04 -0.11606874768E+03  0.12525999900E+04  0.00000000000E+00 0.  1.
         22    1    1    2    0    0  0.88818196121E+03  0.17527339310E+04  0.95295551813E+03  0.21838195092E+04  0.00000000000E+00 0.  1.
<mgrwt>
<rscale>  0 0.40938687E+04</rscale>
<asrwt>0</asrwt>
<pdfrwt beam="1">  1        2 0.37758146E+00 0.40938687E+04</pdfrwt>
<pdfrwt beam="2">  1       -2 0.26264580E+00 0.40938687E+04</pdfrwt>
<totfact> 0.15570441E-01</totfact>
</mgrwt>
</event>
<event>
 6    1  0.1244113E-005  0.3357528E+04  0.7818608E-02  0.8148410E-01
          1   -1    0    0  501    0  0.00000000000E+00  0.00000000000E+00  0.26979230402E+04  0.26979230402E+04  0.00000000000E+00 0. -1.
         -1   -1    0    0    0  501 -0.00000000000E+00 -0.00000000000E+00 -0.10445993892E+04  0.10445993892E+04  0.00000000000E+00 0.  1.
         23    2    1    2    0    0 -0.11190517870E+03 -0.22333056417E+03  0.26763263905E+04  0.26894631172E+04  0.89942206566E+02 0.  0.
         11    1    3    3    0    0 -0.92581572962E+00 -0.78259043799E+02  0.59243477587E+03  0.59758204351E+03  0.00000000000E+00 0. -1.
        -11    1    3    3    0    0 -0.11097936297E+03 -0.14507152037E+03  0.20838916146E+04  0.20918810737E+04  0.00000000000E+00 0.  1.
         22    1    1    2    0    0  0.11190517870E+03  0.22333056417E+03 -0.10230027395E+04  0.10530593122E+04  0.00000000000E+00 0.  1.
<mgrwt>
<rscale>  0 0.33575281E+04</rscale>
<asrwt>0</asrwt>
<pdfrwt beam="1">  1        1 0.41506508E+00 0.33575281E+04</pdfrwt>
<pdfrwt beam="2">  1       -1 0.16070760E+00 0.33575281E+04</pdfrwt>
<totfact> 0.23457093E-01</totfact>
</mgrwt>
</event>
<event>
 6    1  0.1030435E-005  0.3138186E+04  0.7818608E-02  0.8205336E-01
          2   -1    0    0  501    0  0.00000000000E+00  0.00000000000E+00  0.18244143768E+04  0.18244143768E+04  0.00000000000E+00 0. -1.
         -2   -1    0    0    0  501 -0.00000000000E+00 -0.00000000000E+00 -0.13495029168E+04  0.13495029168E+04  0.00000000000E+00 0.  1.
         23    2    1    2    0    0 -0.61963888707E+03  0.99723668376E+03  0.12884344268E+04  0.17455430530E+04  0.91781935870E+02 0.  0.
         13    1    3    3    0    0 -0.31365653844E+03  0.53012457900E+03  0.61063004005E+03  0.86734165078E+03  0.00000000000E+00 0. -1.
        -13    1    3    3    0    0 -0.30598234863E+03  0.46711210477E+03  0.67780438675E+03  0.87820140218E+03  0.00000000000E+00 0.  1.
         22    1    1    2    0    0  0.61963888707E+03 -0.99723668376E+03 -0.81352296685E+03  0.14283742407E+04  0.00000000000E+00 0.  1.
<mgrwt>
<rscale>  0 0.31381858E+04</rscale>
<asrwt>0</asrwt>
<pdfrwt beam="1">  1        2 0.28067914E+00 0.31381858E+04</pdfrwt>
<pdfrwt beam="2">  1       -2 0.20761583E+00 0.31381858E+04</pdfrwt>
<totfact> 0.83986612E-01</totfact>
</mgrwt>
</event>
<event>
 6    1  0.1001928E-005  0.1550804E+04  0.7818608E-02  0.8851355E-01
          1   -1    0    0  501    0  0.00000000000E+00  0.00000000000E+00  0.21060487415E+04  0.21060487415E+04  0.00000000000E+00 0. -1.
         -1   -1    0    0    0  501 -0.00000000000E+00 -0.00000000000E+00 -0.28548624063E+03  0.28548624063E+03  0.00000000000E+00 0.  1.
         23    2    1    2    0    0  0.73621736616E+03  0.19219846691E+03  0.70481254741E+03  0.10410335125E+04  0.89631390503E+02 0.  0.
         13    1    3    3    0    0  0.51274104978E+03  0.13019822812E+03  0.43220670756E+03  0.68312341549E+03  0.00000000000E+00 0. -1.
        -13    1    3    3    0    0  0.22347631639E+03  0.62000238793E+02  0.27260583984E+03  0.35791009697E+03  0.00000000000E+00 0.  1.
         22    1    1    2    0    0 -0.73621736616E+03 -0.19219846691E+03  0.11157499534E+04  0.13505014696E+04  0.00000000000E+00 0. -1.
<mgrwt>
<rscale>  0 0.15508036E+04</rscale>
<asrwt>0</asrwt>
<pdfrwt beam="1">  1        1 0.32400749E+00 0.15508036E+04</pdfrwt>
<pdfrwt beam="2">  1       -1 0.43920962E-01 0.15508036E+04</pdfrwt>
<totfact> 0.12472236E+01</totfact>
</mgrwt>
</event>
<event>
 6    1  0.1001928E-005  0.2107505E+04  0.7818608E-02  0.8557945E-01
         -2   -1    0    0    0  501 -0.00000000000E+00  0.00000000000E+00  0.12591904826E+04  0.12591904826E+04  0.00000000000E+00 0.  1.
          2   -1    0    0  501    0  0.00000000000E+00 -0.00000000000E+00 -0.88183184032E+03  0.88183184032E+03  0.00000000000E+00 0. -1.
         23    2    1    2    0    0 -0.10557719738E+03  0.65639401081E+03  0.10169872230E+04  0.12184583070E+04  0.91531372720E+02 0.  0.
         11    1    3    3    0    0 -0.58611526120E+02  0.24072264292E+03  0.30822019325E+03  0.39545213280E+03  0.00000000000E+00 0. -1.
        -11    1    3    3    0    0 -0.46965671258E+02  0.41567136789E+03  0.70876702976E+03  0.82300617424E+03  0.00000000000E+00 0.  1.
         22    1    1    2    0    0  0.10557719738E+03 -0.65639401081E+03 -0.63962858075E+03  0.92256401585E+03  0.00000000000E+00 0. -1.
<mgrwt>
<rscale>  0 0.21075049E+04</rscale>
<asrwt>0</asrwt>
<pdfrwt beam="1">  1        2 0.13566644E+00 0.21075049E+04</pdfrwt>
<pdfrwt beam="2">  1       -2 0.19372161E+00 0.21075049E+04</pdfrwt>
<totfact> 0.40651106E+00</totfact>
</mgrwt>
</event>
<event>
 6    1  0.1001928E-005  0.1955068E+04  0.7818608E-02  0.8627921E-01
          2   -1    0    0  501    0  0.00000000000E+00  0.00000000000E+00  0.90534776365E+03  0.90534776365E+03  0.00000000000E+00 0. -1.
         -2   -1    0    0    0  501 -0.00000000000E+00 -0.00000000000E+00 -0.10554760227E+04  0.10554760227E+04  0.00000000000E+00 0.  1.
         23    2    1    2    0    0 -0.65707478934E+03 -0.67219005615E+03 -0.33739087403E+03  0.10023593700E+04  0.85469026076E+02 0.  0.
         11    1    3    3    0    0 -0.22392365504E+03 -0.23475317775E+03 -0.15982760083E+03  0.36165690888E+03  0.00000000000E+00 0. -1.
        -11    1    3    3    0    0 -0.43315113430E+03 -0.43743687839E+03 -0.17756327320E+03  0.64070246114E+03  0.00000000000E+00 0.  1.
         22    1    1    2    0    0  0.65707478934E+03  0.67219005615E+03  0.18726261500E+03  0.95846441632E+03  0.00000000000E+00 0.  1.
<mgrwt>
<rscale>  0 0.19550681E+04</rscale>
<asrwt>0</asrwt>
<pdfrwt beam="1">  1        2 0.13928427E+00 0.19550681E+04</pdfrwt>
<pdfrwt beam="2">  1       -2 0.16238093E+00 0.19550681E+04</pdfrwt>
<totfact> 0.65575428E+00</totfact>
</mgrwt>
</event>
<event>
 6    1  0.1001928E-005  0.2435266E+04  0.7818608E-02  0.8426417E-01
         -2   -1    0    0    0  501 -0.00000000000E+00  0.00000000000E+00  0.12910306697E+04  0.12910306697E+04  0.00000000000E+00 0.  1.
          2   -1    0    0  501    0  0.00000000000E+00 -0.00000000000E+00 -0.11484085032E+04  0.11484085032E+04  0.00000000000E+00 0. -1.
         23    2    1    2    0    0 -0.13002406209E+03 -0.10864894239E+04 -0.45944066214E+03  0.11905015545E+04  0.94035655057E+02 0.  0.
         13    1    3    3    0    0 -0.55932246950E+02 -0.60780744870E+03 -0.20870152705E+03  0.64506948334E+03  0.00000000000E+00 0. -1.
        -13    1    3    3    0    0 -0.74091815141E+02 -0.47868197518E+03 -0.25073913509E+03  0.54543207121E+03  0.00000000000E+00 0.  1.
         22    1    1    2    0    0  0.13002406209E+03  0.10864894239E+04  0.60206282868E+03  0.12489376184E+04  0.00000000000E+00 0. -1.
<mgrwt>
<rscale>  0 0.24352664E+04</rscale>
<asrwt>0</asrwt>
<pdfrwt beam="1">  1        2 0.17667823E+00 0.24352664E+04</pdfrwt>
<pdfrwt beam="2">  1       -2 0.19862010E+00 0.24352664E+04</pdfrwt>
<totfact> 0.24776154E+00</totfact>
</mgrwt>
</event>
<event>
 6    1  0.1001928E-005  0.3889882E+03  0.7818608E-02  0.1047661E+00
         -1   -1    0    0    0  501 -0.00000000000E+00  0.00000000000E+00  0.19964146416E+02  0.19964146416E+02  0.00000000000E+00 0.  1.
          1   -1    0    0  501    0  0.00000000000E+00 -0.00000000000E+00 -0.18947949228E+04  0.18947949228E+04  0.00000000000E+00 0. -1.
         23    2    1    2    0    0 -0.17529104382E+03 -0.16051619479E+02 -0.12537218452E+04  0.12691888493E+04  0.89650796725E+02 0.  0.
         13    1    3    3    0    0 -0.11982016341E+03 -0.57915314734E+01 -0.53630387551E+03  0.54955642138E+03  0.00000000000E+00 0.  1.
        -13    1    3    3    0    0 -0.55470880418E+02 -0.10260088005E+02 -0.71741796971E+03  0.71963242788E+03  0.00000000000E+00 0. -1.
         22    1    1    2    0    0  0.17529104382E+03  0.16051619479E+02 -0.62110893117E+03  0.64557021997E+03  0.00000000000E+00 0. -1.
<mgrwt>
<rscale>  0 0.38898824E+03</rscale>
<asrwt>0</asrwt>
<pdfrwt beam="1">  1        1 0.29150699E+00 0.38898824E+03</pdfrwt>
<pdfrwt beam="2">  1       -1 0.30714063E-02 0.38898824E+03</pdfrwt>
<totfact> 0.14286593E+03</totfact>
</mgrwt>
</event>
<event>
 6    1  0.1001928E-005  0.3530894E+04  0.7818608E-02  0.8106507E-01
         -2   -1    0    0    0  501 -0.00000000000E+00  0.00000000000E+00  0.37719946850E+04  0.37719946850E+04  0.00000000000E+00 0.  1.
          2   -1    0    0  501    0  0.00000000000E+00 -0.00000000000E+00 -0.82630091311E+03  0.82630091311E+03  0.00000000000E+00 0. -1.
         23    2    1    2    0    0  0.14439473601E+04 -0.17630582547E+03  0.27738766815E+04  0.31335127352E+04  0.91883047256E+02 0.  0.
         13    1    3    3    0    0  0.75720556502E+03 -0.58849776411E+02  0.15143943706E+04  0.16941705563E+04  0.00000000000E+00 0.  1.
        -13    1    3    3    0    0  0.68674179509E+03 -0.11745604905E+03  0.12594823109E+04  0.14393421789E+04  0.00000000000E+00 0. -1.
         22    1    1    2    0    0 -0.14439473601E+04  0.17630582547E+03  0.17181709031E+03  0.14647828629E+04  0.00000000000E+00 0. -1.
<mgrwt>
<rscale>  0 0.35308937E+04</rscale>
<asrwt>0</asrwt>
<pdfrwt beam="1">  1        2 0.12712322E+00 0.35308937E+04</pdfrwt>
<pdfrwt beam="2">  1       -2 0.58030687E+00 0.35308937E+04</pdfrwt>
<totfact> 0.16470770E-02</totfact>
</mgrwt>
</event>
<event>
 6    1  0.1001928E-005  0.2807246E+04  0.7818608E-02  0.8301022E-01
         -2   -1    0    0    0  501 -0.00000000000E+00  0.00000000000E+00  0.89744413440E+03  0.89744413440E+03  0.00000000000E+00 0.  1.
          2   -1    0    0  501    0  0.00000000000E+00 -0.00000000000E+00 -0.21952981633E+04  0.21952981633E+04  0.00000000000E+00 0. -1.
         23    2    1    2    0    0  0.10430640642E+04 -0.91599553773E+03 -0.43185894343E+03  0.14565950075E+04  0.90202005241E+02 0.  0.
         11    1    3    3    0    0  0.61398920294E+03 -0.56658428529E+03 -0.30056081659E+03  0.88788360618E+03  0.00000000000E+00 0.  1.
        -11    1    3    3    0    0  0.42907486126E+03 -0.34941125244E+03 -0.13129812683E+03  0.56871140133E+03  0.00000000000E+00 0. -1.
         22    1    1    2    0    0 -0.10430640642E+04  0.91599553773E+03 -0.86599508549E+03  0.16361472902E+04  0.00000000000E+00 0.  1.
<mgrwt>
<rscale>  0 0.28072460E+04</rscale>
<asrwt>0</asrwt>
<pdfrwt beam="1">  1        2 0.33773818E+00 0.28072460E+04</pdfrwt>
<pdfrwt beam="2">  1       -2 0.13806833E+00 0.28072460E+04</pdfrwt>
<totfact> 0.16822502E+00</totfact>
</mgrwt>
</event>
<event>
 6    1  0.1862917E-005  0.3169088E+04  0.7818608E-02  0.8197029E-01
          2   -1    0    0  501    0  0.00000000000E+00  0.00000000000E+00  0.20540539714E+04  0.20540539714E+04  0.00000000000E+00 0. -1.
         -2   -1    0    0    0  501 -0.00000000000E+00 -0.00000000000E+00 -0.12223531142E+04  0.12223531142E+04  0.00000000000E+00 0.  1.
         23    2    1    2    0    0 -0.75072959690E+02  0.30107933836E+03  0.20213062133E+04  0.20469984389E+04  0.90769399974E+02 0.  0.
         13    1    3    3    0    0  0.38551573492E+01  0.89796384848E+02  0.80073465141E+03  0.80576313824E+03  0.00000000000E+00 0.  1.
        -13    1    3    3    0    0 -0.78928117040E+02  0.21128295352E+03  0.12205715619E+04  0.12412353007E+04  0.00000000000E+00 0. -1.
         22    1    1    2    0    0  0.75072959690E+02 -0.30107933836E+03 -0.11896053560E+04  0.12294086466E+04  0.00000000000E+00 0.  1.
<mgrwt>
<rscale>  0 0.31690877E+04</rscale>
<asrwt>0</asrwt>
<pdfrwt beam="1">  1        2 0.31600830E+00 0.31690877E+04</pdfrwt>
<pdfrwt beam="2">  1       -2 0.18805433E+00 0.31690877E+04</pdfrwt>
<totfact> 0.84071264E-01</totfact>
</mgrwt>
</event>
<event>
 6    1  0.1001928E-005  0.3518982E+04  0.7818608E-02  0.8109306E-01
          1   -1    0    0  501    0  0.00000000000E+00  0.00000000000E+00  0.18012902777E+04  0.18012902777E+04  0.00000000000E+00 0. -1.
         -1   -1    0    0    0  501 -0.00000000000E+00 -0.00000000000E+00 -0.17186612468E+04  0.17186612468E+04  0.00000000000E+00 0.  1.
         23    2    1    2    0    0 -0.10531915104E+04  0.96078353089E+03  0.10708322794E+04  0.17853440729E+04  0.91947469459E+02 0.  0.
         11    1    3    3    0    0 -0.99781685409E+02  0.10469030946E+03  0.77725405445E+02  0.16418795416E+03  0.00000000000E+00 0.  1.
        -11    1    3    3    0    0 -0.95340982495E+03  0.85609322143E+03  0.99310687399E+03  0.16211561187E+04  0.00000000000E+00 0. -1.
         22    1    1    2    0    0  0.10531915104E+04 -0.96078353089E+03 -0.98820324851E+03  0.17346074516E+04  0.00000000000E+00 0.  1.
<mgrwt>
<rscale>  0 0.35189816E+04</rscale>
<asrwt>0</asrwt>
<pdfrwt beam="1">  1        1 0.27712158E+00 0.35189816E+04</pdfrwt>
<pdfrwt beam="2">  1       -1 0.26440942E+00 0.35189816E+04</pdfrwt>
<totfact> 0.18603419E-01</totfact>
</mgrwt>
</event>
<event>
 6    1  0.1001928E-005  0.1449873E+04  0.7818608E-02  0.8918489E-01
         -2   -1    0    0    0  501 -0.00000000000E+00  0.00000000000E+00  0.41974827441E+03  0.41974827441E+03  0.00000000000E+00 0.  1.
          2   -1    0    0  501    0  0.00000000000E+00 -0.00000000000E+00 -0.12520190235E+04  0.12520190235E+04  0.00000000000E+00 0. -1.
         23    2    1    2    0    0  0.37476821855E+03 -0.38320730719E+02 -0.11288251669E+04  0.11923257283E+04  0.73991140445E+02 0.  0.
         13    1    3    3    0    0  0.24480421723E+03 -0.46665720547E+02 -0.65099325113E+03  0.69706456463E+03  0.00000000000E+00 0. -1.
        -13    1    3    3    0    0  0.12996400131E+03  0.83449898278E+01 -0.47783191577E+03  0.49526116365E+03  0.00000000000E+00 0.  1.
         22    1    1    2    0    0 -0.37476821855E+03  0.38320730719E+02  0.29655441776E+03  0.47944156967E+03  0.00000000000E+00 0.  1.
<mgrwt>
<rscale>  0 0.14498729E+04</rscale>
<asrwt>0</asrwt>
<pdfrwt beam="1">  1        2 0.19261831E+00 0.14498729E+04</pdfrwt>
<pdfrwt beam="2">  1       -2 0.64576659E-01 0.14498729E+04</pdfrwt>
<totfact> 0.37874549E+01</totfact>
</mgrwt>
</event>
