<event>
 6    1  0.1588846E-005  0.2370603E+04  0.7818608E-02  0.8450592E-01
          2   -1    0    0  501    0  0.00000000000E+00  0.00000000000E+00  0.30132472872E+04  0.30132472872E+04  0.00000000000E+00 0. -1.
         -2   -1    0    0    0  501 -0.00000000000E+00 -0.00000000000E+00 -0.46625429585E+03  0.46625429585E+03  0.00000000000E+00 0.  1.
         23    2    1    2    0    0 -0.98324064505E+03 -0.63617631281E+03  0.15270517317E+04  0.19265165091E+04  0.89980004453E+02 0.  0.
         11    1    3    3    0    0 -0.87447169622E+03 -0.59245738164E+03  0.13979628215E+04  0.17521434150E+04  0.00000000000E+00 0. -1.
        -11    1    3    3    0    0 -0.10876894882E+03 -0.43718931167E+02  0.12908891022E+03  0.17437309401E+03  0.00000000000E+00 0.  1.
         22    1    1    2    0    0  0.98324064505E+03  0.63617631281E+03  0.10199412597E+04  0.15529850740E+04  0.00000000000E+00 0. -1.
<mgrwt>
<rscale>  0 0.23706029E+04</rscale>
<asrwt>0</asrwt>
<pdfrwt beam="1">  1        2 0.46357649E+00 0.23706029E+04</pdfrwt>
<pdfrwt beam="2">  1       -2 0.71731432E-01 0.23706029E+04</pdfrwt>
<totfact> 0.27144699E+00</totfact>
</mgrwt>
</event>
<event>
 6    1  0.1588846E-005  0.8765791E+03  0.7818608E-02  0.9455342E-01
         -2   -1    0    0    0  501 -0.00000000000E+00  0.00000000000E+00  0.11182111720E+03  0.11182111720E+03  0.00000000000E+00 0.  1.
          2   -1    0    0  501    0  0.00000000000E+00 -0.00000000000E+00 -0.17179021214E+04  0.17179021214E+04  0.00000000000E+00 0. -1.
         23    2    1    2    0    0 -0.23959937465E+03  0.25410000807E+03 -0.13483092892E+04  0.13956484392E+04  0.89005348512E+02 0.  0.
         13    1    3    3    0    0 -0.36758334797E+01  0.28476281526E+02 -0.19227043263E+03  0.19440249388E+03  0.00000000000E+00 0. -1.
        -13    1    3    3    0    0 -0.23592354117E+03  0.22562372654E+03 -0.11560388565E+04  0.12012459453E+04  0.00000000000E+00 0.  1.
         22    1    1    2    0    0  0.23959937465E+03 -0.25410000807E+03 -0.25777171502E+03  0.43407479942E+03  0.00000000000E+00 0.  1.
<mgrwt>
<rscale>  0 0.87657911E+03</rscale>
<asrwt>0</asrwt>
<pdfrwt beam="1">  1        2 0.26429263E+00 0.87657911E+03</pdfrwt>
<pdfrwt beam="2">  1       -2 0.17203249E-01 0.87657911E+03</pdfrwt>
<totfact> 0.26800728E+02</totfact>
</mgrwt>
</event>
<event>
 6    1  0.1588846E-005  0.2856160E+04  0.7818608E-02  0.8286042E-01
         -2   -1    0    0    0  501 -0.00000000000E+00  0.00000000000E+00  0.97621635990E+03  0.97621635990E+03  0.00000000000E+00 0.  1.
          2   -1    0    0  501    0  0.00000000000E+00 -0.00000000000E+00 -0.20890991849E+04  0.20890991849E+04  0.00000000000E+00 0. -1.
         23    2    1    2    0    0  0.94743630900E+03 -0.84516532785E+03 -0.12553072994E+04  0.17877300401E+04  0.90787054080E+02 0.  0.
         13    1    3    3    0    0  0.41500098939E+03 -0.35968875654E+03 -0.60557234949E+03  0.81750822213E+03  0.00000000000E+00 0. -1.
        -13    1    3    3    0    0  0.53243531961E+03 -0.48547657131E+03 -0.64973494991E+03  0.97022181793E+03  0.00000000000E+00 0.  1.
         22    1    1    2    0    0 -0.94743630900E+03  0.84516532785E+03  0.14242447440E+03  0.12775855047E+04  0.00000000000E+00 0.  1.
<mgrwt>
<rscale>  0 0.28561602E+04</rscale>
<asrwt>0</asrwt>
<pdfrwt beam="1">  1        2 0.32139987E+00 0.28561602E+04</pdfrwt>
<pdfrwt beam="2">  1       -2 0.15018714E+00 0.28561602E+04</pdfrwt>
<totfact> 0.15413844E+00</totfact>
</mgrwt>
</event>
<event>
 6    1  0.1588846E-005  0.2933852E+04  0.7818608E-02  0.8262876E-01
          2   -1    0    0  501    0  0.00000000000E+00  0.00000000000E+00  0.45711289309E+04  0.45711289309E+04  0.00000000000E+00 0. -1.
         -2   -1    0    0    0  501 -0.00000000000E+00 -0.00000000000E+00 -0.47075268901E+03  0.47075268901E+03  0.00000000000E+00 0.  1.
         23    2    1    2    0    0 -0.19943172494E+03 -0.13297650490E+04  0.30543923698E+04  0.33383176032E+04  0.83687347837E+02 0.  0.
         11    1    3    3    0    0 -0.11852926688E+03 -0.10176042721E+04  0.22937506201E+04  0.25121424221E+04  0.00000000000E+00 0. -1.
        -11    1    3    3    0    0 -0.80902458056E+02 -0.31216077689E+03  0.76064174973E+03  0.82617518104E+03  0.00000000000E+00 0.  1.
         22    1    1    2    0    0  0.19943172494E+03  0.13297650490E+04  0.10459838720E+04  0.17035640167E+04  0.00000000000E+00 0.  1.
<mgrwt>
<rscale>  0 0.29338516E+04</rscale>
<asrwt>0</asrwt>
<pdfrwt beam="1">  1        2 0.70325058E+00 0.29338516E+04</pdfrwt>
<pdfrwt beam="2">  1       -2 0.72423494E-01 0.29338516E+04</pdfrwt>
<totfact> 0.15525388E-01</totfact>
</mgrwt>
</event>
<event>
 6    1  0.1588846E-005  0.2388457E+04  0.7818608E-02  0.8443838E-01
          3   -1    0    0  501    0  0.00000000000E+00  0.00000000000E+00  0.88052105990E+03  0.88052105990E+03  0.00000000000E+00 0. -1.
         -3   -1    0    0    0  501 -0.00000000000E+00 -0.00000000000E+00 -0.16197023857E+04  0.16197023857E+04  0.00000000000E+00 0.  1.
         23    2    1    2    0    0  0.77227919354E+03  0.90806395544E+03 -0.33676585603E+03  0.12420765900E+04  0.91365823424E+02 0.  0.
         13    1    3    3    0    0  0.27754346344E+03  0.27465059705E+03 -0.13802872250E+03  0.41414400007E+03  0.00000000000E+00 0.  1.
        -13    1    3    3    0    0  0.49473573010E+03  0.63341335839E+03 -0.19873713354E+03  0.82793258993E+03  0.00000000000E+00 0. -1.
         22    1    1    2    0    0 -0.77227919354E+03 -0.90806395544E+03 -0.40241546978E+03  0.12581468556E+04  0.00000000000E+00 0. -1.
<mgrwt>
<rscale>  0 0.23884573E+04</rscale>
<asrwt>0</asrwt>
<pdfrwt beam="1">  1        3 0.13546478E+00 0.23884573E+04</pdfrwt>
<pdfrwt beam="2">  1       -3 0.24918498E+00 0.23884573E+04</pdfrwt>
<totfact> 0.72787035E-02</totfact>
</mgrwt>
</event>
<event>
 6    1  0.1588846E-005  0.1599156E+04  0.7818608E-02  0.8821067E-01
         -2   -1    0    0    0  501 -0.00000000000E+00  0.00000000000E+00  0.13803290055E+04  0.13803290055E+04  0.00000000000E+00 0.  1.
          2   -1    0    0  501    0  0.00000000000E+00 -0.00000000000E+00 -0.46316865425E+03  0.46316865425E+03  0.00000000000E+00 0. -1.
         23    2    1    2    0    0 -0.15234877091E+03  0.70764507549E+03  0.84471355512E+03  0.11160224099E+04  0.89405415958E+02 0.  0.
         13    1    3    3    0    0 -0.67353540431E+02  0.40983462746E+03  0.42312253486E+03  0.59290269082E+03  0.00000000000E+00 0. -1.
        -13    1    3    3    0    0 -0.84995230479E+02  0.29781044803E+03  0.42159102026E+03  0.52311971911E+03  0.00000000000E+00 0.  1.
         22    1    1    2    0    0  0.15234877091E+03 -0.70764507549E+03  0.72446796138E+02  0.72747524984E+03  0.00000000000E+00 0. -1.
<mgrwt>
<rscale>  0 0.15991562E+04</rscale>
<asrwt>0</asrwt>
<pdfrwt beam="1">  1        2 0.71256717E-01 0.15991562E+04</pdfrwt>
<pdfrwt beam="2">  1       -2 0.21235831E+00 0.15991562E+04</pdfrwt>
<totfact> 0.71289376E+00</totfact>
</mgrwt>
</event>
<event>
 6    1  0.1588846E-005  0.1479972E+04  0.7818608E-02  0.8897882E-01
          2   -1    0    0  501    0  0.00000000000E+00  0.00000000000E+00  0.15806913206E+04  0.15806913206E+04  0.00000000000E+00 0. -1.
         -2   -1    0    0    0  501 -0.00000000000E+00 -0.00000000000E+00 -0.34641737581E+03  0.34641737581E+03  0.00000000000E+00 0.  1.
         23    2    1    2    0    0 -0.68268637356E+03  0.27785027248E+03  0.63395953554E+03  0.97650949142E+03  0.91676799582E+02 0.  0.
         13    1    3    3    0    0 -0.43538551568E+03  0.17134674703E+03  0.45874118671E+03  0.65525852255E+03  0.00000000000E+00 0. -1.
        -13    1    3    3    0    0 -0.24730085788E+03  0.10650352545E+03  0.17521834883E+03  0.32125096888E+03  0.00000000000E+00 0.  1.
         22    1    1    2    0    0  0.68268637356E+03 -0.27785027248E+03  0.60031440927E+03  0.95059920499E+03  0.00000000000E+00 0. -1.
<mgrwt>
<rscale>  0 0.14799715E+04</rscale>
<asrwt>0</asrwt>
<pdfrwt beam="1">  1        2 0.24318328E+00 0.14799715E+04</pdfrwt>
<pdfrwt beam="2">  1       -2 0.53294982E-01 0.14799715E+04</pdfrwt>
<totfact> 0.36711725E+01</totfact>
</mgrwt>
</event>
<event>
 6    1  0.1588846E-005  0.3051652E+04  0.7818608E-02  0.8229133E-01
         -1   -1    0    0    0  501 -0.00000000000E+00  0.00000000000E+00  0.50619138292E+03  0.50619138292E+03  0.00000000000E+00 0.  1.
          1   -1    0    0  501    0  0.00000000000E+00 -0.00000000000E+00 -0.45993385277E+04  0.45993385277E+04  0.00000000000E+00 0. -1.
         23    2    1    2    0    0  0.51221272139E+03 -0.48376005449E+02 -0.44492410948E+04  0.44798262978E+04  0.91625481050E+02 0.  0.
         11    1    3    3    0    0  0.19629145280E+03 -0.45043486749E+02 -0.20510602951E+04  0.20609239637E+04  0.00000000000E+00 0.  1.
        -11    1    3    3    0    0  0.31592126859E+03 -0.33325187002E+01 -0.23981807997E+04  0.24189023341E+04  0.00000000000E+00 0. -1.
         22    1    1    2    0    0 -0.51221272139E+03  0.48376005449E+02  0.35609395004E+03  0.62570361283E+03  0.00000000000E+00 0.  1.
<mgrwt>
<rscale>  0 0.30516524E+04</rscale>
<asrwt>0</asrwt>
<pdfrwt beam="1">  1        1 0.70759056E+00 0.30516524E+04</pdfrwt>
<pdfrwt beam="2">  1       -1 0.77875596E-01 0.30516524E+04</pdfrwt>
<totfact> 0.35452817E-02</totfact>
</mgrwt>
</event>
<event>
 6    1  0.1588846E-005  0.2289399E+04  0.7818608E-02  0.8482113E-01
          2   -1    0    0  501    0  0.00000000000E+00  0.00000000000E+00  0.83447392006E+03  0.83447392006E+03  0.00000000000E+00 0.  1.
         -2   -1    0    0    0  501 -0.00000000000E+00 -0.00000000000E+00 -0.15702554812E+04  0.15702554812E+04  0.00000000000E+00 0. -1.
         23    2    1    2    0    0  0.95175761490E+03  0.77033079795E+02  0.29049671785E+03  0.10029363499E+04  0.98571425800E+02 0.  0.
         11    1    3    3    0    0  0.83414761193E+03  0.79528974344E+02  0.28535992229E+03  0.88518776623E+03  0.00000000000E+00 0.  1.
        -11    1    3    3    0    0  0.11761000297E+03 -0.24958945490E+01  0.51367955664E+01  0.11774858367E+03  0.00000000000E+00 0. -1.
         22    1    1    2    0    0 -0.95175761490E+03 -0.77033079795E+02 -0.10262782790E+04  0.14017930514E+04  0.00000000000E+00 0. -1.
<mgrwt>
<rscale>  0 0.22893993E+04</rscale>
<asrwt>0</asrwt>
<pdfrwt beam="1">  1        2 0.12838061E+00 0.22893993E+04</pdfrwt>
<pdfrwt beam="2">  1       -2 0.24157776E+00 0.22893993E+04</pdfrwt>
<totfact> 0.21384497E+00</totfact>
</mgrwt>
</event>
<event>
 6    1  0.1588846E-005  0.1500049E+04  0.7818608E-02  0.8884420E-01
         -1   -1    0    0    0  501 -0.00000000000E+00  0.00000000000E+00  0.52697902749E+03  0.52697902749E+03  0.00000000000E+00 0.  1.
          1   -1    0    0  501    0  0.00000000000E+00 -0.00000000000E+00 -0.10674751142E+04  0.10674751142E+04  0.00000000000E+00 0. -1.
         23    2    1    2    0    0  0.22856742971E+03  0.29019535739E+03  0.41937942385E+03  0.56595163264E+03  0.89250960536E+02 0.  0.
         11    1    3    3    0    0  0.15361159771E+03  0.12311796717E+03  0.22169730726E+03  0.29648651375E+03  0.00000000000E+00 0. -1.
        -11    1    3    3    0    0  0.74955832005E+02  0.16707739023E+03  0.19768211658E+03  0.26946511888E+03  0.00000000000E+00 0.  1.
         22    1    1    2    0    0 -0.22856742971E+03 -0.29019535739E+03 -0.95987551057E+03  0.10285025091E+04  0.00000000000E+00 0. -1.
<mgrwt>
<rscale>  0 0.15000493E+04</rscale>
<asrwt>0</asrwt>
<pdfrwt beam="1">  1        1 0.16422694E+00 0.15000493E+04</pdfrwt>
<pdfrwt beam="2">  1       -1 0.81073697E-01 0.15000493E+04</pdfrwt>
<totfact> 0.19684548E+01</totfact>
</mgrwt>
</event>
<event>
 6    1  0.1588846E-005  0.1694585E+04  0.7818608E-02  0.8764459E-01
          1   -1    0    0  501    0  0.00000000000E+00  0.00000000000E+00  0.18083181332E+04  0.18083181332E+04  0.00000000000E+00 0. -1.
         -1   -1    0    0    0  501 -0.00000000000E+00 -0.00000000000E+00 -0.39700123551E+03  0.39700123551E+03  0.00000000000E+00 0.  1.
         23    2    1    2    0    0  0.65861883377E+03  0.61659198246E+02  0.13921415406E+04  0.15435427302E+04  0.82978707612E+02 0.  0.
         13    1    3    3    0    0  0.30746846036E+03 -0.12698070910E+02  0.64787239118E+03  0.71724244881E+03  0.00000000000E+00 0. -1.
        -13    1    3    3    0    0  0.35115037341E+03  0.74357269156E+02  0.74426914943E+03  0.82630028138E+03  0.00000000000E+00 0.  1.
         22    1    1    2    0    0 -0.65861883377E+03 -0.61659198246E+02  0.19175357054E+02  0.66177663849E+03  0.00000000000E+00 0.  1.
<mgrwt>
<rscale>  0 0.16945849E+04</rscale>
<asrwt>0</asrwt>
<pdfrwt beam="1">  1        1 0.27820278E+00 0.16945849E+04</pdfrwt>
<pdfrwt beam="2">  1       -1 0.61077114E-01 0.16945849E+04</pdfrwt>
<totfact> 0.10408972E+01</totfact>
</mgrwt>
</event>
<event>
 6    1  0.1588846E-005  0.5588512E+03  0.7818608E-02  0.9994657E-01
          2   -1    0    0  501    0  0.00000000000E+00  0.00000000000E+00  0.14680090812E+04  0.14680090812E+04  0.00000000000E+00 0.  1.
         -2   -1    0    0    0  501 -0.00000000000E+00 -0.00000000000E+00 -0.53186765191E+02  0.53186765191E+02  0.00000000000E+00 0. -1.
         23    2    1    2    0    0  0.18399438263E+02  0.25768647457E+03  0.49490077220E+03  0.56568734027E+03  0.91293669634E+02 0.  0.
         11    1    3    3    0    0  0.54341290066E+02  0.13899029689E+03  0.24941141346E+03  0.29064984363E+03  0.00000000000E+00 0. -1.
        -11    1    3    3    0    0 -0.35941851803E+02  0.11869617768E+03  0.24548935873E+03  0.27503749664E+03  0.00000000000E+00 0.  1.
         22    1    1    2    0    0 -0.18399438263E+02 -0.25768647457E+03  0.91992154382E+03  0.95550850613E+03  0.00000000000E+00 0. -1.
<mgrwt>
<rscale>  0 0.55885116E+03</rscale>
<asrwt>0</asrwt>
<pdfrwt beam="1">  1        2 0.22584752E+00 0.55885116E+03</pdfrwt>
<pdfrwt beam="2">  1       -2 0.81825804E-02 0.55885116E+03</pdfrwt>
<totfact> 0.12793666E+03</totfact>
</mgrwt>
</event>
<event>
 6    1  0.1588846E-005  0.2326653E+04  0.7818608E-02  0.8467486E-01
          2   -1    0    0  501    0  0.00000000000E+00  0.00000000000E+00  0.11198322359E+04  0.11198322359E+04  0.00000000000E+00 0. -1.
         -2   -1    0    0    0  501 -0.00000000000E+00 -0.00000000000E+00 -0.12085099574E+04  0.12085099574E+04  0.00000000000E+00 0.  1.
         23    2    1    2    0    0  0.11042319562E+04  0.98181616789E+01  0.31689851570E+03  0.11519423065E+04  0.84390751718E+02 0.  0.
         13    1    3    3    0    0  0.55278344139E+03 -0.29613978208E+02  0.18378024363E+03  0.58328526360E+03  0.00000000000E+00 0. -1.
        -13    1    3    3    0    0  0.55144851477E+03  0.39432139886E+02  0.13311827207E+03  0.56865704292E+03  0.00000000000E+00 0.  1.
         22    1    1    2    0    0 -0.11042319562E+04 -0.98181616789E+01 -0.40557623723E+03  0.11763998867E+04  0.00000000000E+00 0.  1.
<mgrwt>
<rscale>  0 0.23266529E+04</rscale>
<asrwt>0</asrwt>
<pdfrwt beam="1">  1        2 0.17228188E+00 0.23266529E+04</pdfrwt>
<pdfrwt beam="2">  1       -2 0.18592461E+00 0.23266529E+04</pdfrwt>
<totfact> 0.31642396E+00</totfact>
</mgrwt>
</event>
<event>
 6    1  0.1961103E-005  0.3007744E+04  0.7818608E-02  0.8241523E-01
         -1   -1    0    0    0  501 -0.00000000000E+00  0.00000000000E+00  0.82744169247E+03  0.82744169247E+03  0.00000000000E+00 0.  1.
          1   -1    0    0  501    0  0.00000000000E+00 -0.00000000000E+00 -0.27332818541E+04  0.27332818541E+04  0.00000000000E+00 0. -1.
         23    2    1    2    0    0 -0.77047862877E+03  0.12057408237E+04 -0.41105796055E+03  0.14914671390E+04  0.89762622679E+02 0.  0.
         13    1    3    3    0    0 -0.19431965377E+03  0.37995202063E+03 -0.11835547745E+03  0.44286757035E+03  0.00000000000E+00 0.  1.
        -13    1    3    3    0    0 -0.57615897500E+03  0.82578880311E+03 -0.29270248311E+03  0.10485995687E+04  0.00000000000E+00 0. -1.
         22    1    1    2    0    0  0.77047862877E+03 -0.12057408237E+04 -0.14947822010E+04  0.20692564075E+04  0.00000000000E+00 0.  1.
<mgrwt>
<rscale>  0 0.30077442E+04</rscale>
<asrwt>0</asrwt>
<pdfrwt beam="1">  1        1 0.42050491E+00 0.30077442E+04</pdfrwt>
<pdfrwt beam="2">  1       -1 0.12729872E+00 0.30077442E+04</pdfrwt>
<totfact> 0.42249061E-01</totfact>
</mgrwt>
</event>
<event>
 6    1  0.1588846E-005  0.3213803E+04  0.7818608E-02  0.8185181E-01
          1   -1    0    0  501    0  0.00000000000E+00  0.00000000000E+00  0.24259175825E+04  0.24259175825E+04  0.00000000000E+00 0. -1.
         -1   -1    0    0    0  501 -0.00000000000E+00 -0.00000000000E+00 -0.10643939628E+04  0.10643939628E+04  0.00000000000E+00 0.  1.
         23    2    1    2    0    0  0.15371633591E+04  0.39213743446E+03  0.41178301164E+03  0.16413523292E+04  0.88483105335E+02 0.  0.
         11    1    3    3    0    0  0.11913878817E+04  0.26696935666E+03  0.32721368294E+03  0.12640199826E+04  0.00000000000E+00 0. -1.
        -11    1    3    3    0    0  0.34577547736E+03  0.12516807780E+03  0.84569328697E+02  0.37733234662E+03  0.00000000000E+00 0.  1.
         22    1    1    2    0    0 -0.15371633591E+04 -0.39213743446E+03  0.94974060801E+03  0.18489592160E+04  0.00000000000E+00 0. -1.
<mgrwt>
<rscale>  0 0.32138028E+04</rscale>
<asrwt>0</asrwt>
<pdfrwt beam="1">  1        1 0.37321809E+00 0.32138028E+04</pdfrwt>
<pdfrwt beam="2">  1       -1 0.16375292E+00 0.32138028E+04</pdfrwt>
<totfact> 0.34875830E-01</totfact>
</mgrwt>
</event>
<event>
 6    1  0.1588846E-005  0.1843467E+04  0.7818608E-02  0.8683520E-01
         -2   -1    0    0    0  501 -0.00000000000E+00  0.00000000000E+00  0.88304991299E+03  0.88304991299E+03  0.00000000000E+00 0.  1.
          2   -1    0    0  501    0  0.00000000000E+00 -0.00000000000E+00 -0.96211120473E+03  0.96211120473E+03  0.00000000000E+00 0. -1.
         23    2    1    2    0    0  0.76964322554E+03 -0.34072072694E+03 -0.41004816019E+03  0.94073112293E+03  0.91620104752E+02 0.  0.
         11    1    3    3    0    0  0.19409538279E+03 -0.12820054767E+03 -0.98140942946E+02  0.25246790435E+03  0.00000000000E+00 0. -1.
        -11    1    3    3    0    0  0.57554784275E+03 -0.21252017927E+03 -0.31190721724E+03  0.68826321859E+03  0.00000000000E+00 0.  1.
         22    1    1    2    0    0 -0.76964322554E+03  0.34072072694E+03  0.33098686844E+03  0.90442999479E+03  0.00000000000E+00 0.  1.
<mgrwt>
<rscale>  0 0.18434665E+04</rscale>
<asrwt>0</asrwt>
<pdfrwt beam="1">  1        2 0.14801711E+00 0.18434665E+04</pdfrwt>
<pdfrwt beam="2">  1       -2 0.13585383E+00 0.18434665E+04</pdfrwt>
<totfact> 0.97347668E+00</totfact>
</mgrwt>
</event>
<event>
 6    1  0.1588846E-005  0.2143327E+04  0.7818608E-02  0.8542394E-01
         -1   -1    0    0    0  501 -0.00000000000E+00  0.00000000000E+00  0.10227000230E+04  0.10227000230E+04  0.00000000000E+00 0.  1.
          1   -1    0    0  501    0  0.00000000000E+00 -0.00000000000E+00 -0.11229708676E+04  0.11229708676E+04  0.00000000000E+00 0. -1.
         23    2    1    2    0    0  0.35843012875E+03 -0.89555615048E+03  0.41244313574E+03  0.10532567743E+04  0.93528159463E+02 0.  0.
         11    1    3    3    0    0  0.92710041123E+02 -0.27200932286E+03  0.79922727767E+02  0.29828152115E+03  0.00000000000E+00 0.  1.
        -11    1    3    3    0    0  0.26572008762E+03 -0.62354682762E+03  0.33252040797E+03  0.75497525318E+03  0.00000000000E+00 0. -1.
         22    1    1    2    0    0 -0.35843012875E+03  0.89555615048E+03 -0.51271398030E+03  0.10924141163E+04  0.00000000000E+00 0. -1.
<mgrwt>
<rscale>  0 0.21433267E+04</rscale>
<asrwt>0</asrwt>
<pdfrwt beam="1">  1        1 0.17276475E+00 0.21433267E+04</pdfrwt>
<pdfrwt beam="2">  1       -1 0.15733847E+00 0.21433267E+04</pdfrwt>
<totfact> 0.34187283E+00</totfact>
</mgrwt>
</event>
<event>
 6    1  0.1588846E-005  0.2599321E+04  0.7818608E-02  0.8368432E-01
         -1   -1    0    0    0  501 -0.00000000000E+00  0.00000000000E+00  0.99928338855E+03  0.99928338855E+03  0.00000000000E+00 0.  1.
          1   -1    0    0  501    0  0.00000000000E+00 -0.00000000000E+00 -0.16903289032E+04  0.16903289032E+04  0.00000000000E+00 0. -1.
         23    2    1    2    0    0  0.88322380663E+03  0.93476237451E+03 -0.52838732573E+03  0.13933396831E+04  0.91308910888E+02 0.  0.
         11    1    3    3    0    0  0.28106533825E+03  0.35625574202E+03 -0.20389145827E+03  0.49748126079E+03  0.00000000000E+00 0.  1.
        -11    1    3    3    0    0  0.60215846838E+03  0.57850663249E+03 -0.32449586746E+03  0.89585842234E+03  0.00000000000E+00 0. -1.
         22    1    1    2    0    0 -0.88322380663E+03 -0.93476237451E+03 -0.16265818892E+03  0.12962726086E+04  0.00000000000E+00 0. -1.
<mgrwt>
<rscale>  0 0.25993211E+04</rscale>
<asrwt>0</asrwt>
<pdfrwt beam="1">  1        1 0.26005060E+00 0.25993211E+04</pdfrwt>
<pdfrwt beam="2">  1       -1 0.15373591E+00 0.25993211E+04</pdfrwt>
<totfact> 0.13909997E+00</totfact>
</mgrwt>
</event>
<event>
 6    1  0.1588846E-005  0.1759528E+04  0.7818608E-02  0.8728123E-01
         -2   -1    0    0    0  501 -0.00000000000E+00  0.00000000000E+00  0.34212211207E+03  0.34212211207E+03  0.00000000000E+00 0.  1.
          2   -1    0    0  501    0  0.00000000000E+00 -0.00000000000E+00 -0.22623055708E+04  0.22623055708E+04  0.00000000000E+00 0. -1.
         23    2    1    2    0    0  0.28110545198E+03  0.76123785504E+03 -0.46868229027E+03  0.94149082624E+03  0.90766401174E+02 0.  0.
         13    1    3    3    0    0  0.10973240385E+03  0.28013004972E+03 -0.12436846758E+03  0.32554809313E+03  0.00000000000E+00 0. -1.
        -13    1    3    3    0    0  0.17137304814E+03  0.48110780532E+03 -0.34431382269E+03  0.61594273310E+03  0.00000000000E+00 0.  1.
         22    1    1    2    0    0 -0.28110545198E+03 -0.76123785504E+03 -0.14515011684E+04  0.16629368566E+04  0.00000000000E+00 0. -1.
<mgrwt>
<rscale>  0 0.17595281E+04</rscale>
<asrwt>0</asrwt>
<pdfrwt beam="1">  1        2 0.34804702E+00 0.17595281E+04</pdfrwt>
<pdfrwt beam="2">  1       -2 0.52634170E-01 0.17595281E+04</pdfrwt>
<totfact> 0.15368592E+01</totfact>
</mgrwt>
</event>
<event>
 6    1  0.1588846E-005  0.4594646E+04  0.7818608E-02  0.7894273E-01
          2   -1    0    0  501    0  0.00000000000E+00  0.00000000000E+00  0.18887157591E+04  0.18887157591E+04  0.00000000000E+00 0.  1.
         -2   -1    0    0    0  501 -0.00000000000E+00 -0.00000000000E+00 -0.27943294674E+04  0.27943294674E+04  0.00000000000E+00 0. -1.
         23    2    1    2    0    0 -0.35711587948E+02  0.89961185460E+03 -0.26062006796E+04  0.27588381552E+04  0.91264328379E+02 0.  0.
         13    1    3    3    0    0 -0.79380406797E+01  0.83768142662E+02 -0.33450466229E+03  0.34492533004E+03  0.00000000000E+00 0. -1.
        -13    1    3    3    0    0 -0.27773547268E+02  0.81584371194E+03 -0.22716960173E+04  0.24139128251E+04  0.00000000000E+00 0.  1.
         22    1    1    2    0    0  0.35711587948E+02 -0.89961185460E+03  0.17005869712E+04  0.19242070713E+04  0.00000000000E+00 0.  1.
<mgrwt>
<rscale>  0 0.45946465E+04</rscale>
<asrwt>0</asrwt>
<pdfrwt beam="1">  1        2 0.29057166E+00 0.45946465E+04</pdfrwt>
<pdfrwt beam="2">  1       -2 0.42989684E+00 0.45946465E+04</pdfrwt>
<totfact> 0.27341869E-02</totfact>
</mgrwt>
</event>
<event>
 6    1  0.1588846E-005  0.4903950E+04  0.7818608E-02  0.7843497E-01
          1   -1    0    0  501    0  0.00000000000E+00  0.00000000000E+00  0.32116903005E+04  0.32116903005E+04  0.00000000000E+00 0. -1.
         -1   -1    0    0    0  501 -0.00000000000E+00 -0.00000000000E+00 -0.18719676124E+04  0.18719676124E+04  0.00000000000E+00 0.  1.
         23    2    1    2    0    0 -0.12782170377E+04  0.58019687347E+03 -0.14129084356E+04  0.19937638515E+04  0.91196715178E+02 0.  0.
         11    1    3    3    0    0 -0.44915581530E+03  0.21038108170E+03 -0.43883857751E+03  0.66225406232E+03  0.00000000000E+00 0. -1.
        -11    1    3    3    0    0 -0.82906122240E+03  0.36981579177E+03 -0.97406985809E+03  0.13315097892E+04  0.00000000000E+00 0.  1.
         22    1    1    2    0    0  0.12782170377E+04 -0.58019687347E+03  0.27526311237E+04  0.30898940614E+04  0.00000000000E+00 0. -1.
<mgrwt>
<rscale>  0 0.49039495E+04</rscale>
<asrwt>0</asrwt>
<pdfrwt beam="1">  1        1 0.49410620E+00 0.49039495E+04</pdfrwt>
<pdfrwt beam="2">  1       -1 0.28799502E+00 0.49039495E+04</pdfrwt>
<totfact> 0.11966024E-02</totfact>
</mgrwt>
</event>
<event>
 6    1  0.1588846E-005  0.2887117E+04  0.7818608E-02  0.8276721E-01
         -2   -1    0    0    0  501 -0.00000000000E+00  0.00000000000E+00  0.21641025917E+04  0.21641025917E+04  0.00000000000E+00 0.  1.
          2   -1    0    0  501    0  0.00000000000E+00 -0.00000000000E+00 -0.96292192237E+03  0.96292192237E+03  0.00000000000E+00 0. -1.
         23    2    1    2    0    0 -0.26719330413E+03 -0.13983532695E+04  0.35236948482E+03  0.14695370918E+04  0.92687011584E+02 0.  0.
         11    1    3    3    0    0 -0.12879158446E+03 -0.76702554616E+03  0.23638970812E+03  0.81289332313E+03  0.00000000000E+00 0. -1.
        -11    1    3    3    0    0 -0.13840171967E+03 -0.63132772336E+03  0.11597977670E+03  0.65664376864E+03  0.00000000000E+00 0.  1.
         22    1    1    2    0    0  0.26719330413E+03  0.13983532695E+04  0.84881118455E+03  0.16574874223E+04  0.00000000000E+00 0.  1.
<mgrwt>
<rscale>  0 0.28871175E+04</rscale>
<asrwt>0</asrwt>
<pdfrwt beam="1">  1        2 0.14814183E+00 0.28871175E+04</pdfrwt>
<pdfrwt beam="2">  1       -2 0.33293886E+00 0.28871175E+04</pdfrwt>
<totfact> 0.45776618E-01</totfact>
</mgrwt>
</event>
<event>
 6    1  0.1588846E-005  0.1908401E+04  0.7818608E-02  0.8650686E-01
         -1   -1    0    0    0  501 -0.00000000000E+00  0.00000000000E+00  0.83825373751E+03  0.83825373751E+03  0.00000000000E+00 0.  1.
          1   -1    0    0  501    0  0.00000000000E+00 -0.00000000000E+00 -0.10861853912E+04  0.10861853912E+04  0.00000000000E+00 0. -1.
         23    2    1    2    0    0  0.15611264894E+02  0.65387507718E+03  0.57327733963E+03  0.87459126407E+03  0.92014362469E+02 0.  0.
         11    1    3    3    0    0  0.37533977055E+02  0.51779554963E+03  0.41445863440E+03  0.66430188189E+03  0.00000000000E+00 0.  1.
        -11    1    3    3    0    0 -0.21922712161E+02  0.13607952755E+03  0.15881870523E+03  0.21028938218E+03  0.00000000000E+00 0. -1.
         22    1    1    2    0    0 -0.15611264894E+02 -0.65387507718E+03 -0.82120899329E+03  0.10498478646E+04  0.00000000000E+00 0. -1.
<mgrwt>
<rscale>  0 0.19084014E+04</rscale>
<asrwt>0</asrwt>
<pdfrwt beam="1">  1        1 0.16710544E+00 0.19084014E+04</pdfrwt>
<pdfrwt beam="2">  1       -1 0.12896211E+00 0.19084014E+04</pdfrwt>
<totfact> 0.62846877E+00</totfact>
</mgrwt>
</event>
<event>
 6    1  0.1588846E-005  0.2336475E+04  0.7818608E-02  0.8463677E-01
         -2   -1    0    0    0  501 -0.00000000000E+00  0.00000000000E+00  0.10100044298E+04  0.10100044298E+04  0.00000000000E+00 0.  1.
          2   -1    0    0  501    0  0.00000000000E+00 -0.00000000000E+00 -0.13512598813E+04  0.13512598813E+04  0.00000000000E+00 0. -1.
         23    2    1    2    0    0  0.31717852432E+02 -0.11519111048E+04  0.12269042189E+02  0.11559076075E+04  0.89814542628E+02 0.  0.
         13    1    3    3    0    0  0.54192102993E+02 -0.86576380808E+03 -0.14988969689E+02  0.86758770428E+03  0.00000000000E+00 0. -1.
        -13    1    3    3    0    0 -0.22474250561E+02 -0.28614729672E+03  0.27258011878E+02  0.28831990318E+03  0.00000000000E+00 0.  1.
         22    1    1    2    0    0 -0.31717852432E+02  0.11519111048E+04 -0.35352449368E+03  0.12053567037E+04  0.00000000000E+00 0. -1.
<mgrwt>
<rscale>  0 0.23364747E+04</rscale>
<asrwt>0</asrwt>
<pdfrwt beam="1">  1        2 0.20788614E+00 0.23364747E+04</pdfrwt>
<pdfrwt beam="2">  1       -2 0.15538530E+00 0.23364747E+04</pdfrwt>
<totfact> 0.38054058E+00</totfact>
</mgrwt>
</event>
<event>
 6    1  0.1588846E-005  0.5202647E+04  0.7818608E-02  0.7797985E-01
         -2   -1    0    0    0  501 -0.00000000000E+00  0.00000000000E+00  0.20786497795E+04  0.20786497795E+04  0.00000000000E+00 0.  1.
          2   -1    0    0  501    0  0.00000000000E+00 -0.00000000000E+00 -0.32554226820E+04  0.32554226820E+04  0.00000000000E+00 0. -1.
         23    2    1    2    0    0  0.11147303876E+04 -0.16494940531E+04  0.11268881065E+04  0.22893543279E+04  0.88385325652E+02 0.  0.
         11    1    3    3    0    0  0.47986346660E+03 -0.76723947570E+03  0.54670226606E+03  0.10572647385E+04  0.00000000000E+00 0.  1.
        -11    1    3    3    0    0  0.63486692100E+03 -0.88225457744E+03  0.58018584043E+03  0.12320895894E+04  0.00000000000E+00 0. -1.
         22    1    1    2    0    0 -0.11147303876E+04  0.16494940531E+04 -0.23036610090E+04  0.30447181335E+04  0.00000000000E+00 0. -1.
<mgrwt>
<rscale>  0 0.52026469E+04</rscale>
<asrwt>0</asrwt>
<pdfrwt beam="1">  1        2 0.50083426E+00 0.52026469E+04</pdfrwt>
<pdfrwt beam="2">  1       -2 0.31979227E+00 0.52026469E+04</pdfrwt>
<totfact> 0.20493844E-02</totfact>
</mgrwt>
</event>
<event>
 6    1  0.1588846E-005  0.2090649E+04  0.7818608E-02  0.8565374E-01
          2   -1    0    0  501    0  0.00000000000E+00  0.00000000000E+00  0.12656581951E+04  0.12656581951E+04  0.00000000000E+00 0. -1.
         -2   -1    0    0    0  501 -0.00000000000E+00 -0.00000000000E+00 -0.86334747936E+03  0.86334747936E+03  0.00000000000E+00 0.  1.
         23    2    1    2    0    0 -0.73725076740E+03 -0.41379827369E+03 -0.42098806450E+03  0.94892576746E+03  0.91986174834E+02 0.  0.
         11    1    3    3    0    0 -0.44424366070E+03 -0.20385312737E+03 -0.21743009884E+03  0.53496203182E+03  0.00000000000E+00 0.  1.
        -11    1    3    3    0    0 -0.29300710670E+03 -0.20994514631E+03 -0.20355796567E+03  0.41396373564E+03  0.00000000000E+00 0. -1.
         22    1    1    2    0    0  0.73725076740E+03  0.41379827369E+03  0.82329878026E+03  0.11800799070E+04  0.00000000000E+00 0. -1.
<mgrwt>
<rscale>  0 0.20906485E+04</rscale>
<asrwt>0</asrwt>
<pdfrwt beam="1">  1        2 0.19471665E+00 0.20906485E+04</pdfrwt>
<pdfrwt beam="2">  1       -2 0.13282269E+00 0.20906485E+04</pdfrwt>
<totfact> 0.65681666E+00</totfact>
</mgrwt>
</event>
<event>
 6    1  0.1588846E-005  0.1965174E+04  0.7818608E-02  0.8623078E-01
         -2   -1    0    0    0  501 -0.00000000000E+00  0.00000000000E+00  0.32239988107E+03  0.32239988107E+03  0.00000000000E+00 0.  1.
          2   -1    0    0  501    0  0.00000000000E+00 -0.00000000000E+00 -0.29946572526E+04  0.29946572526E+04  0.00000000000E+00 0. -1.
         23    2    1    2    0    0  0.50325046989E+03  0.63310317708E+03 -0.40361869398E+03  0.90857169308E+03  0.92270271797E+02 0.  0.
         11    1    3    3    0    0  0.34096989566E+03  0.37759616168E+03 -0.28750375634E+03  0.58437808051E+03  0.00000000000E+00 0. -1.
        -11    1    3    3    0    0  0.16228057424E+03  0.25550701540E+03 -0.11611493763E+03  0.32419361258E+03  0.00000000000E+00 0.  1.
         22    1    1    2    0    0 -0.50325046989E+03 -0.63310317708E+03 -0.22686386776E+04  0.24084854406E+04  0.00000000000E+00 0. -1.
<mgrwt>
<rscale>  0 0.19651739E+04</rscale>
<asrwt>0</asrwt>
<pdfrwt beam="1">  1        2 0.46071651E+00 0.19651739E+04</pdfrwt>
<pdfrwt beam="2">  1       -2 0.49599980E-01 0.19651739E+04</pdfrwt>
<totfact> 0.63049302E+00</totfact>
</mgrwt>
</event>
<event>
 6    1  0.1588846E-005  0.3485204E+03  0.7818608E-02  0.1063224E+00
          2   -1    0    0  501    0  0.00000000000E+00  0.00000000000E+00  0.12303517331E+04  0.12303517331E+04  0.00000000000E+00 0. -1.
         -2   -1    0    0    0  501 -0.00000000000E+00 -0.00000000000E+00 -0.24681245986E+02  0.24681245986E+02  0.00000000000E+00 0.  1.
         23    2    1    2    0    0  0.12266645713E+03  0.88048280482E+02  0.74917598054E+03  0.77421410058E+03  0.12386793093E+03 0.  0.
         11    1    3    3    0    0  0.15360254056E+02 -0.16267023038E+02  0.20551748268E+02  0.30379726794E+02  0.00000000000E+00 0.  1.
        -11    1    3    3    0    0  0.10730620307E+03  0.10431530352E+03  0.72862423227E+03  0.74383437378E+03  0.00000000000E+00 0. -1.
         22    1    1    2    0    0 -0.12266645713E+03 -0.88048280482E+02  0.45649450661E+03  0.48081887855E+03  0.00000000000E+00 0. -1.
<mgrwt>
<rscale>  0 0.34852038E+03</rscale>
<asrwt>0</asrwt>
<pdfrwt beam="1">  1        2 0.18928483E+00 0.34852038E+03</pdfrwt>
<pdfrwt beam="2">  1       -2 0.37971157E-02 0.34852038E+03</pdfrwt>
<totfact> 0.57303723E+03</totfact>
</mgrwt>
</event>
<event>
 6    1  0.1588846E-005  0.1638845E+04  0.7818608E-02  0.8797033E-01
          2   -1    0    0  501    0  0.00000000000E+00  0.00000000000E+00  0.39128988846E+04  0.39128988846E+04  0.00000000000E+00 0. -1.
         -2   -1    0    0    0  501 -0.00000000000E+00 -0.00000000000E+00 -0.17159999698E+03  0.17159999698E+03  0.00000000000E+00 0.  1.
         23    2    1    2    0    0 -0.49482146480E+03 -0.42271103516E+03  0.64703106152E+03  0.92253330920E+03  0.94263517578E+02 0.  0.
         13    1    3    3    0    0 -0.43800160744E+03 -0.33279605044E+03  0.56140960371E+03  0.78598941624E+03  0.00000000000E+00 0. -1.
        -13    1    3    3    0    0 -0.56819857360E+02 -0.89914984717E+02  0.85621457813E+02  0.13654389296E+03  0.00000000000E+00 0.  1.
         22    1    1    2    0    0  0.49482146480E+03  0.42271103516E+03  0.30942678261E+04  0.31619655724E+04  0.00000000000E+00 0. -1.
<mgrwt>
<rscale>  0 0.16388452E+04</rscale>
<asrwt>0</asrwt>
<pdfrwt beam="1">  1        2 0.60198437E+00 0.16388452E+04</pdfrwt>
<pdfrwt beam="2">  1       -2 0.26400003E-01 0.16388452E+04</pdfrwt>
<totfact> 0.50751468E+00</totfact>
</mgrwt>
</event>
<event>
 6    1  0.1588846E-005  0.4614352E+04  0.7818608E-02  0.7890917E-01
         -2   -1    0    0    0  501 -0.00000000000E+00  0.00000000000E+00  0.19471822990E+04  0.19471822990E+04  0.00000000000E+00 0.  1.
          2   -1    0    0  501    0  0.00000000000E+00 -0.00000000000E+00 -0.27337246037E+04  0.27337246037E+04  0.00000000000E+00 0. -1.
         23    2    1    2    0    0  0.83850750991E+03  0.19448171022E+04  0.53263366782E+03  0.21857849313E+04  0.92459378176E+02 0.  0.
         11    1    3    3    0    0  0.41009410765E+03  0.95204288732E+03  0.21305751946E+03  0.10582798982E+04  0.00000000000E+00 0. -1.
        -11    1    3    3    0    0  0.42841340227E+03  0.99277421490E+03  0.31957614836E+03  0.11275050331E+04  0.00000000000E+00 0.  1.
         22    1    1    2    0    0 -0.83850750991E+03 -0.19448171022E+04 -0.13191759725E+04  0.24951219713E+04  0.00000000000E+00 0. -1.
<mgrwt>
<rscale>  0 0.46143516E+04</rscale>
<asrwt>0</asrwt>
<pdfrwt beam="1">  1        2 0.42057302E+00 0.46143516E+04</pdfrwt>
<pdfrwt beam="2">  1       -2 0.29956651E+00 0.46143516E+04</pdfrwt>
<totfact> 0.60853121E-02</totfact>
</mgrwt>
</event>
<event>
 6    1  0.1588846E-005  0.2974058E+04  0.7818608E-02  0.8251178E-01
         -2   -1    0    0    0  501 -0.00000000000E+00  0.00000000000E+00  0.20470631418E+04  0.20470631418E+04  0.00000000000E+00 0. -1.
          2   -1    0    0  501    0  0.00000000000E+00 -0.00000000000E+00 -0.10802083247E+04  0.10802083247E+04  0.00000000000E+00 0.  1.
         23    2    1    2    0    0  0.59319195958E+03  0.87872773016E+03  0.15781243114E+04  0.19034702084E+04  0.93184587193E+02 0.  0.
         13    1    3    3    0    0  0.33365208152E+03  0.41254019761E+03  0.77081049777E+03  0.93576810675E+03  0.00000000000E+00 0.  1.
        -13    1    3    3    0    0  0.25953987805E+03  0.46618753255E+03  0.80731381367E+03  0.96770210165E+03  0.00000000000E+00 0. -1.
         22    1    1    2    0    0 -0.59319195958E+03 -0.87872773016E+03 -0.61126949437E+03  0.12238012581E+04  0.00000000000E+00 0.  1.
<mgrwt>
<rscale>  0 0.29740576E+04</rscale>
<asrwt>0</asrwt>
<pdfrwt beam="1">  1        2 0.16618590E+00 0.29740576E+04</pdfrwt>
<pdfrwt beam="2">  1       -2 0.31493279E+00 0.29740576E+04</pdfrwt>
<totfact> 0.49463713E-01</totfact>
</mgrwt>
</event>
<event>
 6    1  0.1588846E-005  0.2034092E+04  0.7818608E-02  0.8590845E-01
         -2   -1    0    0    0  501 -0.00000000000E+00  0.00000000000E+00  0.90645559059E+03  0.90645559059E+03  0.00000000000E+00 0.  1.
          2   -1    0    0  501    0  0.00000000000E+00 -0.00000000000E+00 -0.11411290188E+04  0.11411290188E+04  0.00000000000E+00 0. -1.
         23    2    1    2    0    0  0.71746395253E+03  0.71729050200E+03 -0.11906287583E+03  0.10264940222E+04  0.10126115600E+03 0.  0.
         11    1    3    3    0    0  0.12968510937E+03  0.17970430821E+03 -0.48286361401E+02  0.22681146065E+03  0.00000000000E+00 0. -1.
        -11    1    3    3    0    0  0.58777884315E+03  0.53758619379E+03 -0.70776514433E+02  0.79968256152E+03  0.00000000000E+00 0.  1.
         22    1    1    2    0    0 -0.71746395253E+03 -0.71729050200E+03 -0.11561055234E+03  0.10210905872E+04  0.00000000000E+00 0.  1.
<mgrwt>
<rscale>  0 0.20340922E+04</rscale>
<asrwt>0</asrwt>
<pdfrwt beam="1">  1        2 0.17555831E+00 0.20340922E+04</pdfrwt>
<pdfrwt beam="2">  1       -2 0.13945471E+00 0.20340922E+04</pdfrwt>
<totfact> 0.69106231E+00</totfact>
</mgrwt>
</event>
<event>
 6    1  0.1588846E-005  0.6793938E+03  0.7818608E-02  0.9753135E-01
          3   -1    0    0  501    0  0.00000000000E+00  0.00000000000E+00  0.31215802618E+03  0.31215802618E+03  0.00000000000E+00 0. -1.
         -3   -1    0    0    0  501 -0.00000000000E+00 -0.00000000000E+00 -0.36966526631E+03  0.36966526631E+03  0.00000000000E+00 0.  1.
         23    2    1    2    0    0  0.32946451301E+03  0.70499202904E+01  0.21596285586E+02  0.34292222361E+03  0.92372534824E+02 0.  0.
         13    1    3    3    0    0  0.26222549374E+03 -0.29638555636E+02  0.31167705893E+02  0.26572933492E+03  0.00000000000E+00 0. -1.
        -13    1    3    3    0    0  0.67239019266E+02  0.36688475927E+02 -0.95714203066E+01  0.77192888690E+02  0.00000000000E+00 0.  1.
         22    1    1    2    0    0 -0.32946451301E+03 -0.70499202904E+01 -0.79103525709E+02  0.33890106888E+03  0.00000000000E+00 0.  1.
<mgrwt>
<rscale>  0 0.67939379E+03</rscale>
<asrwt>0</asrwt>
<pdfrwt beam="1">  1        3 0.48024312E-01 0.67939379E+03</pdfrwt>
<pdfrwt beam="2">  1       -3 0.56871580E-01 0.67939379E+03</pdfrwt>
<totfact> 0.34483213E+01</totfact>
</mgrwt>
</event>
<event>
 6    1  0.1661794E-005  0.4069265E+04  0.7818608E-02  0.7990718E-01
         -1   -1    0    0    0  501 -0.00000000000E+00  0.00000000000E+00  0.17647899239E+04  0.17647899239E+04  0.00000000000E+00 0.  1.
          1   -1    0    0  501    0  0.00000000000E+00 -0.00000000000E+00 -0.23457348963E+04  0.23457348963E+04  0.00000000000E+00 0. -1.
         23    2    1    2    0    0  0.57952791479E+03  0.71008678345E+03  0.15431252714E+04  0.17971398015E+04  0.91651617983E+02 0.  0.
         13    1    3    3    0    0  0.46738446268E+03  0.56684978084E+03  0.13034613794E+04  0.14962548171E+04  0.00000000000E+00 0. -1.
        -13    1    3    3    0    0  0.11214345211E+03  0.14323700262E+03  0.23966389196E+03  0.30088498447E+03  0.00000000000E+00 0.  1.
         22    1    1    2    0    0 -0.57952791479E+03 -0.71008678345E+03 -0.21240702438E+04  0.23133850187E+04  0.00000000000E+00 0. -1.
<mgrwt>
<rscale>  0 0.40692650E+04</rscale>
<asrwt>0</asrwt>
<pdfrwt beam="1">  1        1 0.36088229E+00 0.40692650E+04</pdfrwt>
<pdfrwt beam="2">  1       -1 0.27150614E+00 0.40692650E+04</pdfrwt>
<totfact> 0.68075396E-02</totfact>
</mgrwt>
</event>
<event>
 6    1  0.1588846E-005  0.1150630E+04  0.7818608E-02  0.9157203E-01
          1   -1    0    0  501    0  0.00000000000E+00  0.00000000000E+00  0.17249332334E+04  0.17249332334E+04  0.00000000000E+00 0.  1.
         -1   -1    0    0    0  501 -0.00000000000E+00 -0.00000000000E+00 -0.19188405415E+03  0.19188405415E+03  0.00000000000E+00 0. -1.
         23    2    1    2    0    0 -0.28262763456E+03 -0.36152066520E+03  0.20360277320E+03  0.51040222871E+03  0.92091121325E+02 0.  0.
         11    1    3    3    0    0 -0.22150434250E+03 -0.26541767660E+03  0.19321935480E+03  0.39603590225E+03  0.00000000000E+00 0. -1.
        -11    1    3    3    0    0 -0.61123292064E+02 -0.96102988599E+02  0.10383418404E+02  0.11436632646E+03  0.00000000000E+00 0.  1.
         22    1    1    2    0    0  0.28262763456E+03  0.36152066520E+03  0.13294464061E+04  0.14064150589E+04  0.00000000000E+00 0.  1.
<mgrwt>
<rscale>  0 0.11506297E+04</rscale>
<asrwt>0</asrwt>
<pdfrwt beam="1">  1        1 0.26537433E+00 0.11506297E+04</pdfrwt>
<pdfrwt beam="2">  1       -1 0.29520625E-01 0.11506297E+04</pdfrwt>
<totfact> 0.47802386E+01</totfact>
</mgrwt>
</event>
<event>
 6    1  0.1588846E-005  0.1518177E+04  0.7818608E-02  0.8872455E-01
         -2   -1    0    0    0  501 -0.00000000000E+00  0.00000000000E+00  0.94637758033E+03  0.94637758033E+03  0.00000000000E+00 0.  1.
          2   -1    0    0  501    0  0.00000000000E+00 -0.00000000000E+00 -0.60886422058E+03  0.60886422058E+03  0.00000000000E+00 0. -1.
         23    2    1    2    0    0 -0.56106622942E+03 -0.33078997008E+03  0.56337095786E+03  0.86587326905E+03  0.90179619630E+02 0.  0.
         11    1    3    3    0    0 -0.43154327672E+03 -0.28280775570E+03  0.40643296598E+03  0.65680863438E+03  0.00000000000E+00 0. -1.
        -11    1    3    3    0    0 -0.12952295270E+03 -0.47982214380E+02  0.15693799188E+03  0.20906463467E+03  0.00000000000E+00 0.  1.
         22    1    1    2    0    0  0.56106622942E+03  0.33078997008E+03 -0.22585759810E+03  0.68936853186E+03  0.00000000000E+00 0. -1.
<mgrwt>
<rscale>  0 0.15181771E+04</rscale>
<asrwt>0</asrwt>
<pdfrwt beam="1">  1        2 0.93671419E-01 0.15181771E+04</pdfrwt>
<pdfrwt beam="2">  1       -2 0.14559655E+00 0.15181771E+04</pdfrwt>
<totfact> 0.15228625E+01</totfact>
</mgrwt>
</event>
<event>
 6    1  0.1588846E-005  0.8369399E+03  0.7818608E-02  0.9508035E-01
         -1   -1    0    0    0  501 -0.00000000000E+00  0.00000000000E+00  0.19146259314E+03  0.19146259314E+03  0.00000000000E+00 0.  1.
          1   -1    0    0  501    0  0.00000000000E+00 -0.00000000000E+00 -0.91462825032E+03  0.91462825032E+03  0.00000000000E+00 0. -1.
         23    2    1    2    0    0  0.73917877167E+02  0.36491338319E+03 -0.12769723709E+03  0.40380296153E+03  0.90136660576E+02 0.  0.
         13    1    3    3    0    0  0.14316478563E+02  0.10358057531E+03 -0.79746851079E+02  0.13150459079E+03  0.00000000000E+00 0. -1.
        -13    1    3    3    0    0  0.59601398604E+02  0.26133280788E+03 -0.47950386007E+02  0.27229837074E+03  0.00000000000E+00 0.  1.
         22    1    1    2    0    0 -0.73917877167E+02 -0.36491338319E+03 -0.59546842009E+03  0.70228788194E+03  0.00000000000E+00 0.  1.
<mgrwt>
<rscale>  0 0.83693989E+03</rscale>
<asrwt>0</asrwt>
<pdfrwt beam="1">  1        1 0.14071204E+00 0.83693989E+03</pdfrwt>
<pdfrwt beam="2">  1       -1 0.29455784E-01 0.83693989E+03</pdfrwt>
<totfact> 0.18812352E+02</totfact>
</mgrwt>
</event>
<event>
 6    1  0.1588846E-005  0.2666045E+04  0.7818608E-02  0.8346107E-01
          1   -1    0    0  501    0  0.00000000000E+00  0.00000000000E+00  0.14814150096E+04  0.14814150096E+04  0.00000000000E+00 0. -1.
         -1   -1    0    0    0  501 -0.00000000000E+00 -0.00000000000E+00 -0.11994944416E+04  0.11994944416E+04  0.00000000000E+00 0.  1.
         23    2    1    2    0    0 -0.29625778452E+03 -0.11287549040E+04 -0.50346384211E+03  0.12742520729E+04  0.91576179172E+02 0.  0.
         11    1    3    3    0    0 -0.28912319601E+03 -0.10005654100E+04 -0.46161980246E+03  0.11392173648E+04  0.00000000000E+00 0. -1.
        -11    1    3    3    0    0 -0.71345885015E+01 -0.12818949405E+03 -0.41844039658E+02  0.13503470810E+03  0.00000000000E+00 0.  1.
         22    1    1    2    0    0  0.29625778452E+03  0.11287549040E+04  0.78538441017E+03  0.14066573783E+04  0.00000000000E+00 0. -1.
<mgrwt>
<rscale>  0 0.26660451E+04</rscale>
<asrwt>0</asrwt>
<pdfrwt beam="1">  1        1 0.22791000E+00 0.26660451E+04</pdfrwt>
<pdfrwt beam="2">  1       -1 0.18453761E+00 0.26660451E+04</pdfrwt>
<totfact> 0.11398039E+00</totfact>
</mgrwt>
</event>
<event>
 6    1  0.1588846E-005  0.1467070E+04  0.7818608E-02  0.8906651E-01
         -1   -1    0    0    0  501 -0.00000000000E+00  0.00000000000E+00  0.18902198025E+04  0.18902198025E+04  0.00000000000E+00 0.  1.
          1   -1    0    0  501    0  0.00000000000E+00 -0.00000000000E+00 -0.28466179816E+03  0.28466179816E+03  0.00000000000E+00 0. -1.
         23    2    1    2    0    0 -0.68386954820E+03 -0.19171273693E+02  0.42588204743E+03  0.81118058505E+03  0.92700197168E+02 0.  0.
         11    1    3    3    0    0 -0.67492071231E+03 -0.94518386401E+01  0.42560839996E+03  0.79796604895E+03  0.00000000000E+00 0. -1.
        -11    1    3    3    0    0 -0.89488358842E+01 -0.97194350526E+01  0.27364747158E+00  0.13214536101E+02  0.00000000000E+00 0.  1.
         22    1    1    2    0    0  0.68386954820E+03  0.19171273693E+02  0.11796759569E+04  0.13637010156E+04  0.00000000000E+00 0.  1.
<mgrwt>
<rscale>  0 0.14670697E+04</rscale>
<asrwt>0</asrwt>
<pdfrwt beam="1">  1        1 0.43794124E-01 0.14670697E+04</pdfrwt>
<pdfrwt beam="2">  1       -1 0.29080304E+00 0.14670697E+04</pdfrwt>
<totfact> 0.34583398E+00</totfact>
</mgrwt>
</event>
<event>
 6    1  0.2024017E-005  0.3204289E+04  0.7818608E-02  0.8187685E-01
          1   -1    0    0  501    0  0.00000000000E+00  0.00000000000E+00  0.23131381807E+04  0.23131381807E+04  0.00000000000E+00 0. -1.
         -1   -1    0    0    0  501 -0.00000000000E+00 -0.00000000000E+00 -0.11096900664E+04  0.11096900664E+04  0.00000000000E+00 0.  1.
         23    2    1    2    0    0  0.15639392352E+04  0.25755498906E+03  0.36288370493E+03  0.16287298580E+04  0.93999272306E+02 0.  0.
         11    1    3    3    0    0  0.85081724131E+03  0.18040715714E+03  0.17356091504E+03  0.88688224229E+03  0.00000000000E+00 0.  1.
        -11    1    3    3    0    0  0.71312199389E+03  0.77147831919E+02  0.18932278988E+03  0.74184761570E+03  0.00000000000E+00 0. -1.
         22    1    1    2    0    0 -0.15639392352E+04 -0.25755498906E+03  0.84056440933E+03  0.17940983892E+04  0.00000000000E+00 0. -1.
<mgrwt>
<rscale>  0 0.32042887E+04</rscale>
<asrwt>0</asrwt>
<pdfrwt beam="1">  1        1 0.35586741E+00 0.32042887E+04</pdfrwt>
<pdfrwt beam="2">  1       -1 0.17072155E+00 0.32042887E+04</pdfrwt>
<totfact> 0.37054108E-01</totfact>
</mgrwt>
</event>
<event>
 6    1  0.1588846E-005  0.2181441E+04  0.7818608E-02  0.8526193E-01
         -1   -1    0    0    0  501 -0.00000000000E+00  0.00000000000E+00  0.11438577835E+04  0.11438577835E+04  0.00000000000E+00 0.  1.
          1   -1    0    0  501    0  0.00000000000E+00 -0.00000000000E+00 -0.10400514884E+04  0.10400514884E+04  0.00000000000E+00 0. -1.
         23    2    1    2    0    0  0.24611666364E+03  0.77147656705E+03 -0.67673394458E+03  0.10591903864E+04  0.90365575336E+02 0.  0.
         11    1    3    3    0    0  0.30531472231E+02  0.19673858339E+03 -0.19744291816E+03  0.28039605369E+03  0.00000000000E+00 0. -1.
        -11    1    3    3    0    0  0.21558519140E+03  0.57473798366E+03 -0.47929102641E+03  0.77879433268E+03  0.00000000000E+00 0.  1.
         22    1    1    2    0    0 -0.24611666364E+03 -0.77147656705E+03  0.78054023964E+03  0.11247188855E+04  0.00000000000E+00 0.  1.
<mgrwt>
<rscale>  0 0.21814408E+04</rscale>
<asrwt>0</asrwt>
<pdfrwt beam="1">  1        1 0.16000792E+00 0.21814408E+04</pdfrwt>
<pdfrwt beam="2">  1       -1 0.17597812E+00 0.21814408E+04</pdfrwt>
<totfact> 0.28621807E+00</totfact>
</mgrwt>
</event>
<event>
 6    1  0.1588846E-005  0.7936798E+03  0.7818608E-02  0.9569211E-01
         -2   -1    0    0    0  501 -0.00000000000E+00  0.00000000000E+00  0.84586767184E+02  0.84586767184E+02  0.00000000000E+00 0. -1.
          2   -1    0    0  501    0  0.00000000000E+00 -0.00000000000E+00 -0.18617796156E+04  0.18617796156E+04  0.00000000000E+00 0.  1.
         23    2    1    2    0    0 -0.13508444484E+03  0.85020633857E+02 -0.17772241750E+04  0.17867533620E+04  0.92116735094E+02 0.  0.
         13    1    3    3    0    0 -0.68106226450E+02  0.55948847036E+02 -0.13842673146E+04  0.13870705569E+04  0.00000000000E+00 0.  1.
        -13    1    3    3    0    0 -0.66978218390E+02  0.29071786821E+02 -0.39295686041E+03  0.39968280507E+03  0.00000000000E+00 0. -1.
         22    1    1    2    0    0  0.13508444484E+03 -0.85020633857E+02  0.31326624885E-01  0.15961302077E+03  0.00000000000E+00 0. -1.
<mgrwt>
<rscale>  0 0.79367983E+03</rscale>
<asrwt>0</asrwt>
<pdfrwt beam="1">  1        2 0.28642766E+00 0.79367983E+03</pdfrwt>
<pdfrwt beam="2">  1       -2 0.13013348E-01 0.79367983E+03</pdfrwt>
<totfact> 0.36074284E+02</totfact>
</mgrwt>
</event>
<event>
 6    1  0.1588846E-005  0.2848753E+04  0.7818608E-02  0.8288290E-01
          1   -1    0    0  501    0  0.00000000000E+00  0.00000000000E+00  0.41366036987E+04  0.41366036987E+04  0.00000000000E+00 0. -1.
         -1   -1    0    0    0  501 -0.00000000000E+00 -0.00000000000E+00 -0.49046241781E+03  0.49046241781E+03  0.00000000000E+00 0.  1.
         23    2    1    2    0    0 -0.13265551574E+04  0.49207263591E+03  0.15797817393E+04  0.21227247221E+04  0.91464951437E+02 0.  0.
         13    1    3    3    0    0 -0.23428753123E+03  0.88166602480E+02  0.33392801416E+03  0.41733908962E+03  0.00000000000E+00 0. -1.
        -13    1    3    3    0    0 -0.10922676262E+04  0.40390603343E+03  0.12458537251E+04  0.17053856325E+04  0.00000000000E+00 0.  1.
         22    1    1    2    0    0  0.13265551574E+04 -0.49207263591E+03  0.20663595416E+04  0.25043413944E+04  0.00000000000E+00 0.  1.
<mgrwt>
<rscale>  0 0.28487532E+04</rscale>
<asrwt>0</asrwt>
<pdfrwt beam="1">  1        1 0.63640055E+00 0.28487532E+04</pdfrwt>
<pdfrwt beam="2">  1       -1 0.75455759E-01 0.28487532E+04</pdfrwt>
<totfact> 0.11016468E-01</totfact>
</mgrwt>
</event>
<event>
 6    1  0.1588846E-005  0.2832616E+04  0.7818608E-02  0.8293213E-01
         -2   -1    0    0    0  501 -0.00000000000E+00  0.00000000000E+00  0.23641417968E+04  0.23641417968E+04  0.00000000000E+00 0.  1.
          2   -1    0    0  501    0  0.00000000000E+00 -0.00000000000E+00 -0.84848047437E+03  0.84848047437E+03  0.00000000000E+00 0. -1.
         23    2    1    2    0    0  0.31254490567E+03  0.13255961613E+04  0.11932606873E+04  0.18130395940E+04  0.91389281229E+02 0.  0.
         13    1    3    3    0    0  0.20773328953E+03  0.10455475576E+04  0.93316309377E+03  0.14167272759E+04  0.00000000000E+00 0. -1.
        -13    1    3    3    0    0  0.10481161614E+03  0.28004860363E+03  0.26009759351E+03  0.39631231803E+03  0.00000000000E+00 0.  1.
         22    1    1    2    0    0 -0.31254490567E+03 -0.13255961613E+04  0.32240063516E+03  0.13995826772E+04  0.00000000000E+00 0. -1.
<mgrwt>
<rscale>  0 0.28326159E+04</rscale>
<asrwt>0</asrwt>
<pdfrwt beam="1">  1        2 0.13053546E+00 0.28326159E+04</pdfrwt>
<pdfrwt beam="2">  1       -2 0.36371412E+00 0.28326159E+04</pdfrwt>
<totfact> 0.35157823E-01</totfact>
</mgrwt>
</event>
<event>
 6    1  0.1588846E-005  0.2538478E+04  0.7818608E-02  0.8389404E-01
          2   -1    0    0  501    0  0.00000000000E+00  0.00000000000E+00  0.21716030816E+04  0.21716030816E+04  0.00000000000E+00 0. -1.
         -2   -1    0    0    0  501 -0.00000000000E+00 -0.00000000000E+00 -0.74183318559E+03  0.74183318559E+03  0.00000000000E+00 0.  1.
         23    2    1    2    0    0  0.68740369832E+03  0.91916696339E+03  0.13329425093E+04  0.17615824162E+04  0.95105862192E+02 0.  0.
         11    1    3    3    0    0  0.33671431518E+03  0.38474723322E+03  0.55220426212E+03  0.75255332743E+03  0.00000000000E+00 0. -1.
        -11    1    3    3    0    0  0.35068938314E+03  0.53441973017E+03  0.78073824719E+03  0.10090290888E+04  0.00000000000E+00 0.  1.
         22    1    1    2    0    0 -0.68740369832E+03 -0.91916696339E+03  0.96827386661E+02  0.11518538509E+04  0.00000000000E+00 0.  1.
<mgrwt>
<rscale>  0 0.25384777E+04</rscale>
<asrwt>0</asrwt>
<pdfrwt beam="1">  1        2 0.33409278E+00 0.25384777E+04</pdfrwt>
<pdfrwt beam="2">  1       -2 0.11412818E+00 0.25384777E+04</pdfrwt>
<totfact> 0.28608468E+00</totfact>
</mgrwt>
</event>
<event>
 6    1  0.1588846E-005  0.5046210E+04  0.7818608E-02  0.7821418E-01
          2   -1    0    0  501    0  0.00000000000E+00  0.00000000000E+00  0.21209358211E+04  0.21209358211E+04  0.00000000000E+00 0. -1.
         -2   -1    0    0    0  501 -0.00000000000E+00 -0.00000000000E+00 -0.30015332233E+04  0.30015332233E+04  0.00000000000E+00 0.  1.
         23    2    1    2    0    0  0.19034226633E+04 -0.85360503133E+03 -0.18797043498E+04  0.28094895639E+04  0.91015286228E+02 0.  0.
         13    1    3    3    0    0  0.78585316421E+03 -0.30358998948E+03 -0.75452341227E+03  0.11309454704E+04  0.00000000000E+00 0. -1.
        -13    1    3    3    0    0  0.11175694991E+04 -0.55001504185E+03 -0.11251809375E+04  0.16785440935E+04  0.00000000000E+00 0.  1.
         22    1    1    2    0    0 -0.19034226633E+04  0.85360503133E+03  0.99910694758E+03  0.23129794805E+04  0.00000000000E+00 0. -1.
<mgrwt>
<rscale>  0 0.50462102E+04</rscale>
<asrwt>0</asrwt>
<pdfrwt beam="1">  1        2 0.32629782E+00 0.50462102E+04</pdfrwt>
<pdfrwt beam="2">  1       -2 0.46177434E+00 0.50462102E+04</pdfrwt>
<totfact> 0.12086591E-02</totfact>
</mgrwt>
</event>
<event>
 6    1  0.1588846E-005  0.2463746E+04  0.7818608E-02  0.8416016E-01
         -1   -1    0    0    0  501 -0.00000000000E+00  0.00000000000E+00  0.89075963693E+03  0.89075963693E+03  0.00000000000E+00 0.  1.
          1   -1    0    0  501    0  0.00000000000E+00 -0.00000000000E+00 -0.17036144032E+04  0.17036144032E+04  0.00000000000E+00 0. -1.
         23    2    1    2    0    0 -0.52817007638E+03  0.11007361286E+04 -0.56611761741E+03  0.13487967141E+04  0.90442051647E+02 0.  0.
         11    1    3    3    0    0 -0.16966514052E+03  0.45533803632E+03 -0.22965399161E+03  0.53745692207E+03  0.00000000000E+00 0.  1.
        -11    1    3    3    0    0 -0.35850493586E+03  0.64539809232E+03 -0.33646362581E+03  0.81133979200E+03  0.00000000000E+00 0. -1.
         22    1    1    2    0    0  0.52817007638E+03 -0.11007361286E+04 -0.24673714881E+03  0.12455773260E+04  0.00000000000E+00 0.  1.
<mgrwt>
<rscale>  0 0.24637459E+04</rscale>
<asrwt>0</asrwt>
<pdfrwt beam="1">  1        1 0.26209452E+00 0.24637459E+04</pdfrwt>
<pdfrwt beam="2">  1       -1 0.13703994E+00 0.24637459E+04</pdfrwt>
<totfact> 0.18716381E+00</totfact>
</mgrwt>
</event>
<event>
 6    1  0.1588846E-005  0.1989755E+04  0.7818608E-02  0.8611426E-01
         -1   -1    0    0    0  501 -0.00000000000E+00  0.00000000000E+00  0.44739716072E+03  0.44739716072E+03  0.00000000000E+00 0.  1.
          1   -1    0    0  501    0  0.00000000000E+00 -0.00000000000E+00 -0.22123101157E+04  0.22123101157E+04  0.00000000000E+00 0. -1.
         23    2    1    2    0    0 -0.50797072721E+03 -0.85267926247E+03 -0.88905000665E+03  0.13359882395E+04  0.96739223962E+02 0.  0.
         11    1    3    3    0    0 -0.13070773269E+03 -0.16641855249E+03 -0.22905309475E+03  0.31184125162E+03  0.00000000000E+00 0.  1.
        -11    1    3    3    0    0 -0.37726299452E+03 -0.68626070999E+03 -0.65999691190E+03  0.10241469879E+04  0.00000000000E+00 0. -1.
         22    1    1    2    0    0  0.50797072721E+03  0.85267926247E+03 -0.87586294832E+03  0.13237190369E+04  0.00000000000E+00 0. -1.
<mgrwt>
<rscale>  0 0.19897550E+04</rscale>
<asrwt>0</asrwt>
<pdfrwt beam="1">  1        1 0.34035540E+00 0.19897550E+04</pdfrwt>
<pdfrwt beam="2">  1       -1 0.68830333E-01 0.19897550E+04</pdfrwt>
<totfact> 0.42378067E+00</totfact>
</mgrwt>
</event>
<event>
 6    1  0.1588846E-005  0.2006733E+04  0.7818608E-02  0.8603479E-01
         -2   -1    0    0    0  501 -0.00000000000E+00  0.00000000000E+00  0.20988241596E+04  0.20988241596E+04  0.00000000000E+00 0.  1.
          2   -1    0    0  501    0  0.00000000000E+00 -0.00000000000E+00 -0.47967051643E+03  0.47967051643E+03  0.00000000000E+00 0. -1.
         23    2    1    2    0    0  0.53927202390E+03 -0.82504075443E+03  0.10367872213E+04  0.14336552936E+04  0.94515588119E+02 0.  0.
         13    1    3    3    0    0  0.30570172735E+03 -0.52621468295E+03  0.68591214197E+03  0.91696832288E+03  0.00000000000E+00 0. -1.
        -13    1    3    3    0    0  0.23357029654E+03 -0.29882607148E+03  0.35087507935E+03  0.51668697074E+03  0.00000000000E+00 0.  1.
         22    1    1    2    0    0 -0.53927202390E+03  0.82504075443E+03  0.58236642187E+03  0.11448393824E+04  0.00000000000E+00 0.  1.
<mgrwt>
<rscale>  0 0.20067327E+04</rscale>
<asrwt>0</asrwt>
<pdfrwt beam="1">  1        2 0.73795465E-01 0.20067327E+04</pdfrwt>
<pdfrwt beam="2">  1       -2 0.32289602E+00 0.20067327E+04</pdfrwt>
<totfact> 0.13809445E+00</totfact>
</mgrwt>
</event>
<event>
 6    1  0.1588846E-005  0.2309369E+04  0.7818608E-02  0.8474236E-01
          2   -1    0    0  501    0  0.00000000000E+00  0.00000000000E+00  0.88800077422E+03  0.88800077422E+03  0.00000000000E+00 0.  1.
         -2   -1    0    0    0  501 -0.00000000000E+00 -0.00000000000E+00 -0.15014578350E+04  0.15014578350E+04  0.00000000000E+00 0. -1.
         23    2    1    2    0    0  0.87380550006E+03 -0.58639973156E+03 -0.79433201030E+03  0.13216962553E+04  0.92287332099E+02 0.  0.
         13    1    3    3    0    0  0.59352241345E+03 -0.34561836168E+03 -0.52229130673E+03  0.86284941693E+03  0.00000000000E+00 0.  1.
        -13    1    3    3    0    0  0.28028308661E+03 -0.24078136988E+03 -0.27204070356E+03  0.45884683840E+03  0.00000000000E+00 0. -1.
         22    1    1    2    0    0 -0.87380550006E+03  0.58639973156E+03  0.18087494948E+03  0.10677623539E+04  0.00000000000E+00 0.  1.
<mgrwt>
<rscale>  0 0.23093685E+04</rscale>
<asrwt>0</asrwt>
<pdfrwt beam="1">  1        2 0.13661551E+00 0.23093685E+04</pdfrwt>
<pdfrwt beam="2">  1       -2 0.23099351E+00 0.23093685E+04</pdfrwt>
<totfact> 0.22806838E+00</totfact>
</mgrwt>
</event>
<event>
 6    1  0.1588846E-005  0.7723045E+04  0.7818608E-02  0.7507141E-01
          2   -1    0    0  501    0  0.00000000000E+00  0.00000000000E+00  0.29042533202E+04  0.29042533202E+04  0.00000000000E+00 0. -1.
         -2   -1    0    0    0  501 -0.00000000000E+00 -0.00000000000E+00 -0.51343167662E+04  0.51343167662E+04  0.00000000000E+00 0.  1.
         23    2    1    2    0    0 -0.10678900232E+04  0.13920492828E+04  0.24646571297E+04  0.30267249580E+04  0.91317560298E+02 0.  0.
         11    1    3    3    0    0 -0.23466365631E+03  0.35732306875E+03  0.64123795319E+03  0.77067043518E+03  0.00000000000E+00 0.  1.
        -11    1    3    3    0    0 -0.83322636688E+03  0.10347262141E+04  0.18234191765E+04  0.22560545228E+04  0.00000000000E+00 0. -1.
         22    1    1    2    0    0  0.10678900232E+04 -0.13920492828E+04 -0.46947205757E+04  0.50118451284E+04  0.00000000000E+00 0.  1.
<mgrwt>
<rscale>  0 0.77230451E+04</rscale>
<asrwt>0</asrwt>
<pdfrwt beam="1">  1        2 0.44680821E+00 0.77230451E+04</pdfrwt>
<pdfrwt beam="2">  1       -2 0.78989488E+00 0.77230451E+04</pdfrwt>
<totfact> 0.10752318E-04</totfact>
</mgrwt>
</event>
<event>
 6    1  0.1588846E-005  0.2605686E+04  0.7818608E-02  0.8366272E-01
          1   -1    0    0  501    0  0.00000000000E+00  0.00000000000E+00  0.21672044774E+04  0.21672044774E+04  0.00000000000E+00 0. -1.
         -1   -1    0    0    0  501 -0.00000000000E+00 -0.00000000000E+00 -0.78322095414E+03  0.78322095414E+03  0.00000000000E+00 0.  1.
         23    2    1    2    0    0 -0.97380780255E+03  0.20732616233E+03 -0.25579835800E+03  0.10320484112E+04  0.91680692010E+02 0.  0.
         13    1    3    3    0    0 -0.53427851787E+03  0.14157081778E+03 -0.10398429315E+03  0.56241316159E+03  0.00000000000E+00 0. -1.
        -13    1    3    3    0    0 -0.43952928468E+03  0.65755344552E+02 -0.15181406484E+03  0.46963524965E+03  0.00000000000E+00 0.  1.
         22    1    1    2    0    0  0.97380780255E+03 -0.20732616233E+03  0.16397818813E+04  0.19183770203E+04  0.00000000000E+00 0. -1.
<mgrwt>
<rscale>  0 0.26056861E+04</rscale>
<asrwt>0</asrwt>
<pdfrwt beam="1">  1        1 0.33341607E+00 0.26056861E+04</pdfrwt>
<pdfrwt beam="2">  1       -1 0.12049553E+00 0.26056861E+04</pdfrwt>
<totfact> 0.12371031E+00</totfact>
</mgrwt>
</event>
<event>
 6    1  0.1588846E-005  0.2158736E+04  0.7818608E-02  0.8535802E-01
         -1   -1    0    0    0  501 -0.00000000000E+00  0.00000000000E+00  0.41782011296E+03  0.41782011296E+03  0.00000000000E+00 0. -1.
          1   -1    0    0  501    0  0.00000000000E+00 -0.00000000000E+00 -0.27883660338E+04  0.27883660338E+04  0.00000000000E+00 0.  1.
         23    2    1    2    0    0 -0.37024335339E+03 -0.69458180829E+03 -0.94130216789E+02  0.79753663162E+03  0.87636475975E+02 0.  0.
         11    1    3    3    0    0 -0.23408532093E+03 -0.52161045392E+03 -0.62228434394E+02  0.57510501751E+03  0.00000000000E+00 0. -1.
        -11    1    3    3    0    0 -0.13615803246E+03 -0.17297135437E+03 -0.31901782395E+02  0.22243161411E+03  0.00000000000E+00 0.  1.
         22    1    1    2    0    0  0.37024335339E+03  0.69458180829E+03 -0.22764157041E+04  0.24086495152E+04  0.00000000000E+00 0.  1.
<mgrwt>
<rscale>  0 0.21587361E+04</rscale>
<asrwt>0</asrwt>
<pdfrwt beam="1">  1        1 0.42897940E+00 0.21587361E+04</pdfrwt>
<pdfrwt beam="2">  1       -1 0.64280016E-01 0.21587361E+04</pdfrwt>
<totfact> 0.19086861E+00</totfact>
</mgrwt>
</event>
<event>
 6    1  0.1588846E-005  0.1241307E+04  0.7818608E-02  0.9077450E-01
         -1   -1    0    0    0  501 -0.00000000000E+00  0.00000000000E+00  0.90865984490E+03  0.90865984490E+03  0.00000000000E+00 0.  1.
          1   -1    0    0  501    0  0.00000000000E+00 -0.00000000000E+00 -0.42393284596E+03  0.42393284596E+03  0.00000000000E+00 0. -1.
         23    2    1    2    0    0 -0.47979759175E+03  0.23119559031E+03  0.57835375239E+03  0.79183109923E+03  0.94054754076E+02 0.  0.
         13    1    3    3    0    0 -0.17645642081E+03  0.13637870704E+03  0.24025404723E+03  0.32780791233E+03  0.00000000000E+00 0. -1.
        -13    1    3    3    0    0 -0.30334117094E+03  0.94816883270E+02  0.33809970517E+03  0.46402318689E+03  0.00000000000E+00 0.  1.
         22    1    1    2    0    0  0.47979759175E+03 -0.23119559031E+03 -0.93626753448E+02  0.54076159164E+03  0.00000000000E+00 0. -1.
<mgrwt>
<rscale>  0 0.12413070E+04</rscale>
<asrwt>0</asrwt>
<pdfrwt beam="1">  1        1 0.65220438E-01 0.12413070E+04</pdfrwt>
<pdfrwt beam="2">  1       -1 0.13979382E+00 0.12413070E+04</pdfrwt>
<totfact> 0.23049645E+01</totfact>
</mgrwt>
</event>
<event>
 6    1  0.1588846E-005  0.4047574E+04  0.7818608E-02  0.7995018E-01
          1   -1    0    0  501    0  0.00000000000E+00  0.00000000000E+00  0.13434700073E+04  0.13434700073E+04  0.00000000000E+00 0. -1.
         -1   -1    0    0    0  501 -0.00000000000E+00 -0.00000000000E+00 -0.30486084418E+04  0.30486084418E+04  0.00000000000E+00 0.  1.
         23    2    1    2    0    0 -0.17567764681E+04 -0.42058745549E+03 -0.18405086813E+04  0.25805921891E+04  0.93949314808E+02 0.  0.
         13    1    3    3    0    0 -0.24668372893E+03 -0.67653773021E+02 -0.30749980649E+03  0.39998253226E+03  0.00000000000E+00 0.  1.
        -13    1    3    3    0    0 -0.15100927392E+04 -0.35293368247E+03 -0.15330088748E+04  0.21806096568E+04  0.00000000000E+00 0. -1.
         22    1    1    2    0    0  0.17567764681E+04  0.42058745549E+03  0.13537024688E+03  0.18114862600E+04  0.00000000000E+00 0.  1.
<mgrwt>
<rscale>  0 0.40475741E+04</rscale>
<asrwt>0</asrwt>
<pdfrwt beam="1">  1        1 0.20668770E+00 0.40475741E+04</pdfrwt>
<pdfrwt beam="2">  1       -1 0.46901667E+00 0.40475741E+04</pdfrwt>
<totfact> 0.15743702E-02</totfact>
</mgrwt>
</event>
<event>
 6    1  0.1588846E-005  0.4912696E+03  0.7818608E-02  0.1016083E+00
          1   -1    0    0  501    0  0.00000000000E+00  0.00000000000E+00  0.25028654559E+03  0.25028654559E+03  0.00000000000E+00 0. -1.
         -1   -1    0    0    0  501 -0.00000000000E+00 -0.00000000000E+00 -0.24106954039E+03  0.24106954039E+03  0.00000000000E+00 0.  1.
         23    2    1    2    0    0 -0.11149218199E+03 -0.66032431045E+02 -0.19374438008E+03  0.25055718126E+03  0.91930558956E+02 0.  0.
         11    1    3    3    0    0 -0.10940972152E+02 -0.20633512975E+02 -0.10891142253E+03  0.11138736323E+03  0.00000000000E+00 0.  1.
        -11    1    3    3    0    0 -0.10055120984E+03 -0.45398918070E+02 -0.84832957551E+02  0.13916981803E+03  0.00000000000E+00 0. -1.
         22    1    1    2    0    0  0.11149218199E+03  0.66032431045E+02  0.20296138529E+03  0.24079890472E+03  0.00000000000E+00 0. -1.
<mgrwt>
<rscale>  0 0.49126963E+03</rscale>
<asrwt>0</asrwt>
<pdfrwt beam="1">  1        1 0.38505623E-01 0.49126963E+03</pdfrwt>
<pdfrwt beam="2">  1       -1 0.37087621E-01 0.49126963E+03</pdfrwt>
<totfact> 0.78062854E+02</totfact>
</mgrwt>
</event>
<event>
 6    1  0.1588846E-005  0.2822257E+04  0.7818608E-02  0.8296392E-01
          1   -1    0    0  501    0  0.00000000000E+00  0.00000000000E+00  0.17811212474E+04  0.17811212474E+04  0.00000000000E+00 0. -1.
         -1   -1    0    0    0  501 -0.00000000000E+00 -0.00000000000E+00 -0.11179943885E+04  0.11179943885E+04  0.00000000000E+00 0.  1.
         23    2    1    2    0    0 -0.95316572404E+03  0.33227804665E+03  0.13427040742E+04  0.16822513094E+04  0.90452414661E+02 0.  0.
         11    1    3    3    0    0 -0.91202857210E+03  0.32737531283E+03  0.12577680139E+04  0.15877503231E+04  0.00000000000E+00 0. -1.
        -11    1    3    3    0    0 -0.41137151938E+02  0.49027338206E+01  0.84936060250E+02  0.94500986234E+02  0.00000000000E+00 0.  1.
         22    1    1    2    0    0  0.95316572404E+03 -0.33227804665E+03 -0.67957721526E+03  0.12168643266E+04  0.00000000000E+00 0.  1.
<mgrwt>
<rscale>  0 0.28222569E+04</rscale>
<asrwt>0</asrwt>
<pdfrwt beam="1">  1        1 0.27401865E+00 0.28222569E+04</pdfrwt>
<pdfrwt beam="2">  1       -1 0.17199914E+00 0.28222569E+04</pdfrwt>
<totfact> 0.86258865E-01</totfact>
</mgrwt>
</event>
<event>
 6    1  0.1588846E-005  0.2717692E+04  0.7818608E-02  0.8329287E-01
         -2   -1    0    0    0  501 -0.00000000000E+00  0.00000000000E+00  0.14670796528E+04  0.14670796528E+04  0.00000000000E+00 0.  1.
          2   -1    0    0  501    0  0.00000000000E+00 -0.00000000000E+00 -0.12585974694E+04  0.12585974694E+04  0.00000000000E+00 0. -1.
         23    2    1    2    0    0 -0.30923274578E+03 -0.21655973973E+03 -0.12032573544E+04  0.12643313265E+04  0.90456786092E+02 0.  0.
         11    1    3    3    0    0 -0.91993179753E+02 -0.21980131186E+02 -0.24279169345E+03  0.26056415275E+03  0.00000000000E+00 0. -1.
        -11    1    3    3    0    0 -0.21723956603E+03 -0.19457960855E+03 -0.96046566098E+03  0.10037671737E+04  0.00000000000E+00 0.  1.
         22    1    1    2    0    0  0.30923274578E+03  0.21655973973E+03  0.14117395378E+04  0.14613457957E+04  0.00000000000E+00 0.  1.
<mgrwt>
<rscale>  0 0.27176922E+04</rscale>
<asrwt>0</asrwt>
<pdfrwt beam="1">  1        2 0.19363038E+00 0.27176922E+04</pdfrwt>
<pdfrwt beam="2">  1       -2 0.22570456E+00 0.27176922E+04</pdfrwt>
<totfact> 0.13932249E+00</totfact>
</mgrwt>
</event>
<event>
 6    1  0.2553202E-005  0.2525899E+04  0.7818608E-02  0.8393816E-01
          2   -1    0    0  501    0  0.00000000000E+00  0.00000000000E+00  0.17793060933E+04  0.17793060933E+04  0.00000000000E+00 0. -1.
         -2   -1    0    0    0  501 -0.00000000000E+00 -0.00000000000E+00 -0.89644050785E+03  0.89644050785E+03  0.00000000000E+00 0.  1.
         23    2    1    2    0    0  0.12862269051E+03  0.39480058523E+03 -0.81961162744E+03  0.92336537578E+03  0.91810123306E+02 0.  0.
         13    1    3    3    0    0  0.49089333710E+02  0.91957467236E+02 -0.28942077770E+03  0.30762042362E+03  0.00000000000E+00 0.  1.
        -13    1    3    3    0    0  0.79533356803E+02  0.30284311799E+03 -0.53019084974E+03  0.61574495216E+03  0.00000000000E+00 0. -1.
         22    1    1    2    0    0 -0.12862269051E+03 -0.39480058523E+03  0.17024772129E+04  0.17523812254E+04  0.00000000000E+00 0. -1.
<mgrwt>
<rscale>  0 0.25258995E+04</rscale>
<asrwt>0</asrwt>
<pdfrwt beam="1">  1        2 0.27373940E+00 0.25258995E+04</pdfrwt>
<pdfrwt beam="2">  1       -2 0.13791392E+00 0.25258995E+04</pdfrwt>
<totfact> 0.29450236E+00</totfact>
</mgrwt>
</event>
<event>
 6    1  0.1588846E-005  0.1490254E+04  0.7818608E-02  0.8890960E-01
          2   -1    0    0  501    0  0.00000000000E+00  0.00000000000E+00  0.44694415281E+03  0.44694415281E+03  0.00000000000E+00 0.  1.
         -2   -1    0    0    0  501 -0.00000000000E+00 -0.00000000000E+00 -0.12422448674E+04  0.12422448674E+04  0.00000000000E+00 0. -1.
         23    2    1    2    0    0 -0.68702337480E+03  0.26993248607E+03 -0.31509585257E+03  0.80858617326E+03  0.98293126539E+02 0.  0.
         11    1    3    3    0    0 -0.19641532309E+03  0.66275284863E+02 -0.42819571057E+02  0.21167169909E+03  0.00000000000E+00 0. -1.
        -11    1    3    3    0    0 -0.49060805171E+03  0.20365720121E+03 -0.27227628151E+03  0.59691447418E+03  0.00000000000E+00 0.  1.
         22    1    1    2    0    0  0.68702337480E+03 -0.26993248607E+03 -0.48020486204E+03  0.88060284697E+03  0.00000000000E+00 0. -1.
<mgrwt>
<rscale>  0 0.14902538E+04</rscale>
<asrwt>0</asrwt>
<pdfrwt beam="1">  1        2 0.68760640E-01 0.14902538E+04</pdfrwt>
<pdfrwt beam="2">  1       -2 0.19111459E+00 0.14902538E+04</pdfrwt>
<totfact> 0.10314192E+01</totfact>
</mgrwt>
</event>
<event>
 6    1  0.1588846E-005  0.3090984E+04  0.7818608E-02  0.8218217E-01
          1   -1    0    0  501    0  0.00000000000E+00  0.00000000000E+00  0.11406085030E+04  0.11406085030E+04  0.00000000000E+00 0. -1.
         -1   -1    0    0    0  501 -0.00000000000E+00 -0.00000000000E+00 -0.20940980334E+04  0.20940980334E+04  0.00000000000E+00 0.  1.
         23    2    1    2    0    0 -0.19656002310E+03  0.12928117664E+04 -0.13366501266E+04  0.18720583248E+04  0.89278802372E+02 0.  0.
         13    1    3    3    0    0 -0.64977303141E+02  0.23323323158E+03 -0.22099709960E+03  0.32781017109E+03  0.00000000000E+00 0.  1.
        -13    1    3    3    0    0 -0.13158271996E+03  0.10595785348E+04 -0.11156530270E+04  0.15442481537E+04  0.00000000000E+00 0. -1.
         22    1    1    2    0    0  0.19656002310E+03 -0.12928117664E+04  0.38316059614E+03  0.13626482116E+04  0.00000000000E+00 0. -1.
<mgrwt>
<rscale>  0 0.30909843E+04</rscale>
<asrwt>0</asrwt>
<pdfrwt beam="1">  1        1 0.17547823E+00 0.30909843E+04</pdfrwt>
<pdfrwt beam="2">  1       -1 0.32216892E+00 0.30909843E+04</pdfrwt>
<totfact> 0.23643021E-01</totfact>
</mgrwt>
</event>
<event>
 6    1  0.1588846E-005  0.1367488E+04  0.7818608E-02  0.8977694E-01
         -1   -1    0    0    0  501 -0.00000000000E+00  0.00000000000E+00  0.70486657065E+03  0.70486657065E+03  0.00000000000E+00 0.  1.
          1   -1    0    0  501    0  0.00000000000E+00 -0.00000000000E+00 -0.66325474398E+03  0.66325474398E+03  0.00000000000E+00 0. -1.
         23    2    1    2    0    0  0.30644583352E+03 -0.49419412439E+03  0.37549070274E+03  0.69759019280E+03  0.86613669736E+02 0.  0.
         13    1    3    3    0    0  0.18444571929E+02 -0.50731209652E+02  0.64629775754E+02  0.84207278667E+02  0.00000000000E+00 0.  1.
        -13    1    3    3    0    0  0.28800126159E+03 -0.44346291474E+03  0.31086092698E+03  0.61338291413E+03  0.00000000000E+00 0. -1.
         22    1    1    2    0    0 -0.30644583352E+03  0.49419412439E+03 -0.33387887606E+03  0.67053112183E+03  0.00000000000E+00 0. -1.
<mgrwt>
<rscale>  0 0.13674884E+04</rscale>
<asrwt>0</asrwt>
<pdfrwt beam="1">  1        1 0.10203919E+00 0.13674884E+04</pdfrwt>
<pdfrwt beam="2">  1       -1 0.10844101E+00 0.13674884E+04</pdfrwt>
<totfact> 0.22814323E+01</totfact>
</mgrwt>
</event>
<event>
 6    1  0.1588846E-005  0.4417626E+04  0.7818608E-02  0.7925219E-01
          2   -1    0    0  501    0  0.00000000000E+00  0.00000000000E+00  0.11641120407E+04  0.11641120407E+04  0.00000000000E+00 0. -1.
         -2   -1    0    0    0  501 -0.00000000000E+00 -0.00000000000E+00 -0.41910528778E+04  0.41910528778E+04  0.00000000000E+00 0.  1.
         23    2    1    2    0    0  0.10868146776E+04  0.98144153681E+03  0.48905319684E+03  0.15464108334E+04  0.88429648447E+02 0.  0.
         13    1    3    3    0    0  0.15944845782E+03  0.18123404593E+03  0.62125150250E+02  0.24925714513E+03  0.00000000000E+00 0.  1.
        -13    1    3    3    0    0  0.92736621975E+03  0.80020749088E+03  0.42692804659E+03  0.12971536883E+04  0.00000000000E+00 0. -1.
         22    1    1    2    0    0 -0.10868146776E+04 -0.98144153681E+03 -0.35159940340E+04  0.38087540851E+04  0.00000000000E+00 0.  1.
<mgrwt>
<rscale>  0 0.44176261E+04</rscale>
<asrwt>0</asrwt>
<pdfrwt beam="1">  1        2 0.17909416E+00 0.44176261E+04</pdfrwt>
<pdfrwt beam="2">  1       -2 0.64477736E+00 0.44176261E+04</pdfrwt>
<totfact> 0.53306000E-03</totfact>
</mgrwt>
</event>
<event>
 6    1  0.1588846E-005  0.1733892E+04  0.7818608E-02  0.8742267E-01
         -1   -1    0    0    0  501 -0.00000000000E+00  0.00000000000E+00  0.59923198841E+03  0.59923198841E+03  0.00000000000E+00 0.  1.
          1   -1    0    0  501    0  0.00000000000E+00 -0.00000000000E+00 -0.12542650095E+04  0.12542650095E+04  0.00000000000E+00 0. -1.
         23    2    1    2    0    0  0.25325061129E+03  0.22411470997E+01 -0.12120563193E+04  0.12416017048E+04  0.91396812131E+02 0.  0.
         11    1    3    3    0    0  0.80302759158E+02 -0.41026529547E+02 -0.36330380404E+03  0.37432788206E+03  0.00000000000E+00 0. -1.
        -11    1    3    3    0    0  0.17294785213E+03  0.43267676647E+02 -0.84875251528E+03  0.86727382273E+03  0.00000000000E+00 0.  1.
         22    1    1    2    0    0 -0.25325061129E+03 -0.22411470997E+01  0.55702329828E+03  0.61189529307E+03  0.00000000000E+00 0.  1.
<mgrwt>
<rscale>  0 0.17338924E+04</rscale>
<asrwt>0</asrwt>
<pdfrwt beam="1">  1        1 0.19296385E+00 0.17338924E+04</pdfrwt>
<pdfrwt beam="2">  1       -1 0.92189537E-01 0.17338924E+04</pdfrwt>
<totfact> 0.10604003E+01</totfact>
</mgrwt>
</event>
<event>
 6    1  0.1620968E-005  0.2989321E+04  0.7818608E-02  0.8246787E-01
          2   -1    0    0  501    0  0.00000000000E+00  0.00000000000E+00  0.13582166760E+04  0.13582166760E+04  0.00000000000E+00 0. -1.
         -2   -1    0    0    0  501 -0.00000000000E+00 -0.00000000000E+00 -0.16448111315E+04  0.16448111315E+04  0.00000000000E+00 0.  1.
         23    2    1    2    0    0 -0.51286237939E+03 -0.42436313582E+02 -0.15519436750E+04  0.16370346494E+04  0.80775069551E+02 0.  0.
         11    1    3    3    0    0 -0.30400901810E+03  0.11262303717E+02 -0.95888216789E+03  0.10059837645E+04  0.00000000000E+00 0.  1.
        -11    1    3    3    0    0 -0.20885336129E+03 -0.53698617299E+02 -0.59306150715E+03  0.63105088486E+03  0.00000000000E+00 0. -1.
         22    1    1    2    0    0  0.51286237939E+03  0.42436313582E+02  0.12653492195E+04  0.13659931582E+04  0.00000000000E+00 0. -1.
<mgrwt>
<rscale>  0 0.29893209E+04</rscale>
<asrwt>0</asrwt>
<pdfrwt beam="1">  1        2 0.20895641E+00 0.29893209E+04</pdfrwt>
<pdfrwt beam="2">  1       -2 0.25304786E+00 0.29893209E+04</pdfrwt>
<totfact> 0.80647611E-01</totfact>
</mgrwt>
</event>
<event>
 6    1  0.1588846E-005  0.2336740E+04  0.7818608E-02  0.8463574E-01
         -2   -1    0    0    0  501 -0.00000000000E+00  0.00000000000E+00  0.14834743448E+04  0.14834743448E+04  0.00000000000E+00 0. -1.
          2   -1    0    0  501    0  0.00000000000E+00 -0.00000000000E+00 -0.92019669866E+03  0.92019669866E+03  0.00000000000E+00 0.  1.
         23    2    1    2    0    0  0.78924192894E+03 -0.21680050516E+03  0.11371010509E+04  0.14040818371E+04  0.92421447272E+02 0.  0.
         11    1    3    3    0    0  0.38007245355E+03 -0.77098644809E+02  0.47333732020E+03  0.61192114661E+03  0.00000000000E+00 0. -1.
        -11    1    3    3    0    0  0.40916947539E+03 -0.13970186035E+03  0.66376373074E+03  0.79216069053E+03  0.00000000000E+00 0.  1.
         22    1    1    2    0    0 -0.78924192894E+03  0.21680050516E+03 -0.57382340481E+03  0.99958920630E+03  0.00000000000E+00 0.  1.
<mgrwt>
<rscale>  0 0.23367398E+04</rscale>
<asrwt>0</asrwt>
<pdfrwt beam="1">  1        2 0.14156872E+00 0.23367398E+04</pdfrwt>
<pdfrwt beam="2">  1       -2 0.22822682E+00 0.23367398E+04</pdfrwt>
<totfact> 0.22524942E+00</totfact>
</mgrwt>
</event>
<event>
 6    1  0.1588846E-005  0.2245442E+04  0.7818608E-02  0.8499749E-01
          2   -1    0    0  501    0  0.00000000000E+00  0.00000000000E+00  0.31030319712E+04  0.31030319712E+04  0.00000000000E+00 0. -1.
         -2   -1    0    0    0  501 -0.00000000000E+00 -0.00000000000E+00 -0.40621631647E+03  0.40621631647E+03  0.00000000000E+00 0.  1.
         23    2    1    2    0    0  0.41876460206E+03  0.25049597152E+03  0.29277210666E+04  0.29694063359E+04  0.87814125542E+02 0.  0.
         13    1    3    3    0    0  0.17184774552E+03  0.15353930657E+03  0.13331979284E+04  0.13529681011E+04  0.00000000000E+00 0. -1.
        -13    1    3    3    0    0  0.24691685654E+03  0.96956664952E+02  0.15945231382E+04  0.16164382349E+04  0.00000000000E+00 0.  1.
         22    1    1    2    0    0 -0.41876460206E+03 -0.25049597152E+03 -0.23090541180E+03  0.53984195176E+03  0.00000000000E+00 0.  1.
<mgrwt>
<rscale>  0 0.22454418E+04</rscale>
<asrwt>0</asrwt>
<pdfrwt beam="1">  1        2 0.47738952E+00 0.22454418E+04</pdfrwt>
<pdfrwt beam="2">  1       -2 0.62494820E-01 0.22454418E+04</pdfrwt>
<totfact> 0.32446716E+00</totfact>
</mgrwt>
</event>
<event>
 6    1  0.1588846E-005  0.8859964E+03  0.7818608E-02  0.9443258E-01
         -2   -1    0    0    0  501 -0.00000000000E+00  0.00000000000E+00  0.22142272963E+03  0.22142272963E+03  0.00000000000E+00 0.  1.
          2   -1    0    0  501    0  0.00000000000E+00 -0.00000000000E+00 -0.88630189171E+03  0.88630189171E+03  0.00000000000E+00 0. -1.
         23    2    1    2    0    0  0.28268367230E+03 -0.33496919829E+03 -0.32614413565E+03  0.55377891957E+03  0.90480230713E+02 0.  0.
         11    1    3    3    0    0  0.14858128804E+03 -0.18970801869E+03 -0.12388434003E+03  0.27094807845E+03  0.00000000000E+00 0.  1.
        -11    1    3    3    0    0  0.13410238426E+03 -0.14526117960E+03 -0.20225979562E+03  0.28283084112E+03  0.00000000000E+00 0. -1.
         22    1    1    2    0    0 -0.28268367230E+03  0.33496919829E+03 -0.33873502643E+03  0.55394570177E+03  0.00000000000E+00 0. -1.
<mgrwt>
<rscale>  0 0.88599635E+03</rscale>
<asrwt>0</asrwt>
<pdfrwt beam="1">  1        2 0.13635414E+00 0.88599635E+03</pdfrwt>
<pdfrwt beam="2">  1       -2 0.34065036E-01 0.88599635E+03</pdfrwt>
<totfact> 0.24219111E+02</totfact>
</mgrwt>
</event>
<event>
 6    1  0.1588846E-005  0.2218098E+04  0.7818608E-02  0.8510933E-01
         -2   -1    0    0    0  501 -0.00000000000E+00  0.00000000000E+00  0.35494275748E+03  0.35494275748E+03  0.00000000000E+00 0.  1.
          2   -1    0    0  501    0  0.00000000000E+00 -0.00000000000E+00 -0.34653193383E+04  0.34653193383E+04  0.00000000000E+00 0. -1.
         23    2    1    2    0    0  0.41922492900E+03 -0.74321798116E+03 -0.27728551179E+04  0.29026329515E+04  0.91815235759E+02 0.  0.
         13    1    3    3    0    0  0.83057982440E+02 -0.13250829308E+03 -0.63574194103E+03  0.65469450262E+03  0.00000000000E+00 0.  1.
        -13    1    3    3    0    0  0.33616694656E+03 -0.61070968808E+03 -0.21371131768E+04  0.22479384488E+04  0.00000000000E+00 0. -1.
         22    1    1    2    0    0 -0.41922492900E+03  0.74321798116E+03 -0.33752146298E+03  0.91762914437E+03  0.00000000000E+00 0.  1.
<mgrwt>
<rscale>  0 0.22180983E+04</rscale>
<asrwt>0</asrwt>
<pdfrwt beam="1">  1        2 0.53312608E+00 0.22180983E+04</pdfrwt>
<pdfrwt beam="2">  1       -2 0.54606575E-01 0.22180983E+04</pdfrwt>
<totfact> 0.24834900E+00</totfact>
</mgrwt>
</event>
<event>
 6    1  0.1588846E-005  0.4306846E+04  0.7818608E-02  0.7945353E-01
          2   -1    0    0  501    0  0.00000000000E+00  0.00000000000E+00  0.21525014173E+04  0.21525014173E+04  0.00000000000E+00 0. -1.
         -2   -1    0    0    0  501 -0.00000000000E+00 -0.00000000000E+00 -0.21543447180E+04  0.21543447180E+04  0.00000000000E+00 0.  1.
         23    2    1    2    0    0  0.17112748723E+04  0.53635142217E+02  0.13035320161E+04  0.21538614316E+04  0.92654912246E+02 0.  0.
         11    1    3    3    0    0  0.46557514455E+03 -0.20894586978E+02  0.38104346015E+03  0.60198913404E+03  0.00000000000E+00 0. -1.
        -11    1    3    3    0    0  0.12456997277E+04  0.74529729196E+02  0.92248855593E+03  0.15518722976E+04  0.00000000000E+00 0.  1.
         22    1    1    2    0    0 -0.17112748723E+04 -0.53635142217E+02 -0.13053753167E+04  0.21529847037E+04  0.00000000000E+00 0.  1.
<mgrwt>
<rscale>  0 0.43068457E+04</rscale>
<asrwt>0</asrwt>
<pdfrwt beam="1">  1        2 0.33115407E+00 0.43068457E+04</pdfrwt>
<pdfrwt beam="2">  1       -2 0.33143765E+00 0.43068457E+04</pdfrwt>
<totfact> 0.85935486E-02</totfact>
</mgrwt>
</event>
<event>
 6    1  0.1588846E-005  0.2407749E+04  0.7818608E-02  0.8436608E-01
         -2   -1    0    0    0  501 -0.00000000000E+00  0.00000000000E+00  0.47569971667E+03  0.47569971667E+03  0.00000000000E+00 0.  1.
          2   -1    0    0  501    0  0.00000000000E+00 -0.00000000000E+00 -0.30466979026E+04  0.30466979026E+04  0.00000000000E+00 0. -1.
         23    2    1    2    0    0  0.63586360013E+03  0.59697351113E+03 -0.77057503959E+02  0.88034538357E+03  0.91489040326E+02 0.  0.
         13    1    3    3    0    0  0.14803248500E+03  0.19188004418E+03 -0.77321630699E+01  0.24246928530E+03  0.00000000000E+00 0.  1.
        -13    1    3    3    0    0  0.48783111513E+03  0.40509346695E+03 -0.69325340889E+02  0.63787609827E+03  0.00000000000E+00 0. -1.
         22    1    1    2    0    0 -0.63586360013E+03 -0.59697351113E+03 -0.24939406820E+04  0.26420522357E+04  0.00000000000E+00 0. -1.
<mgrwt>
<rscale>  0 0.24077486E+04</rscale>
<asrwt>0</asrwt>
<pdfrwt beam="1">  1        2 0.46872278E+00 0.24077486E+04</pdfrwt>
<pdfrwt beam="2">  1       -2 0.73184568E-01 0.24077486E+04</pdfrwt>
<totfact> 0.24663047E+00</totfact>
</mgrwt>
</event>
<event>
 6    1  0.1588846E-005  0.2051271E+04  0.7818608E-02  0.8583018E-01
          1   -1    0    0  501    0  0.00000000000E+00  0.00000000000E+00  0.12312976087E+04  0.12312976087E+04  0.00000000000E+00 0. -1.
         -1   -1    0    0    0  501 -0.00000000000E+00 -0.00000000000E+00 -0.85432480060E+03  0.85432480060E+03  0.00000000000E+00 0.  1.
         23    2    1    2    0    0 -0.91631311859E+03 -0.37809393016E+03 -0.70692815988E+02  0.99796931098E+03  0.91435879735E+02 0.  0.
         13    1    3    3    0    0 -0.11651080629E+03 -0.44690114100E+02  0.21285334402E+02  0.12659004598E+03  0.00000000000E+00 0. -1.
        -13    1    3    3    0    0 -0.79980231229E+03 -0.33340381606E+03 -0.91978150390E+02  0.87137926500E+03  0.00000000000E+00 0.  1.
         22    1    1    2    0    0  0.91631311859E+03  0.37809393016E+03  0.44766562410E+03  0.10876530983E+04  0.00000000000E+00 0. -1.
<mgrwt>
<rscale>  0 0.20512709E+04</rscale>
<asrwt>0</asrwt>
<pdfrwt beam="1">  1        1 0.18943040E+00 0.20512709E+04</pdfrwt>
<pdfrwt beam="2">  1       -1 0.13143459E+00 0.20512709E+04</pdfrwt>
<totfact> 0.46187440E+00</totfact>
</mgrwt>
</event>
<event>
 6    1  0.1588846E-005  0.1436153E+04  0.7818608E-02  0.8928057E-01
          2   -1    0    0  501    0  0.00000000000E+00  0.00000000000E+00  0.14717167911E+04  0.14717167911E+04  0.00000000000E+00 0.  1.
         -2   -1    0    0    0  501 -0.00000000000E+00 -0.00000000000E+00 -0.35036197936E+03  0.35036197936E+03  0.00000000000E+00 0. -1.
         23    2    1    2    0    0 -0.53682871003E+03  0.45137541922E+03  0.38520110658E+03  0.80529604509E+03  0.90537256053E+02 0.  0.
         13    1    3    3    0    0 -0.46360602374E+03  0.42332118630E+03  0.32866523631E+03  0.70862698903E+03  0.00000000000E+00 0. -1.
        -13    1    3    3    0    0 -0.73222686291E+02  0.28054232919E+02  0.56535870274E+02  0.96669056063E+02  0.00000000000E+00 0.  1.
         22    1    1    2    0    0  0.53682871003E+03 -0.45137541922E+03  0.73615370517E+03  0.10167827254E+04  0.00000000000E+00 0.  1.
<mgrwt>
<rscale>  0 0.14361526E+04</rscale>
<asrwt>0</asrwt>
<pdfrwt beam="1">  1        2 0.22641796E+00 0.14361526E+04</pdfrwt>
<pdfrwt beam="2">  1       -2 0.53901844E-01 0.14361526E+04</pdfrwt>
<totfact> 0.41443285E+01</totfact>
</mgrwt>
</event>
<event>
 6    1  0.1588846E-005  0.5013394E+04  0.7818608E-02  0.7826444E-01
          2   -1    0    0  501    0  0.00000000000E+00  0.00000000000E+00  0.28979833356E+04  0.28979833356E+04  0.00000000000E+00 0. -1.
         -2   -1    0    0    0  501 -0.00000000000E+00 -0.00000000000E+00 -0.21682420148E+04  0.21682420148E+04  0.00000000000E+00 0.  1.
         23    2    1    2    0    0 -0.93420089673E+03 -0.14626152965E+04  0.21916105573E+04  0.27970765044E+04  0.92224268259E+02 0.  0.
         11    1    3    3    0    0 -0.47964541678E+03 -0.81593593924E+03  0.12420102436E+04  0.15615379048E+04  0.00000000000E+00 0. -1.
        -11    1    3    3    0    0 -0.45455547995E+03 -0.64667935723E+03  0.94960031366E+03  0.12355385996E+04  0.00000000000E+00 0.  1.
         22    1    1    2    0    0  0.93420089673E+03  0.14626152965E+04 -0.14618692365E+04  0.22691488460E+04  0.00000000000E+00 0.  1.
<mgrwt>
<rscale>  0 0.50133938E+04</rscale>
<asrwt>0</asrwt>
<pdfrwt beam="1">  1        2 0.44584359E+00 0.50133938E+04</pdfrwt>
<pdfrwt beam="2">  1       -2 0.33357569E+00 0.50133938E+04</pdfrwt>
<totfact> 0.28889200E-02</totfact>
</mgrwt>
</event>
<event>
 6    1  0.1588846E-005  0.5772896E+03  0.7818608E-02  0.9953676E-01
          2   -1    0    0  501    0  0.00000000000E+00  0.00000000000E+00  0.23428743769E+03  0.23428743769E+03  0.00000000000E+00 0.  1.
         -2   -1    0    0    0  501 -0.00000000000E+00 -0.00000000000E+00 -0.35561368513E+03  0.35561368513E+03  0.00000000000E+00 0. -1.
         23    2    1    2    0    0  0.98870935772E+02 -0.29396776776E+02 -0.32944303073E+03  0.35762493397E+03  0.93398343004E+02 0.  0.
         13    1    3    3    0    0  0.24398365770E+01  0.14414356545E+02 -0.13852879361E+03  0.13929807298E+03  0.00000000000E+00 0. -1.
        -13    1    3    3    0    0  0.96431099195E+02 -0.43811133322E+02 -0.19091423712E+03  0.21832686099E+03  0.00000000000E+00 0.  1.
         22    1    1    2    0    0 -0.98870935772E+02  0.29396776776E+02  0.20811678328E+03  0.23227618886E+03  0.00000000000E+00 0.  1.
<mgrwt>
<rscale>  0 0.57728959E+03</rscale>
<asrwt>0</asrwt>
<pdfrwt beam="1">  1        2 0.36044221E-01 0.57728959E+03</pdfrwt>
<pdfrwt beam="2">  1       -2 0.54709797E-01 0.57728959E+03</pdfrwt>
<totfact> 0.45897550E+02</totfact>
</mgrwt>
</event>
<event>
 6    1  0.1588846E-005  0.3391098E+04  0.7818608E-02  0.8140095E-01
         -2   -1    0    0    0  501 -0.00000000000E+00  0.00000000000E+00  0.27700804144E+04  0.27700804144E+04  0.00000000000E+00 0.  1.
          2   -1    0    0  501    0  0.00000000000E+00 -0.00000000000E+00 -0.10378350687E+04  0.10378350687E+04  0.00000000000E+00 0. -1.
         23    2    1    2    0    0 -0.10150643707E+03  0.16095400824E+04  0.14498354193E+04  0.21706378036E+04  0.93396453748E+02 0.  0.
         11    1    3    3    0    0 -0.12019369467E+02  0.92296520108E+03  0.82391835840E+03  0.12372755105E+04  0.00000000000E+00 0.  1.
        -11    1    3    3    0    0 -0.89487067600E+02  0.68657488130E+03  0.62591706091E+03  0.93336229303E+03  0.00000000000E+00 0. -1.
         22    1    1    2    0    0  0.10150643707E+03 -0.16095400824E+04  0.28240992639E+03  0.16372776796E+04  0.00000000000E+00 0. -1.
<mgrwt>
<rscale>  0 0.33910981E+04</rscale>
<asrwt>0</asrwt>
<pdfrwt beam="1">  1        2 0.15966693E+00 0.33910981E+04</pdfrwt>
<pdfrwt beam="2">  1       -2 0.42616622E+00 0.33910981E+04</pdfrwt>
<totfact> 0.98491641E-02</totfact>
</mgrwt>
</event>
<event>
 6    1  0.1588846E-005  0.1344193E+04  0.7818608E-02  0.8995236E-01
          2   -1    0    0  501    0  0.00000000000E+00  0.00000000000E+00  0.24396173704E+04  0.24396173704E+04  0.00000000000E+00 0. -1.
         -2   -1    0    0    0  501 -0.00000000000E+00 -0.00000000000E+00 -0.18515755442E+03  0.18515755442E+03  0.00000000000E+00 0.  1.
         23    2    1    2    0    0 -0.13812497433E+03  0.51835762550E+03  0.19130711054E+04  0.19889137857E+04  0.90354061261E+02 0.  0.
         11    1    3    3    0    0  0.18005760620E+01  0.13405986121E+03  0.52468856673E+03  0.54154720987E+03  0.00000000000E+00 0. -1.
        -11    1    3    3    0    0 -0.13992555040E+03  0.38429776429E+03  0.13883825387E+04  0.14473665759E+04  0.00000000000E+00 0.  1.
         22    1    1    2    0    0  0.13812497433E+03 -0.51835762550E+03  0.34138871056E+03  0.63586113904E+03  0.00000000000E+00 0.  1.
<mgrwt>
<rscale>  0 0.13441928E+04</rscale>
<asrwt>0</asrwt>
<pdfrwt beam="1">  1        2 0.37532573E+00 0.13441928E+04</pdfrwt>
<pdfrwt beam="2">  1       -2 0.28485779E-01 0.13441928E+04</pdfrwt>
<totfact> 0.41779508E+01</totfact>
</mgrwt>
</event>
<event>
 6    1  0.1588846E-005  0.2845857E+04  0.7818608E-02  0.8289171E-01
         -1   -1    0    0    0  501 -0.00000000000E+00  0.00000000000E+00  0.14491411672E+04  0.14491411672E+04  0.00000000000E+00 0.  1.
          1   -1    0    0  501    0  0.00000000000E+00 -0.00000000000E+00 -0.13971898583E+04  0.13971898583E+04  0.00000000000E+00 0. -1.
         23    2    1    2    0    0 -0.58296021025E+03  0.10583616861E+04  0.77478093483E+03  0.14383343162E+04  0.92455626498E+02 0.  0.
         11    1    3    3    0    0 -0.32126286318E+03  0.57651501240E+03  0.47748002950E+03  0.81459595221E+03  0.00000000000E+00 0. -1.
        -11    1    3    3    0    0 -0.26169734707E+03  0.48184667368E+03  0.29730090533E+03  0.62373836399E+03  0.00000000000E+00 0.  1.
         22    1    1    2    0    0  0.58296021025E+03 -0.10583616861E+04 -0.72282962599E+03  0.14079967093E+04  0.00000000000E+00 0. -1.
<mgrwt>
<rscale>  0 0.28458569E+04</rscale>
<asrwt>0</asrwt>
<pdfrwt beam="1">  1        1 0.21495229E+00 0.28458569E+04</pdfrwt>
<pdfrwt beam="2">  1       -1 0.22294479E+00 0.28458569E+04</pdfrwt>
<totfact> 0.69995827E-01</totfact>
</mgrwt>
</event>
<event>
 6    1  0.1588846E-005  0.1267244E+04  0.7818608E-02  0.9055952E-01
         -1   -1    0    0    0  501 -0.00000000000E+00  0.00000000000E+00  0.41359842547E+03  0.41359842547E+03  0.00000000000E+00 0.  1.
          1   -1    0    0  501    0  0.00000000000E+00 -0.00000000000E+00 -0.97069189899E+03  0.97069189899E+03  0.00000000000E+00 0. -1.
         23    2    1    2    0    0 -0.13091565972E+03  0.41633188758E+03  0.21213142727E+03  0.49988199197E+03  0.12004629474E+03 0.  0.
         13    1    3    3    0    0 -0.62737962560E+02  0.32981910150E+03  0.12083351403E+03  0.35681568040E+03  0.00000000000E+00 0.  1.
        -13    1    3    3    0    0 -0.68177697161E+02  0.86512786080E+02  0.91297913241E+02  0.14306631157E+03  0.00000000000E+00 0. -1.
         22    1    1    2    0    0  0.13091565972E+03 -0.41633188758E+03 -0.76922490079E+03  0.88440833249E+03  0.00000000000E+00 0. -1.
<mgrwt>
<rscale>  0 0.12672437E+04</rscale>
<asrwt>0</asrwt>
<pdfrwt beam="1">  1        1 0.14933721E+00 0.12672437E+04</pdfrwt>
<pdfrwt beam="2">  1       -1 0.63630527E-01 0.12672437E+04</pdfrwt>
<totfact> 0.39371503E+01</totfact>
</mgrwt>
</event>
<event>
 6    1  0.1588846E-005  0.2873879E+04  0.7818608E-02  0.8280692E-01
          2   -1    0    0  501    0  0.00000000000E+00  0.00000000000E+00  0.13967178441E+04  0.13967178441E+04  0.00000000000E+00 0. -1.
         -2   -1    0    0    0  501 -0.00000000000E+00 -0.00000000000E+00 -0.14783192893E+04  0.14783192893E+04  0.00000000000E+00 0.  1.
         23    2    1    2    0    0 -0.64440935009E+03  0.10947711545E+04  0.62783201534E+03  0.14200171589E+04  0.92132518425E+02 0.  0.
         11    1    3    3    0    0 -0.26770498700E+03  0.52626713898E+03  0.32284582391E+03  0.67294315336E+03  0.00000000000E+00 0.  1.
        -11    1    3    3    0    0 -0.37670436309E+03  0.56850401548E+03  0.30498619143E+03  0.74707400553E+03  0.00000000000E+00 0. -1.
         22    1    1    2    0    0  0.64440935009E+03 -0.10947711545E+04 -0.70943346060E+03  0.14550199745E+04  0.00000000000E+00 0.  1.
<mgrwt>
<rscale>  0 0.28738789E+04</rscale>
<asrwt>0</asrwt>
<pdfrwt beam="1">  1        2 0.21487967E+00 0.28738789E+04</pdfrwt>
<pdfrwt beam="2">  1       -2 0.22743374E+00 0.28738789E+04</pdfrwt>
<totfact> 0.11153347E+00</totfact>
</mgrwt>
</event>
<event>
 6    1  0.1588846E-005  0.1815410E+04  0.7818608E-02  0.8698147E-01
          2   -1    0    0  501    0  0.00000000000E+00  0.00000000000E+00  0.38383400623E+03  0.38383400623E+03  0.00000000000E+00 0.  1.
         -2   -1    0    0    0  501 -0.00000000000E+00 -0.00000000000E+00 -0.21465744781E+04  0.21465744781E+04  0.00000000000E+00 0. -1.
         23    2    1    2    0    0 -0.79196866099E+03  0.35393635630E+03 -0.12456001289E+04  0.15204978751E+04  0.88931449639E+02 0.  0.
         11    1    3    3    0    0 -0.44511022513E+03  0.15123671580E+03 -0.68615192810E+03  0.83174522851E+03  0.00000000000E+00 0. -1.
        -11    1    3    3    0    0 -0.34685843586E+03  0.20269964050E+03 -0.55944820081E+03  0.68875264658E+03  0.00000000000E+00 0.  1.
         22    1    1    2    0    0  0.79196866099E+03 -0.35393635630E+03 -0.51714034293E+03  0.10099106092E+04  0.00000000000E+00 0. -1.
<mgrwt>
<rscale>  0 0.18154099E+04</rscale>
<asrwt>0</asrwt>
<pdfrwt beam="1">  1        2 0.59051385E-01 0.18154099E+04</pdfrwt>
<pdfrwt beam="2">  1       -2 0.33024223E+00 0.18154099E+04</pdfrwt>
<totfact> 0.16296370E+00</totfact>
</mgrwt>
</event>
<event>
 6    1  0.1588846E-005  0.4256829E+03  0.7818608E-02  0.1035232E+00
          2   -1    0    0  501    0  0.00000000000E+00  0.00000000000E+00  0.74892528006E+03  0.74892528006E+03  0.00000000000E+00 0.  1.
         -2   -1    0    0    0  501 -0.00000000000E+00 -0.00000000000E+00 -0.60488655590E+02  0.60488655590E+02  0.00000000000E+00 0. -1.
         23    2    1    2    0    0  0.10170286619E+03  0.15875251769E+03  0.50279145084E+03  0.54481997246E+03  0.92107135947E+02 0.  0.
         13    1    3    3    0    0  0.85496963123E+02  0.11940674097E+03  0.46591305364E+03  0.48851066933E+03  0.00000000000E+00 0.  1.
        -13    1    3    3    0    0  0.16205903068E+02  0.39345776713E+02  0.36878397193E+02  0.56309303129E+02  0.00000000000E+00 0. -1.
         22    1    1    2    0    0 -0.10170286619E+03 -0.15875251769E+03  0.18564517363E+03  0.26459396319E+03  0.00000000000E+00 0. -1.
<mgrwt>
<rscale>  0 0.42568290E+03</rscale>
<asrwt>0</asrwt>
<pdfrwt beam="1">  1        2 0.11521927E+00 0.42568290E+03</pdfrwt>
<pdfrwt beam="2">  1       -2 0.93059475E-02 0.42568290E+03</pdfrwt>
<totfact> 0.28857403E+03</totfact>
</mgrwt>
</event>
<event>
 6    1  0.1588846E-005  0.4189374E+03  0.7818608E-02  0.1037413E+00
          3   -1    0    0  501    0  0.00000000000E+00  0.00000000000E+00  0.33276304480E+03  0.33276304480E+03  0.00000000000E+00 0. -1.
         -3   -1    0    0    0  501 -0.00000000000E+00 -0.00000000000E+00 -0.13185699936E+03  0.13185699936E+03  0.00000000000E+00 0.  1.
         23    2    1    2    0    0  0.18914568193E+03  0.59211293798E+02  0.12673869679E+03  0.25300042807E+03  0.93083043771E+02 0.  0.
         13    1    3    3    0    0  0.12210197535E+03 -0.90557554585E+01  0.60052634622E+02  0.13637161734E+03  0.00000000000E+00 0.  1.
        -13    1    3    3    0    0  0.67043706574E+02  0.68267049257E+02  0.66686062163E+02  0.11662881073E+03  0.00000000000E+00 0. -1.
         22    1    1    2    0    0 -0.18914568193E+03 -0.59211293798E+02  0.74167348656E+02  0.21161961608E+03  0.00000000000E+00 0. -1.
<mgrwt>
<rscale>  0 0.41893740E+03</rscale>
<asrwt>0</asrwt>
<pdfrwt beam="1">  1        3 0.51194314E-01 0.41893740E+03</pdfrwt>
<pdfrwt beam="2">  1       -3 0.20285692E-01 0.41893740E+03</pdfrwt>
<totfact> 0.21755812E+02</totfact>
</mgrwt>
</event>
<event>
 6    1  0.1588846E-005  0.4376640E+04  0.7818608E-02  0.7932597E-01
         -1   -1    0    0    0  501 -0.00000000000E+00  0.00000000000E+00  0.21456374034E+04  0.21456374034E+04  0.00000000000E+00 0.  1.
          1   -1    0    0  501    0  0.00000000000E+00 -0.00000000000E+00 -0.22318521408E+04  0.22318521408E+04  0.00000000000E+00 0. -1.
         23    2    1    2    0    0 -0.20974733632E+04  0.59082472054E+03  0.14703067575E+03  0.21859440205E+04  0.90911392895E+02 0.  0.
         11    1    3    3    0    0 -0.10544580896E+04  0.34110165995E+03  0.58384998930E+02  0.11097932299E+04  0.00000000000E+00 0.  1.
        -11    1    3    3    0    0 -0.10430152736E+04  0.24972306059E+03  0.88645676825E+02  0.10761507906E+04  0.00000000000E+00 0. -1.
         22    1    1    2    0    0  0.20974733632E+04 -0.59082472054E+03 -0.23324541311E+03  0.21915455237E+04  0.00000000000E+00 0. -1.
<mgrwt>
<rscale>  0 0.43766405E+04</rscale>
<asrwt>0</asrwt>
<pdfrwt beam="1">  1        1 0.34336187E+00 0.43766405E+04</pdfrwt>
<pdfrwt beam="2">  1       -1 0.33009806E+00 0.43766405E+04</pdfrwt>
<totfact> 0.33058325E-02</totfact>
</mgrwt>
</event>
<event>
 6    1  0.1588846E-005  0.1488010E+04  0.7818608E-02  0.8892466E-01
         -2   -1    0    0    0  501 -0.00000000000E+00  0.00000000000E+00  0.38987504271E+03  0.38987504271E+03  0.00000000000E+00 0.  1.
          2   -1    0    0  501    0  0.00000000000E+00 -0.00000000000E+00 -0.14197965001E+04  0.14197965001E+04  0.00000000000E+00 0. -1.
         23    2    1    2    0    0 -0.36849023198E+03  0.16106055750E+03 -0.12741171684E+04  0.13391855180E+04  0.91201636944E+02 0.  0.
         11    1    3    3    0    0 -0.24650204430E+03  0.13843039269E+03 -0.98017173976E+03  0.10201288501E+04  0.00000000000E+00 0.  1.
        -11    1    3    3    0    0 -0.12198818768E+03  0.22630164809E+02 -0.29394542868E+03  0.31905666790E+03  0.00000000000E+00 0. -1.
         22    1    1    2    0    0  0.36849023198E+03 -0.16106055750E+03  0.24419571102E+03  0.47048602480E+03  0.00000000000E+00 0.  1.
<mgrwt>
<rscale>  0 0.14880097E+04</rscale>
<asrwt>0</asrwt>
<pdfrwt beam="1">  1        2 0.21843023E+00 0.14880097E+04</pdfrwt>
<pdfrwt beam="2">  1       -2 0.59980776E-01 0.14880097E+04</pdfrwt>
<totfact> 0.35330392E+01</totfact>
</mgrwt>
</event>
<event>
 6    1  0.1588846E-005  0.3454535E+04  0.7818608E-02  0.8124650E-01
         -1   -1    0    0    0  501 -0.00000000000E+00  0.00000000000E+00  0.10603821033E+04  0.10603821033E+04  0.00000000000E+00 0.  1.
          1   -1    0    0  501    0  0.00000000000E+00 -0.00000000000E+00 -0.28135640828E+04  0.28135640828E+04  0.00000000000E+00 0. -1.
         23    2    1    2    0    0 -0.50931533804E+03  0.67458849337E+01 -0.27266383141E+04  0.27752811525E+04  0.90450863602E+02 0.  0.
         11    1    3    3    0    0 -0.91849309588E+02  0.29052068826E+02 -0.63581962444E+03  0.64307613328E+03  0.00000000000E+00 0.  1.
        -11    1    3    3    0    0 -0.41746602845E+03 -0.22306183892E+02 -0.20908186897E+04  0.21322050192E+04  0.00000000000E+00 0. -1.
         22    1    1    2    0    0  0.50931533804E+03 -0.67458849337E+01  0.97345633462E+03  0.10986650335E+04  0.00000000000E+00 0.  1.
<mgrwt>
<rscale>  0 0.34545350E+04</rscale>
<asrwt>0</asrwt>
<pdfrwt beam="1">  1        1 0.43285601E+00 0.34545350E+04</pdfrwt>
<pdfrwt beam="2">  1       -1 0.16313571E+00 0.34545350E+04</pdfrwt>
<totfact> 0.18461351E-01</totfact>
</mgrwt>
</event>
<event>
 6    1  0.1588846E-005  0.8159206E+03  0.7818608E-02  0.9537254E-01
         -2   -1    0    0    0  501 -0.00000000000E+00  0.00000000000E+00  0.35770653018E+03  0.35770653018E+03  0.00000000000E+00 0.  1.
          2   -1    0    0  501    0  0.00000000000E+00 -0.00000000000E+00 -0.46527414200E+03  0.46527414200E+03  0.00000000000E+00 0. -1.
         23    2    1    2    0    0  0.24377040921E+03  0.31946990009E+03 -0.83535301462E+02  0.42041070135E+03  0.91005394033E+02 0.  0.
         13    1    3    3    0    0  0.14874189658E+03  0.20288349092E+03 -0.70353356635E+01  0.25166517167E+03  0.00000000000E+00 0. -1.
        -13    1    3    3    0    0  0.95028512639E+02  0.11658640917E+03 -0.76499965799E+02  0.16874552967E+03  0.00000000000E+00 0.  1.
         22    1    1    2    0    0 -0.24377040921E+03 -0.31946990009E+03 -0.24032310352E+02  0.40256997083E+03  0.00000000000E+00 0.  1.
<mgrwt>
<rscale>  0 0.81592058E+03</rscale>
<asrwt>0</asrwt>
<pdfrwt beam="1">  1        2 0.71580637E-01 0.81592058E+03</pdfrwt>
<pdfrwt beam="2">  1       -2 0.55031774E-01 0.81592058E+03</pdfrwt>
<totfact> 0.20928005E+02</totfact>
</mgrwt>
</event>
<event>
 6    1  0.1588846E-005  0.2177688E+04  0.7818608E-02  0.8527773E-01
          1   -1    0    0  501    0  0.00000000000E+00  0.00000000000E+00  0.68399180437E+03  0.68399180437E+03  0.00000000000E+00 0. -1.
         -1   -1    0    0    0  501 -0.00000000000E+00 -0.00000000000E+00 -0.17333264935E+04  0.17333264935E+04  0.00000000000E+00 0.  1.
         23    2    1    2    0    0  0.62880583700E+03  0.21145533137E+03  0.42992013243E+03  0.79611350977E+03  0.94102403624E+02 0.  0.
         11    1    3    3    0    0  0.23312149681E+03  0.99624003367E+02  0.21356607833E+03  0.33148309781E+03  0.00000000000E+00 0. -1.
        -11    1    3    3    0    0  0.39568434020E+03  0.11183132800E+03  0.21635405410E+03  0.46463041196E+03  0.00000000000E+00 0.  1.
         22    1    1    2    0    0 -0.62880583700E+03 -0.21145533137E+03 -0.14792548215E+04  0.16212047880E+04  0.00000000000E+00 0.  1.
<mgrwt>
<rscale>  0 0.21776879E+04</rscale>
<asrwt>0</asrwt>
<pdfrwt beam="1">  1        1 0.10522951E+00 0.21776879E+04</pdfrwt>
<pdfrwt beam="2">  1       -1 0.26666561E+00 0.21776879E+04</pdfrwt>
<totfact> 0.13999701E+00</totfact>
</mgrwt>
</event>
<event>
 6    1  0.1588846E-005  0.3152201E+04  0.7818608E-02  0.8201556E-01
         -1   -1    0    0    0  501 -0.00000000000E+00  0.00000000000E+00  0.96575963424E+03  0.96575963424E+03  0.00000000000E+00 0.  1.
          1   -1    0    0  501    0  0.00000000000E+00 -0.00000000000E+00 -0.25721647552E+04  0.25721647552E+04  0.00000000000E+00 0. -1.
         23    2    1    2    0    0  0.73569430817E+03 -0.12037523169E+04 -0.15892674099E+04  0.21270525113E+04  0.91190624653E+02 0.  0.
         11    1    3    3    0    0  0.66509992110E+03 -0.10293100257E+04 -0.13728113906E+04  0.18402304606E+04  0.00000000000E+00 0. -1.
        -11    1    3    3    0    0  0.70594387075E+02 -0.17444229125E+03 -0.21645601931E+03  0.28682205068E+03  0.00000000000E+00 0.  1.
         22    1    1    2    0    0 -0.73569430817E+03  0.12037523169E+04 -0.17137711088E+02  0.14108718782E+04  0.00000000000E+00 0.  1.
<mgrwt>
<rscale>  0 0.31522011E+04</rscale>
<asrwt>0</asrwt>
<pdfrwt beam="1">  1        1 0.39571765E+00 0.31522011E+04</pdfrwt>
<pdfrwt beam="2">  1       -1 0.14857841E+00 0.31522011E+04</pdfrwt>
<totfact> 0.36273435E-01</totfact>
</mgrwt>
</event>
<event>
 6    1  0.1588846E-005  0.1888733E+04  0.7818608E-02  0.8660485E-01
          2   -1    0    0  501    0  0.00000000000E+00  0.00000000000E+00  0.10488721693E+04  0.10488721693E+04  0.00000000000E+00 0. -1.
         -2   -1    0    0    0  501 -0.00000000000E+00 -0.00000000000E+00 -0.85027380075E+03  0.85027380075E+03  0.00000000000E+00 0.  1.
         23    2    1    2    0    0 -0.21514426323E+03 -0.91193820194E+03 -0.61537020536E+00  0.94122924518E+03  0.89407914305E+02 0.  0.
         11    1    3    3    0    0 -0.31751279087E+02 -0.31421395904E+03  0.87038153992E+01  0.31593403138E+03  0.00000000000E+00 0. -1.
        -11    1    3    3    0    0 -0.18339298414E+03 -0.59772424289E+03 -0.93191856046E+01  0.62529521380E+03  0.00000000000E+00 0.  1.
         22    1    1    2    0    0  0.21514426323E+03  0.91193820194E+03  0.19921373880E+03  0.95791672492E+03  0.00000000000E+00 0.  1.
<mgrwt>
<rscale>  0 0.18887335E+04</rscale>
<asrwt>0</asrwt>
<pdfrwt beam="1">  1        2 0.16136495E+00 0.18887335E+04</pdfrwt>
<pdfrwt beam="2">  1       -2 0.13081135E+00 0.18887335E+04</pdfrwt>
<totfact> 0.93965103E+00</totfact>
</mgrwt>
</event>
<event>
 6    1  0.1588846E-005  0.2329374E+04  0.7818608E-02  0.8466429E-01
         -2   -1    0    0    0  501 -0.00000000000E+00  0.00000000000E+00  0.10993735877E+04  0.10993735877E+04  0.00000000000E+00 0.  1.
          2   -1    0    0  501    0  0.00000000000E+00 -0.00000000000E+00 -0.12338805757E+04  0.12338805757E+04  0.00000000000E+00 0. -1.
         23    2    1    2    0    0  0.67620568530E+03  0.39465763558E+03 -0.92871769180E+03  0.12180055722E+04  0.89511142949E+02 0.  0.
         11    1    3    3    0    0  0.22323905860E+03  0.13785751254E+03 -0.24853824802E+03  0.36140231291E+03  0.00000000000E+00 0. -1.
        -11    1    3    3    0    0  0.45296662671E+03  0.25680012304E+03 -0.68017944378E+03  0.85660325930E+03  0.00000000000E+00 0.  1.
         22    1    1    2    0    0 -0.67620568530E+03 -0.39465763558E+03  0.79421070374E+03  0.11152485912E+04  0.00000000000E+00 0.  1.
<mgrwt>
<rscale>  0 0.23293739E+04</rscale>
<asrwt>0</asrwt>
<pdfrwt beam="1">  1        2 0.18982778E+00 0.23293739E+04</pdfrwt>
<pdfrwt beam="2">  1       -2 0.16913440E+00 0.23293739E+04</pdfrwt>
<totfact> 0.35354136E+00</totfact>
</mgrwt>
</event>
<event>
 6    1  0.1588846E-005  0.8044580E+03  0.7818608E-02  0.9553587E-01
         -1   -1    0    0    0  501 -0.00000000000E+00  0.00000000000E+00  0.48424715154E+03  0.48424715154E+03  0.00000000000E+00 0.  1.
          1   -1    0    0  501    0  0.00000000000E+00 -0.00000000000E+00 -0.33410243288E+03  0.33410243288E+03  0.00000000000E+00 0. -1.
         23    2    1    2    0    0 -0.18460589888E+03  0.33780862046E+03  0.17638144324E+03  0.43249680463E+03  0.88028805175E+02 0.  0.
         13    1    3    3    0    0 -0.13939041404E+03  0.25394345562E+03  0.88559697893E+02  0.30291877834E+03  0.00000000000E+00 0. -1.
        -13    1    3    3    0    0 -0.45215484836E+02  0.83865164840E+02  0.87821745347E+02  0.12957802629E+03  0.00000000000E+00 0.  1.
         22    1    1    2    0    0  0.18460589888E+03 -0.33780862046E+03 -0.26236724584E+02  0.38585277979E+03  0.00000000000E+00 0. -1.
<mgrwt>
<rscale>  0 0.80445796E+03</rscale>
<asrwt>0</asrwt>
<pdfrwt beam="1">  1        1 0.51400374E-01 0.80445796E+03</pdfrwt>
<pdfrwt beam="2">  1       -1 0.74499562E-01 0.80445796E+03</pdfrwt>
<totfact> 0.13975186E+02</totfact>
</mgrwt>
</event>
<event>
 6    1  0.1588846E-005  0.2669820E+04  0.7818608E-02  0.8344864E-01
          2   -1    0    0  501    0  0.00000000000E+00  0.00000000000E+00  0.19723647831E+04  0.19723647831E+04  0.00000000000E+00 0. -1.
         -2   -1    0    0    0  501 -0.00000000000E+00 -0.00000000000E+00 -0.90347605584E+03  0.90347605584E+03  0.00000000000E+00 0.  1.
         23    2    1    2    0    0  0.53923787861E+03 -0.12318014825E+03 -0.77153957982E+03  0.95408976449E+03  0.95200403483E+02 0.  0.
         13    1    3    3    0    0  0.33785507874E+03 -0.56870988278E+02 -0.40334326718E+03  0.52921276885E+03  0.00000000000E+00 0.  1.
        -13    1    3    3    0    0  0.20138279988E+03 -0.66309159969E+02 -0.36819631264E+03  0.42487699564E+03  0.00000000000E+00 0. -1.
         22    1    1    2    0    0 -0.53923787861E+03  0.12318014825E+03  0.18404283071E+04  0.19217510744E+04  0.00000000000E+00 0. -1.
<mgrwt>
<rscale>  0 0.26698197E+04</rscale>
<asrwt>0</asrwt>
<pdfrwt beam="1">  1        2 0.30344074E+00 0.26698197E+04</pdfrwt>
<pdfrwt beam="2">  1       -2 0.13899632E+00 0.26698197E+04</pdfrwt>
<totfact> 0.22278717E+00</totfact>
</mgrwt>
</event>
<event>
 6    1  0.1588846E-005  0.2168218E+04  0.7818608E-02  0.8531774E-01
         -2   -1    0    0    0  501 -0.00000000000E+00  0.00000000000E+00  0.57057061246E+03  0.57057061246E+03  0.00000000000E+00 0.  1.
          2   -1    0    0  501    0  0.00000000000E+00 -0.00000000000E+00 -0.20598551857E+04  0.20598551857E+04  0.00000000000E+00 0. -1.
         23    2    1    2    0    0 -0.31844729131E+03 -0.16467075582E+03 -0.19848115279E+04  0.20188114606E+04  0.87165230041E+02 0.  0.
         13    1    3    3    0    0 -0.10499542167E+03 -0.15318268983E+02 -0.68249276079E+03  0.69069172318E+03  0.00000000000E+00 0.  1.
        -13    1    3    3    0    0 -0.21345186964E+03 -0.14935248684E+03 -0.13023187671E+04  0.13281197375E+04  0.00000000000E+00 0. -1.
         22    1    1    2    0    0  0.31844729131E+03  0.16467075582E+03  0.49552695459E+03  0.61161433754E+03  0.00000000000E+00 0.  1.
<mgrwt>
<rscale>  0 0.21682185E+04</rscale>
<asrwt>0</asrwt>
<pdfrwt beam="1">  1        2 0.31690080E+00 0.21682185E+04</pdfrwt>
<pdfrwt beam="2">  1       -2 0.87780094E-01 0.21682185E+04</pdfrwt>
<totfact> 0.63463806E+00</totfact>
</mgrwt>
</event>
<event>
 6    1  0.1588846E-005  0.4987023E+04  0.7818608E-02  0.7830512E-01
          1   -1    0    0  501    0  0.00000000000E+00  0.00000000000E+00  0.41178511626E+04  0.41178511626E+04  0.00000000000E+00 0. -1.
         -1   -1    0    0    0  501 -0.00000000000E+00 -0.00000000000E+00 -0.15099137096E+04  0.15099137096E+04  0.00000000000E+00 0.  1.
         23    2    1    2    0    0 -0.25941603219E+03  0.19881247726E+04 -0.36698590951E+03  0.20402719032E+04  0.89966616762E+02 0.  0.
         11    1    3    3    0    0 -0.16957126808E+03  0.12835739470E+04 -0.28057202705E+03  0.13247781530E+04  0.00000000000E+00 0.  1.
        -11    1    3    3    0    0 -0.89844764110E+02  0.70455082559E+03 -0.86413882459E+02  0.71549375019E+03  0.00000000000E+00 0. -1.
         22    1    1    2    0    0  0.25941603219E+03 -0.19881247726E+04  0.29749233626E+04  0.35874929690E+04  0.00000000000E+00 0. -1.
<mgrwt>
<rscale>  0 0.49870231E+04</rscale>
<asrwt>0</asrwt>
<pdfrwt beam="1">  1        1 0.63351556E+00 0.49870231E+04</pdfrwt>
<pdfrwt beam="2">  1       -1 0.23229442E+00 0.49870231E+04</pdfrwt>
<totfact> 0.49368434E-03</totfact>
</mgrwt>
</event>
<event>
 6    1  0.1588846E-005  0.2626267E+04  0.7818608E-02  0.8359333E-01
         -2   -1    0    0    0  501 -0.00000000000E+00  0.00000000000E+00  0.99144491319E+03  0.99144491319E+03  0.00000000000E+00 0.  1.
          2   -1    0    0  501    0  0.00000000000E+00 -0.00000000000E+00 -0.17391989137E+04  0.17391989137E+04  0.00000000000E+00 0. -1.
         23    2    1    2    0    0 -0.82095235752E+03 -0.86719669620E+03 -0.93826156794E+03  0.15213936392E+04  0.91164424467E+02 0.  0.
         11    1    3    3    0    0 -0.67019180055E+02 -0.56042441198E+02 -0.97923887197E+02  0.13123038289E+03  0.00000000000E+00 0. -1.
        -11    1    3    3    0    0 -0.75393317747E+03 -0.81115425500E+03 -0.84033768074E+03  0.13901632563E+04  0.00000000000E+00 0.  1.
         22    1    1    2    0    0  0.82095235752E+03  0.86719669620E+03  0.19050756743E+03  0.12092501877E+04  0.00000000000E+00 0.  1.
<mgrwt>
<rscale>  0 0.26262672E+04</rscale>
<asrwt>0</asrwt>
<pdfrwt beam="1">  1        2 0.26756906E+00 0.26262672E+04</pdfrwt>
<pdfrwt beam="2">  1       -2 0.15252999E+00 0.26262672E+04</pdfrwt>
<totfact> 0.23594990E+00</totfact>
</mgrwt>
</event>
<event>
 6    1  0.1588846E-005  0.2705950E+04  0.7818608E-02  0.8333077E-01
         -2   -1    0    0    0  501 -0.00000000000E+00  0.00000000000E+00  0.68520962278E+03  0.68520962278E+03  0.00000000000E+00 0.  1.
          2   -1    0    0  501    0  0.00000000000E+00 -0.00000000000E+00 -0.26715051573E+04  0.26715051573E+04  0.00000000000E+00 0. -1.
         23    2    1    2    0    0 -0.10895744468E+04 -0.22533791259E+03 -0.42668401850E+02  0.11171531978E+04  0.90890180449E+02 0.  0.
         13    1    3    3    0    0 -0.58755288612E+03 -0.13407381175E+03  0.20523860275E+02  0.60300531492E+03  0.00000000000E+00 0.  1.
        -13    1    3    3    0    0 -0.50202156068E+03 -0.91264100843E+02 -0.63192262125E+02  0.51414788289E+03  0.00000000000E+00 0. -1.
         22    1    1    2    0    0  0.10895744468E+04  0.22533791259E+03 -0.19436271327E+04  0.22395615823E+04  0.00000000000E+00 0. -1.
<mgrwt>
<rscale>  0 0.27059498E+04</rscale>
<asrwt>0</asrwt>
<pdfrwt beam="1">  1        2 0.41100080E+00 0.27059498E+04</pdfrwt>
<pdfrwt beam="2">  1       -2 0.10541686E+00 0.27059498E+04</pdfrwt>
<totfact> 0.17624019E+00</totfact>
</mgrwt>
</event>
<event>
 6    1  0.1588846E-005  0.6991200E+03  0.7818608E-02  0.9718738E-01
         -2   -1    0    0    0  501 -0.00000000000E+00  0.00000000000E+00  0.12703460764E+03  0.12703460764E+03  0.00000000000E+00 0.  1.
          2   -1    0    0  501    0  0.00000000000E+00 -0.00000000000E+00 -0.96188123216E+03  0.96188123216E+03  0.00000000000E+00 0. -1.
         23    2    1    2    0    0  0.98231707779E+02  0.13022690866E+02 -0.93690436168E+03  0.94666661975E+03  0.92568067480E+02 0.  0.
         13    1    3    3    0    0  0.97008255100E+02 -0.36110265678E+01 -0.49396802197E+03  0.50341637617E+03  0.00000000000E+00 0.  1.
        -13    1    3    3    0    0  0.12234526790E+01  0.16633717434E+02 -0.44293633971E+03  0.44325024358E+03  0.00000000000E+00 0. -1.
         22    1    1    2    0    0 -0.98231707779E+02 -0.13022690866E+02  0.10205773716E+03  0.14224922005E+03  0.00000000000E+00 0.  1.
<mgrwt>
<rscale>  0 0.69912003E+03</rscale>
<asrwt>0</asrwt>
<pdfrwt beam="1">  1        2 0.14798172E+00 0.69912003E+03</pdfrwt>
<pdfrwt beam="2">  1       -2 0.19543787E-01 0.69912003E+03</pdfrwt>
<totfact> 0.59650736E+02</totfact>
</mgrwt>
</event>
<event>
 6    1  0.1588846E-005  0.2570582E+04  0.7818608E-02  0.8378263E-01
          2   -1    0    0  501    0  0.00000000000E+00  0.00000000000E+00  0.10676510588E+04  0.10676510588E+04  0.00000000000E+00 0. -1.
         -2   -1    0    0    0  501 -0.00000000000E+00 -0.00000000000E+00 -0.15472965994E+04  0.15472965994E+04  0.00000000000E+00 0.  1.
         23    2    1    2    0    0  0.67163857351E+03  0.10299832510E+04  0.13454599600E+03  0.12404677150E+04  0.93239777944E+02 0.  0.
         11    1    3    3    0    0  0.62187157295E+03  0.91753455799E+03  0.14087284646E+03  0.11173357048E+04  0.00000000000E+00 0.  1.
        -11    1    3    3    0    0  0.49767000559E+02  0.11244869297E+03 -0.63268504565E+01  0.12313201018E+03  0.00000000000E+00 0. -1.
         22    1    1    2    0    0 -0.67163857351E+03 -0.10299832510E+04 -0.61419153656E+03  0.13744799432E+04  0.00000000000E+00 0.  1.
<mgrwt>
<rscale>  0 0.25705819E+04</rscale>
<asrwt>0</asrwt>
<pdfrwt beam="1">  1        2 0.16425401E+00 0.25705819E+04</pdfrwt>
<pdfrwt beam="2">  1       -2 0.23804563E+00 0.25705819E+04</pdfrwt>
<totfact> 0.15410797E+00</totfact>
</mgrwt>
</event>
<event>
 6    1  0.1588846E-005  0.9818684E+03  0.7818608E-02  0.9328658E-01
          3   -1    0    0  501    0  0.00000000000E+00  0.00000000000E+00  0.43785199064E+03  0.43785199064E+03  0.00000000000E+00 0. -1.
         -3   -1    0    0    0  501 -0.00000000000E+00 -0.00000000000E+00 -0.55045174364E+03  0.55045174364E+03  0.00000000000E+00 0.  1.
         23    2    1    2    0    0  0.19164476128E+03  0.19290953111E+03 -0.46326745231E+03  0.54455872072E+03  0.89362554894E+02 0.  0.
         13    1    3    3    0    0  0.15057772045E+03  0.13132979570E+03 -0.40024881364E+03  0.44734805013E+03  0.00000000000E+00 0. -1.
        -13    1    3    3    0    0  0.41067040824E+02  0.61579735414E+02 -0.63018638672E+02  0.97210670586E+02  0.00000000000E+00 0.  1.
         22    1    1    2    0    0 -0.19164476128E+03 -0.19290953111E+03  0.35066769931E+03  0.44374501356E+03  0.00000000000E+00 0. -1.
<mgrwt>
<rscale>  0 0.98186841E+03</rscale>
<asrwt>0</asrwt>
<pdfrwt beam="1">  1        3 0.67361845E-01 0.98186841E+03</pdfrwt>
<pdfrwt beam="2">  1       -3 0.84684883E-01 0.98186841E+03</pdfrwt>
<totfact> 0.71097604E+00</totfact>
</mgrwt>
</event>
<event>
 6    1  0.1588846E-005  0.1836598E+04  0.7818608E-02  0.8687076E-01
          3   -1    0    0  501    0  0.00000000000E+00  0.00000000000E+00  0.13694219656E+04  0.13694219656E+04  0.00000000000E+00 0. -1.
         -3   -1    0    0    0  501 -0.00000000000E+00 -0.00000000000E+00 -0.61578762519E+03  0.61578762519E+03  0.00000000000E+00 0.  1.
         23    2    1    2    0    0 -0.83266121016E+03  0.27794716816E+03  0.94491510201E+02  0.88746253895E+03  0.89898794993E+02 0.  0.
         11    1    3    3    0    0 -0.43451563263E+03  0.19225347853E+03  0.52639809705E+02  0.47805458326E+03  0.00000000000E+00 0.  1.
        -11    1    3    3    0    0 -0.39814557753E+03  0.85693689636E+02  0.41851700496E+02  0.40940795570E+03  0.00000000000E+00 0. -1.
         22    1    1    2    0    0  0.83266121016E+03 -0.27794716816E+03  0.65914283023E+03  0.10977470519E+04  0.00000000000E+00 0.  1.
<mgrwt>
<rscale>  0 0.18365981E+04</rscale>
<asrwt>0</asrwt>
<pdfrwt beam="1">  1        3 0.21068030E+00 0.18365981E+04</pdfrwt>
<pdfrwt beam="2">  1       -3 0.94736558E-01 0.18365981E+04</pdfrwt>
<totfact> 0.30836339E-01</totfact>
</mgrwt>
</event>
<event>
 6    1  0.1922673E-005  0.4281898E+04  0.7818608E-02  0.7949974E-01
          1   -1    0    0  501    0  0.00000000000E+00  0.00000000000E+00  0.30013653988E+04  0.30013653988E+04  0.00000000000E+00 0. -1.
         -1   -1    0    0    0  501 -0.00000000000E+00 -0.00000000000E+00 -0.15271925363E+04  0.15271925363E+04  0.00000000000E+00 0.  1.
         23    2    1    2    0    0 -0.17154169319E+04  0.80008472492E+03  0.17941475791E+04  0.26088770666E+04  0.66956670961E+02 0.  0.
         13    1    3    3    0    0 -0.45786545266E+03  0.23094821818E+03  0.45159784718E+03  0.68331432576E+03  0.00000000000E+00 0. -1.
        -13    1    3    3    0    0 -0.12575514793E+04  0.56913650674E+03  0.13425497319E+04  0.19255627408E+04  0.00000000000E+00 0.  1.
         22    1    1    2    0    0  0.17154169319E+04 -0.80008472492E+03 -0.31997471662E+03  0.19196808685E+04  0.00000000000E+00 0.  1.
<mgrwt>
<rscale>  0 0.42818981E+04</rscale>
<asrwt>0</asrwt>
<pdfrwt beam="1">  1        1 0.46174852E+00 0.42818981E+04</pdfrwt>
<pdfrwt beam="2">  1       -1 0.23495270E+00 0.42818981E+04</pdfrwt>
<totfact> 0.39910609E-02</totfact>
</mgrwt>
</event>
<event>
 6    1  0.1588846E-005  0.2450692E+04  0.7818608E-02  0.8420766E-01
          2   -1    0    0  501    0  0.00000000000E+00  0.00000000000E+00  0.73722169027E+03  0.73722169027E+03  0.00000000000E+00 0. -1.
         -2   -1    0    0    0  501 -0.00000000000E+00 -0.00000000000E+00 -0.20366633007E+04  0.20366633007E+04  0.00000000000E+00 0.  1.
         23    2    1    2    0    0  0.44906959895E+03 -0.31682790144E+02  0.63724625745E+03  0.78556228037E+03  0.91422096912E+02 0.  0.
         13    1    3    3    0    0  0.38714055980E+03 -0.56721880870E+02  0.52212506834E+03  0.65246438355E+03  0.00000000000E+00 0.  1.
        -13    1    3    3    0    0  0.61929039157E+02  0.25039090726E+02  0.11512118911E+03  0.13309789682E+03  0.00000000000E+00 0. -1.
         22    1    1    2    0    0 -0.44906959895E+03  0.31682790144E+02 -0.19366878678E+04  0.19883227106E+04  0.00000000000E+00 0.  1.
<mgrwt>
<rscale>  0 0.24506916E+04</rscale>
<asrwt>0</asrwt>
<pdfrwt beam="1">  1        2 0.11341872E+00 0.24506916E+04</pdfrwt>
<pdfrwt beam="2">  1       -2 0.31333281E+00 0.24506916E+04</pdfrwt>
<totfact> 0.90415034E-01</totfact>
</mgrwt>
</event>
<event>
 6    1  0.1588846E-005  0.2852515E+04  0.7818608E-02  0.8287147E-01
         -2   -1    0    0    0  501 -0.00000000000E+00  0.00000000000E+00  0.81946271665E+03  0.81946271665E+03  0.00000000000E+00 0.  1.
          2   -1    0    0  501    0  0.00000000000E+00 -0.00000000000E+00 -0.24823713665E+04  0.24823713665E+04  0.00000000000E+00 0. -1.
         23    2    1    2    0    0 -0.13128992199E+04  0.48837731005E+03 -0.11336294174E+04  0.18043851643E+04  0.92051108195E+02 0.  0.
         11    1    3    3    0    0 -0.94600668805E+03  0.38824811236E+03 -0.79685948379E+03  0.12963989693E+04  0.00000000000E+00 0.  1.
        -11    1    3    3    0    0 -0.36689253184E+03  0.10012919770E+03 -0.33676993362E+03  0.50798619503E+03  0.00000000000E+00 0. -1.
         22    1    1    2    0    0  0.13128992199E+04 -0.48837731005E+03 -0.52927923240E+03  0.14974489188E+04  0.00000000000E+00 0.  1.
<mgrwt>
<rscale>  0 0.28525152E+04</rscale>
<asrwt>0</asrwt>
<pdfrwt beam="1">  1        2 0.38190328E+00 0.28525152E+04</pdfrwt>
<pdfrwt beam="2">  1       -2 0.12607119E+00 0.28525152E+04</pdfrwt>
<totfact> 0.14488561E+00</totfact>
</mgrwt>
</event>
<event>
 6    1  0.1588846E-005  0.1376218E+04  0.7818608E-02  0.8971215E-01
          1   -1    0    0  501    0  0.00000000000E+00  0.00000000000E+00  0.12181761748E+04  0.12181761748E+04  0.00000000000E+00 0. -1.
         -1   -1    0    0    0  501 -0.00000000000E+00 -0.00000000000E+00 -0.38869084531E+03  0.38869084531E+03  0.00000000000E+00 0.  1.
         23    2    1    2    0    0  0.42529319218E+03  0.47882208692E+03  0.70034326622E+03  0.95355043317E+03  0.92913119764E+02 0.  0.
         11    1    3    3    0    0  0.26442965705E+03  0.22798400251E+03  0.37702162325E+03  0.51385314374E+03  0.00000000000E+00 0. -1.
        -11    1    3    3    0    0  0.16086353513E+03  0.25083808441E+03  0.32332164297E+03  0.43969728944E+03  0.00000000000E+00 0.  1.
         22    1    1    2    0    0 -0.42529319218E+03 -0.47882208692E+03  0.12914206325E+03  0.65331658692E+03  0.00000000000E+00 0.  1.
<mgrwt>
<rscale>  0 0.13762179E+04</rscale>
<asrwt>0</asrwt>
<pdfrwt beam="1">  1        1 0.18741172E+00 0.13762179E+04</pdfrwt>
<pdfrwt beam="2">  1       -1 0.59798592E-01 0.13762179E+04</pdfrwt>
<totfact> 0.28703938E+01</totfact>
</mgrwt>
</event>
<event>
 6    1  0.1588846E-005  0.2171258E+04  0.7818608E-02  0.8530487E-01
         -1   -1    0    0    0  501 -0.00000000000E+00  0.00000000000E+00  0.12085223904E+04  0.12085223904E+04  0.00000000000E+00 0. -1.
          1   -1    0    0  501    0  0.00000000000E+00 -0.00000000000E+00 -0.97523269766E+03  0.97523269766E+03  0.00000000000E+00 0.  1.
         23    2    1    2    0    0  0.39770659587E+03 -0.82559869917E+03  0.69867126148E+03  0.11559595086E+04  0.91198165723E+02 0.  0.
         13    1    3    3    0    0  0.36163449168E+03 -0.74308720028E+03  0.59319146926E+03  0.10172680139E+04  0.00000000000E+00 0. -1.
        -13    1    3    3    0    0  0.36072104193E+02 -0.82511498889E+02  0.10547979222E+03  0.13869149475E+03  0.00000000000E+00 0.  1.
         22    1    1    2    0    0 -0.39770659587E+03  0.82559869917E+03 -0.46538156878E+03  0.10277955794E+04  0.00000000000E+00 0.  1.
<mgrwt>
<rscale>  0 0.21712582E+04</rscale>
<asrwt>0</asrwt>
<pdfrwt beam="1">  1        1 0.15003580E+00 0.21712582E+04</pdfrwt>
<pdfrwt beam="2">  1       -1 0.18592652E+00 0.21712582E+04</pdfrwt>
<totfact> 0.27307989E+00</totfact>
</mgrwt>
</event>
<event>
 6    1  0.1588846E-005  0.6072484E+03  0.7818608E-02  0.9890481E-01
         -1   -1    0    0    0  501 -0.00000000000E+00  0.00000000000E+00  0.11397257080E+03  0.11397257080E+03  0.00000000000E+00 0.  1.
          1   -1    0    0  501    0  0.00000000000E+00 -0.00000000000E+00 -0.80885815684E+03  0.80885815684E+03  0.00000000000E+00 0. -1.
         23    2    1    2    0    0  0.22657615674E+03 -0.12751017536E+03 -0.13723670279E+03  0.30755202932E+03  0.90325735671E+02 0.  0.
         11    1    3    3    0    0  0.12552535069E+03 -0.78307124957E+02 -0.27520948644E+02  0.15048595316E+03  0.00000000000E+00 0.  1.
        -11    1    3    3    0    0  0.10105080604E+03 -0.49203050400E+02 -0.10971575414E+03  0.15706607615E+03  0.00000000000E+00 0. -1.
         22    1    1    2    0    0 -0.22657615674E+03  0.12751017536E+03 -0.55764888325E+03  0.61527869833E+03  0.00000000000E+00 0. -1.
<mgrwt>
<rscale>  0 0.60724836E+03</rscale>
<asrwt>0</asrwt>
<pdfrwt beam="1">  1        1 0.12443972E+00 0.60724836E+03</pdfrwt>
<pdfrwt beam="2">  1       -1 0.17534242E-01 0.60724836E+03</pdfrwt>
<totfact> 0.55924011E+02</totfact>
</mgrwt>
</event>
<event>
 6    1  0.1588846E-005  0.9518738E+03  0.7818608E-02  0.9362963E-01
         -2   -1    0    0    0  501 -0.00000000000E+00  0.00000000000E+00  0.39270829968E+03  0.39270829968E+03  0.00000000000E+00 0. -1.
          2   -1    0    0  501    0  0.00000000000E+00 -0.00000000000E+00 -0.57680458154E+03  0.57680458154E+03  0.00000000000E+00 0.  1.
         23    2    1    2    0    0  0.27215174863E+03  0.33328124107E+03 -0.28910874015E+03  0.52660140436E+03  0.92640247836E+02 0.  0.
         13    1    3    3    0    0  0.22579331420E+03  0.32043304615E+03 -0.25523074588E+03  0.46776349948E+03  0.00000000000E+00 0. -1.
        -13    1    3    3    0    0  0.46358434434E+02  0.12848194914E+02 -0.33877994262E+02  0.58837904883E+02  0.00000000000E+00 0.  1.
         22    1    1    2    0    0 -0.27215174863E+03 -0.33328124107E+03  0.10501245828E+03  0.44291147685E+03  0.00000000000E+00 0. -1.
<mgrwt>
<rscale>  0 0.95187383E+03</rscale>
<asrwt>0</asrwt>
<pdfrwt beam="1">  1        2 0.88739166E-01 0.95187383E+03</pdfrwt>
<pdfrwt beam="2">  1       -2 0.60416662E-01 0.95187383E+03</pdfrwt>
<totfact> 0.13294082E+02</totfact>
</mgrwt>
</event>
<event>
 6    1  0.1588846E-005  0.2516176E+04  0.7818608E-02  0.8397245E-01
          2   -1    0    0  501    0  0.00000000000E+00  0.00000000000E+00  0.26619759459E+04  0.26619759459E+04  0.00000000000E+00 0. -1.
         -2   -1    0    0    0  501 -0.00000000000E+00 -0.00000000000E+00 -0.59459059657E+03  0.59459059657E+03  0.00000000000E+00 0.  1.
         23    2    1    2    0    0 -0.36184153435E+03  0.84579710251E+03  0.21425505810E+04  0.23335541663E+04  0.93005485255E+02 0.  0.
         13    1    3    3    0    0 -0.16390394282E+03  0.44982945726E+03  0.10161398894E+04  0.11232770441E+04  0.00000000000E+00 0. -1.
        -13    1    3    3    0    0 -0.19793759153E+03  0.39596764525E+03  0.11264106916E+04  0.12102771222E+04  0.00000000000E+00 0.  1.
         22    1    1    2    0    0  0.36184153435E+03 -0.84579710251E+03 -0.75165231632E+02  0.92301237621E+03  0.00000000000E+00 0.  1.
<mgrwt>
<rscale>  0 0.25161764E+04</rscale>
<asrwt>0</asrwt>
<pdfrwt beam="1">  1        2 0.40953475E+00 0.25161764E+04</pdfrwt>
<pdfrwt beam="2">  1       -2 0.91475478E-01 0.25161764E+04</pdfrwt>
<totfact> 0.25355475E+00</totfact>
</mgrwt>
</event>
<event>
 6    1  0.1588846E-005  0.9131707E+03  0.7818608E-02  0.9409266E-01
         -1   -1    0    0    0  501 -0.00000000000E+00  0.00000000000E+00  0.14697866306E+03  0.14697866306E+03  0.00000000000E+00 0.  1.
          1   -1    0    0  501    0  0.00000000000E+00 -0.00000000000E+00 -0.14183702237E+04  0.14183702237E+04  0.00000000000E+00 0. -1.
         23    2    1    2    0    0  0.36301205482E+03 -0.26958246343E+03 -0.66765760074E+03  0.81106303188E+03  0.87201567174E+02 0.  0.
         11    1    3    3    0    0  0.17394531636E+03 -0.12864020567E+03 -0.39668731595E+03  0.45184743247E+03  0.00000000000E+00 0.  1.
        -11    1    3    3    0    0  0.18906673847E+03 -0.14094225776E+03 -0.27097028479E+03  0.35921559941E+03  0.00000000000E+00 0. -1.
         22    1    1    2    0    0 -0.36301205482E+03  0.26958246343E+03 -0.60373395994E+03  0.75428585491E+03  0.00000000000E+00 0. -1.
<mgrwt>
<rscale>  0 0.91317065E+03</rscale>
<asrwt>0</asrwt>
<pdfrwt beam="1">  1        1 0.21821081E+00 0.91317065E+03</pdfrwt>
<pdfrwt beam="2">  1       -1 0.22612102E-01 0.91317065E+03</pdfrwt>
<totfact> 0.12490690E+02</totfact>
</mgrwt>
</event>
<event>
 6    1  0.1588846E-005  0.1722855E+04  0.7818608E-02  0.8748435E-01
         -2   -1    0    0    0  501 -0.00000000000E+00  0.00000000000E+00  0.31197743344E+03  0.31197743344E+03  0.00000000000E+00 0.  1.
          2   -1    0    0  501    0  0.00000000000E+00 -0.00000000000E+00 -0.23785622194E+04  0.23785622194E+04  0.00000000000E+00 0. -1.
         23    2    1    2    0    0  0.46588771454E+03 -0.47689563361E+03 -0.19010746598E+03  0.69914618586E+03  0.90463985411E+02 0.  0.
         11    1    3    3    0    0  0.27453131740E+03 -0.30462766844E+03 -0.74002734680E+02  0.41670357012E+03  0.00000000000E+00 0.  1.
        -11    1    3    3    0    0  0.19135639715E+03 -0.17226796516E+03 -0.11610473130E+03  0.28244261573E+03  0.00000000000E+00 0. -1.
         22    1    1    2    0    0 -0.46588771454E+03  0.47689563361E+03 -0.18764773200E+04  0.19913934670E+04  0.00000000000E+00 0. -1.
<mgrwt>
<rscale>  0 0.17228555E+04</rscale>
<asrwt>0</asrwt>
<pdfrwt beam="1">  1        2 0.36593263E+00 0.17228555E+04</pdfrwt>
<pdfrwt beam="2">  1       -2 0.47996530E-01 0.17228555E+04</pdfrwt>
<totfact> 0.15991742E+01</totfact>
</mgrwt>
</event>
<event>
 6    1  0.1588846E-005  0.2022389E+04  0.7818608E-02  0.8596224E-01
         -2   -1    0    0    0  501 -0.00000000000E+00  0.00000000000E+00  0.10087871262E+04  0.10087871262E+04  0.00000000000E+00 0.  1.
          2   -1    0    0  501    0  0.00000000000E+00 -0.00000000000E+00 -0.10136080378E+04  0.10136080378E+04  0.00000000000E+00 0. -1.
         23    2    1    2    0    0 -0.52466096907E+03 -0.80926802480E+03  0.29443329155E+03  0.10125749095E+04  0.91831997244E+02 0.  0.
         13    1    3    3    0    0 -0.11236484404E+03 -0.20556557026E+03  0.10888118086E+03  0.25833732482E+03  0.00000000000E+00 0. -1.
        -13    1    3    3    0    0 -0.41229612503E+03 -0.60370245454E+03  0.18555211069E+03  0.75423758466E+03  0.00000000000E+00 0.  1.
         22    1    1    2    0    0  0.52466096907E+03  0.80926802480E+03 -0.29925420310E+03  0.10098202546E+04  0.00000000000E+00 0. -1.
<mgrwt>
<rscale>  0 0.20223894E+04</rscale>
<asrwt>0</asrwt>
<pdfrwt beam="1">  1        2 0.15593970E+00 0.20223894E+04</pdfrwt>
<pdfrwt beam="2">  1       -2 0.15519802E+00 0.20223894E+04</pdfrwt>
<totfact> 0.62627747E+00</totfact>
</mgrwt>
</event>
<event>
 6    1  0.1588846E-005  0.1918637E+04  0.7818608E-02  0.8645635E-01
          2   -1    0    0  501    0  0.00000000000E+00  0.00000000000E+00  0.73159920261E+03  0.73159920261E+03  0.00000000000E+00 0. -1.
         -2   -1    0    0    0  501 -0.00000000000E+00 -0.00000000000E+00 -0.12579187226E+04  0.12579187226E+04  0.00000000000E+00 0.  1.
         23    2    1    2    0    0 -0.60858584014E+03  0.57105901497E+03 -0.74981865737E+03  0.11255520764E+04  0.90301353000E+02 0.  0.
         13    1    3    3    0    0 -0.27653223606E+03  0.31645945904E+03 -0.35203848443E+03  0.54822236485E+03  0.00000000000E+00 0.  1.
        -13    1    3    3    0    0 -0.33205360408E+03  0.25459955593E+03 -0.39778017294E+03  0.57732971156E+03  0.00000000000E+00 0. -1.
         22    1    1    2    0    0  0.60858584014E+03 -0.57105901497E+03  0.22349913743E+03  0.86396584876E+03  0.00000000000E+00 0. -1.
<mgrwt>
<rscale>  0 0.19186374E+04</rscale>
<asrwt>0</asrwt>
<pdfrwt beam="1">  1        2 0.11255372E+00 0.19186374E+04</pdfrwt>
<pdfrwt beam="2">  1       -2 0.19352596E+00 0.19186374E+04</pdfrwt>
<totfact> 0.53128265E+00</totfact>
</mgrwt>
</event>
<event>
 6    1  0.1588846E-005  0.2907780E+04  0.7818608E-02  0.8270566E-01
         -2   -1    0    0    0  501 -0.00000000000E+00  0.00000000000E+00  0.15998949889E+04  0.15998949889E+04  0.00000000000E+00 0.  1.
          2   -1    0    0  501    0  0.00000000000E+00 -0.00000000000E+00 -0.13212094735E+04  0.13212094735E+04  0.00000000000E+00 0. -1.
         23    2    1    2    0    0  0.44138618276E+02 -0.53779223926E+03 -0.12151327175E+04  0.13328155644E+04  0.93172405500E+02 0.  0.
         11    1    3    3    0    0  0.47386430359E+02 -0.11145532870E+03 -0.25712059833E+03  0.28421605543E+03  0.00000000000E+00 0. -1.
        -11    1    3    3    0    0 -0.32478120831E+01 -0.42633691055E+03 -0.95801211922E+03  0.10485995089E+04  0.00000000000E+00 0.  1.
         22    1    1    2    0    0 -0.44138618276E+02  0.53779223926E+03  0.14938182330E+04  0.15882888980E+04  0.00000000000E+00 0.  1.
<mgrwt>
<rscale>  0 0.29077802E+04</rscale>
<asrwt>0</asrwt>
<pdfrwt beam="1">  1        2 0.20326300E+00 0.29077802E+04</pdfrwt>
<pdfrwt beam="2">  1       -2 0.24613769E+00 0.29077802E+04</pdfrwt>
<totfact> 0.94075045E-01</totfact>
</mgrwt>
</event>
<event>
 6    1  0.1588846E-005  0.3446147E+04  0.7818608E-02  0.8126672E-01
          2   -1    0    0  501    0  0.00000000000E+00  0.00000000000E+00  0.99391383134E+03  0.99391383134E+03  0.00000000000E+00 0. -1.
         -2   -1    0    0    0  501 -0.00000000000E+00 -0.00000000000E+00 -0.29871634334E+04  0.29871634334E+04  0.00000000000E+00 0.  1.
         23    2    1    2    0    0  0.83442850096E+03 -0.14794146472E+04 -0.13242115004E+04  0.21555497785E+04  0.88995101459E+02 0.  0.
         13    1    3    3    0    0  0.44043155427E+03 -0.75591501663E+03 -0.73613431878E+03  0.11433639848E+04  0.00000000000E+00 0. -1.
        -13    1    3    3    0    0  0.39399694669E+03 -0.72349963056E+03 -0.58807718166E+03  0.10121857937E+04  0.00000000000E+00 0.  1.
         22    1    1    2    0    0 -0.83442850096E+03  0.14794146472E+04 -0.66903810159E+03  0.18255274862E+04  0.00000000000E+00 0. -1.
<mgrwt>
<rscale>  0 0.34461474E+04</rscale>
<asrwt>0</asrwt>
<pdfrwt beam="1">  1        2 0.15290982E+00 0.34461474E+04</pdfrwt>
<pdfrwt beam="2">  1       -2 0.45956360E+00 0.34461474E+04</pdfrwt>
<totfact> 0.62885371E-02</totfact>
</mgrwt>
</event>
<event>
 6    1  0.1588846E-005  0.2440112E+04  0.7818608E-02  0.8424637E-01
          1   -1    0    0  501    0  0.00000000000E+00  0.00000000000E+00  0.16745665418E+04  0.16745665418E+04  0.00000000000E+00 0. -1.
         -1   -1    0    0    0  501 -0.00000000000E+00 -0.00000000000E+00 -0.88890856030E+03  0.88890856030E+03  0.00000000000E+00 0.  1.
         23    2    1    2    0    0  0.92902150648E+03  0.70673975639E+03  0.26708187544E+02  0.11711508466E+04  0.91208198171E+02 0.  0.
         13    1    3    3    0    0  0.74920506058E+03  0.52554649621E+03  0.33797678092E+02  0.91577815300E+03  0.00000000000E+00 0. -1.
        -13    1    3    3    0    0  0.17981644590E+03  0.18119326018E+03 -0.70894905480E+01  0.25537269358E+03  0.00000000000E+00 0.  1.
         22    1    1    2    0    0 -0.92902150648E+03 -0.70673975639E+03  0.75894979396E+03  0.13923242555E+04  0.00000000000E+00 0. -1.
<mgrwt>
<rscale>  0 0.24401119E+04</rscale>
<asrwt>0</asrwt>
<pdfrwt beam="1">  1        1 0.25762562E+00 0.24401119E+04</pdfrwt>
<pdfrwt beam="2">  1       -1 0.13675516E+00 0.24401119E+04</pdfrwt>
<totfact> 0.19737973E+00</totfact>
</mgrwt>
</event>
<event>
 6    1  0.1588846E-005  0.1044007E+04  0.7818608E-02  0.9261553E-01
         -2   -1    0    0    0  501 -0.00000000000E+00  0.00000000000E+00  0.11256055764E+03  0.11256055764E+03  0.00000000000E+00 0.  1.
          2   -1    0    0  501    0  0.00000000000E+00 -0.00000000000E+00 -0.24208102407E+04  0.24208102407E+04  0.00000000000E+00 0. -1.
         23    2    1    2    0    0 -0.30965548521E+03 -0.31562625898E+03 -0.18178945331E+04  0.18731021954E+04  0.90911199869E+02 0.  0.
         11    1    3    3    0    0 -0.17471243076E+03 -0.21766941668E+03 -0.12741954044E+04  0.13044072742E+04  0.00000000000E+00 0. -1.
        -11    1    3    3    0    0 -0.13494305445E+03 -0.97956842301E+02 -0.54369912865E+03  0.56869492119E+03  0.00000000000E+00 0.  1.
         22    1    1    2    0    0  0.30965548521E+03  0.31562625898E+03 -0.49035515000E+03  0.66026860292E+03  0.00000000000E+00 0.  1.
<mgrwt>
<rscale>  0 0.10440072E+04</rscale>
<asrwt>0</asrwt>
<pdfrwt beam="1">  1        2 0.37243230E+00 0.10440072E+04</pdfrwt>
<pdfrwt beam="2">  1       -2 0.17317011E-01 0.10440072E+04</pdfrwt>
<totfact> 0.10679215E+02</totfact>
</mgrwt>
</event>
<event>
 6    1  0.2055206E-005  0.2188134E+04  0.7818608E-02  0.8523383E-01
         -2   -1    0    0    0  501 -0.00000000000E+00  0.00000000000E+00  0.53764181765E+03  0.53764181765E+03  0.00000000000E+00 0.  1.
          2   -1    0    0  501    0  0.00000000000E+00 -0.00000000000E+00 -0.22263562048E+04  0.22263562048E+04  0.00000000000E+00 0. -1.
         23    2    1    2    0    0 -0.62597947416E+03  0.74346724553E+03 -0.14751118921E+04  0.17689001010E+04  0.91970788532E+02 0.  0.
         13    1    3    3    0    0 -0.37986411562E+03  0.39052248804E+03 -0.78108780908E+03  0.95231440475E+03  0.00000000000E+00 0.  1.
        -13    1    3    3    0    0 -0.24611535855E+03  0.35294475749E+03 -0.69402408303E+03  0.81658569628E+03  0.00000000000E+00 0. -1.
         22    1    1    2    0    0  0.62597947416E+03 -0.74346724553E+03 -0.21360249499E+03  0.99509792137E+03  0.00000000000E+00 0. -1.
<mgrwt>
<rscale>  0 0.21881336E+04</rscale>
<asrwt>0</asrwt>
<pdfrwt beam="1">  1        2 0.34251634E+00 0.21881336E+04</pdfrwt>
<pdfrwt beam="2">  1       -2 0.82714126E-01 0.21881336E+04</pdfrwt>
<totfact> 0.58522809E+00</totfact>
</mgrwt>
</event>
<event>
 6    1  0.1588846E-005  0.3540607E+04  0.7818608E-02  0.8104234E-01
          1   -1    0    0  501    0  0.00000000000E+00  0.00000000000E+00  0.22901900473E+04  0.22901900473E+04  0.00000000000E+00 0. -1.
         -1   -1    0    0    0  501 -0.00000000000E+00 -0.00000000000E+00 -0.13684338948E+04  0.13684338948E+04  0.00000000000E+00 0.  1.
         23    2    1    2    0    0 -0.12561830972E+04  0.11701721215E+04  0.20302200346E+02  0.17195731446E+04  0.96025270472E+02 0.  0.
         13    1    3    3    0    0 -0.71666269159E+03  0.72903731672E+03 -0.21079299189E+01  0.10223039010E+04  0.00000000000E+00 0.  1.
        -13    1    3    3    0    0 -0.53952040559E+03  0.44113480480E+03  0.22410130265E+02  0.69726924354E+03  0.00000000000E+00 0. -1.
         22    1    1    2    0    0  0.12561830972E+04 -0.11701721215E+04  0.90145395221E+03  0.19390507976E+04  0.00000000000E+00 0. -1.
<mgrwt>
<rscale>  0 0.35406066E+04</rscale>
<asrwt>0</asrwt>
<pdfrwt beam="1">  1        1 0.35233693E+00 0.35406066E+04</pdfrwt>
<pdfrwt beam="2">  1       -1 0.21052829E+00 0.35406066E+04</pdfrwt>
<totfact> 0.19595600E-01</totfact>
</mgrwt>
</event>
<event>
 6    1  0.1588846E-005  0.1445364E+04  0.7818608E-02  0.8921621E-01
          2   -1    0    0  501    0  0.00000000000E+00  0.00000000000E+00  0.50010832958E+03  0.50010832958E+03  0.00000000000E+00 0. -1.
         -2   -1    0    0    0  501 -0.00000000000E+00 -0.00000000000E+00 -0.10443124903E+04  0.10443124903E+04  0.00000000000E+00 0.  1.
         23    2    1    2    0    0  0.46155929356E+03 -0.20068207739E+03  0.27693617907E+03  0.58131037176E+03  0.88982152014E+02 0.  0.
         13    1    3    3    0    0  0.41175439533E+03 -0.18075195543E+03  0.21219476812E+03  0.49723190876E+03  0.00000000000E+00 0.  1.
        -13    1    3    3    0    0  0.49804898225E+02 -0.19930121964E+02  0.64741410950E+02  0.84078463000E+02  0.00000000000E+00 0. -1.
         22    1    1    2    0    0 -0.46155929356E+03  0.20068207739E+03 -0.82114033982E+03  0.96311044815E+03  0.00000000000E+00 0.  1.
<mgrwt>
<rscale>  0 0.14453641E+04</rscale>
<asrwt>0</asrwt>
<pdfrwt beam="1">  1        2 0.76939745E-01 0.14453641E+04</pdfrwt>
<pdfrwt beam="2">  1       -2 0.16066346E+00 0.14453641E+04</pdfrwt>
<totfact> 0.14860095E+01</totfact>
</mgrwt>
</event>
<event>
 6    1  0.1588846E-005  0.8995996E+03  0.7818608E-02  0.9426082E-01
         -1   -1    0    0    0  501 -0.00000000000E+00  0.00000000000E+00  0.61882060143E+03  0.61882060143E+03  0.00000000000E+00 0.  1.
          1   -1    0    0  501    0  0.00000000000E+00 -0.00000000000E+00 -0.32694428813E+03  0.32694428813E+03  0.00000000000E+00 0. -1.
         23    2    1    2    0    0 -0.48769798798E+02  0.18515890901E+03  0.56991846724E+03  0.60817082232E+03  0.91664469462E+02 0.  0.
         11    1    3    3    0    0 -0.65340604381E+02  0.15523660901E+03  0.38670798162E+03  0.42179481078E+03  0.00000000000E+00 0.  1.
        -11    1    3    3    0    0  0.16570805582E+02  0.29922300005E+02  0.18321048562E+03  0.18637601154E+03  0.00000000000E+00 0. -1.
         22    1    1    2    0    0  0.48769798798E+02 -0.18515890901E+03 -0.27804215395E+03  0.33759406724E+03  0.00000000000E+00 0. -1.
<mgrwt>
<rscale>  0 0.89959960E+03</rscale>
<asrwt>0</asrwt>
<pdfrwt beam="1">  1        1 0.50299121E-01 0.89959960E+03</pdfrwt>
<pdfrwt beam="2">  1       -1 0.95203169E-01 0.89959960E+03</pdfrwt>
<totfact> 0.84188351E+01</totfact>
</mgrwt>
</event>
<event>
 6    1  0.1588846E-005  0.1955714E+04  0.7818608E-02  0.8627610E-01
         -2   -1    0    0    0  501 -0.00000000000E+00  0.00000000000E+00  0.21864745542E+04  0.21864745542E+04  0.00000000000E+00 0.  1.
          2   -1    0    0  501    0  0.00000000000E+00 -0.00000000000E+00 -0.43732705433E+03  0.43732705433E+03  0.00000000000E+00 0. -1.
         23    2    1    2    0    0  0.27664805500E+03 -0.80150753199E+03  0.22796721395E+03  0.88226839539E+03  0.86486997321E+02 0.  0.
         13    1    3    3    0    0  0.13025938106E+03 -0.26091851552E+03  0.94106819044E+02  0.30643444892E+03  0.00000000000E+00 0. -1.
        -13    1    3    3    0    0  0.14638867393E+03 -0.54058901647E+03  0.13386039491E+03  0.57583394647E+03  0.00000000000E+00 0.  1.
         22    1    1    2    0    0 -0.27664805500E+03  0.80150753199E+03  0.15211802859E+04  0.17415332131E+04  0.00000000000E+00 0.  1.
<mgrwt>
<rscale>  0 0.19557142E+04</rscale>
<asrwt>0</asrwt>
<pdfrwt beam="1">  1        2 0.67281086E-01 0.19557142E+04</pdfrwt>
<pdfrwt beam="2">  1       -2 0.33638069E+00 0.19557142E+04</pdfrwt>
<totfact> 0.12720278E+00</totfact>
</mgrwt>
</event>
<event>
 6    1  0.1588846E-005  0.2424498E+04  0.7818608E-02  0.8430388E-01
          1   -1    0    0  501    0  0.00000000000E+00  0.00000000000E+00  0.10917589559E+04  0.10917589559E+04  0.00000000000E+00 0. -1.
         -1   -1    0    0    0  501 -0.00000000000E+00 -0.00000000000E+00 -0.13460367400E+04  0.13460367400E+04  0.00000000000E+00 0.  1.
         23    2    1    2    0    0 -0.16167389432E+03 -0.39117392613E+03 -0.12676195235E+04  0.13396076568E+04  0.92379268398E+02 0.  0.
         11    1    3    3    0    0 -0.13164914172E+03 -0.27355264240E+03 -0.77720212899E+03  0.83438941387E+03  0.00000000000E+00 0. -1.
        -11    1    3    3    0    0 -0.30024752596E+02 -0.11762128373E+03 -0.49041739447E+03  0.50521824289E+03  0.00000000000E+00 0.  1.
         22    1    1    2    0    0  0.16167389432E+03  0.39117392613E+03  0.10133417393E+04  0.10981880391E+04  0.00000000000E+00 0. -1.
<mgrwt>
<rscale>  0 0.24244980E+04</rscale>
<asrwt>0</asrwt>
<pdfrwt beam="1">  1        1 0.16796292E+00 0.24244980E+04</pdfrwt>
<pdfrwt beam="2">  1       -1 0.20708258E+00 0.24244980E+04</pdfrwt>
<totfact> 0.15477344E+00</totfact>
</mgrwt>
</event>
<event>
 6    1  0.1588846E-005  0.3388122E+04  0.7818608E-02  0.8140828E-01
         -2   -1    0    0    0  501 -0.00000000000E+00  0.00000000000E+00  0.10200948374E+04  0.10200948374E+04  0.00000000000E+00 0.  1.
          2   -1    0    0  501    0  0.00000000000E+00 -0.00000000000E+00 -0.28133097855E+04  0.28133097855E+04  0.00000000000E+00 0. -1.
         23    2    1    2    0    0 -0.21281917086E+03  0.16661867070E+04 -0.65915070295E+03  0.18066900761E+04  0.90439149013E+02 0.  0.
         13    1    3    3    0    0 -0.20045096839E+03  0.12952103501E+04 -0.52874999027E+03  0.14132681960E+04  0.00000000000E+00 0. -1.
        -13    1    3    3    0    0 -0.12368202471E+02  0.37097635691E+03 -0.13040071269E+03  0.39342188003E+03  0.00000000000E+00 0.  1.
         22    1    1    2    0    0  0.21281917086E+03 -0.16661867070E+04 -0.11340642452E+04  0.20267145468E+04  0.00000000000E+00 0. -1.
<mgrwt>
<rscale>  0 0.33881221E+04</rscale>
<asrwt>0</asrwt>
<pdfrwt beam="1">  1        2 0.43281688E+00 0.33881221E+04</pdfrwt>
<pdfrwt beam="2">  1       -2 0.15693767E+00 0.33881221E+04</pdfrwt>
<totfact> 0.49943972E-01</totfact>
</mgrwt>
</event>
<event>
 6    1  0.1588846E-005  0.1252633E+04  0.7818608E-02  0.9067994E-01
         -2   -1    0    0    0  501 -0.00000000000E+00  0.00000000000E+00  0.33453111836E+03  0.33453111836E+03  0.00000000000E+00 0.  1.
          2   -1    0    0  501    0  0.00000000000E+00 -0.00000000000E+00 -0.11726039565E+04  0.11726039565E+04  0.00000000000E+00 0. -1.
         23    2    1    2    0    0 -0.13517630681E+03  0.58778284131E+03 -0.60927825228E+03  0.86207053161E+03  0.90467178102E+02 0.  0.
         11    1    3    3    0    0 -0.64835389258E+02  0.35008118906E+03 -0.41723284428E+03  0.54849221779E+03  0.00000000000E+00 0.  1.
        -11    1    3    3    0    0 -0.70340917550E+02  0.23770165225E+03 -0.19204540800E+03  0.31357831382E+03  0.00000000000E+00 0. -1.
         22    1    1    2    0    0  0.13517630681E+03 -0.58778284131E+03 -0.22879458591E+03  0.64506454329E+03  0.00000000000E+00 0. -1.
<mgrwt>
<rscale>  0 0.12526332E+04</rscale>
<asrwt>0</asrwt>
<pdfrwt beam="1">  1        2 0.18040061E+00 0.12526332E+04</pdfrwt>
<pdfrwt beam="2">  1       -2 0.51466327E-01 0.12526332E+04</pdfrwt>
<totfact> 0.68981120E+01</totfact>
</mgrwt>
</event>
<event>
 6    1  0.1588846E-005  0.1242586E+04  0.7818608E-02  0.9076377E-01
         -1   -1    0    0    0  501 -0.00000000000E+00  0.00000000000E+00  0.14812576662E+04  0.14812576662E+04  0.00000000000E+00 0.  1.
          1   -1    0    0  501    0  0.00000000000E+00 -0.00000000000E+00 -0.26059254916E+03  0.26059254916E+03  0.00000000000E+00 0. -1.
         23    2    1    2    0    0 -0.29843833716E+03 -0.40306032724E+03  0.10751447497E+03  0.52093767942E+03  0.91069396813E+02 0.  0.
         13    1    3    3    0    0 -0.10755776900E+03 -0.22173725212E+03  0.52441391659E+02  0.25196464476E+03  0.00000000000E+00 0. -1.
        -13    1    3    3    0    0 -0.19088056816E+03 -0.18132307512E+03  0.55073083309E+02  0.26897303466E+03  0.00000000000E+00 0.  1.
         22    1    1    2    0    0  0.29843833716E+03  0.40306032724E+03  0.11131506421E+04  0.12209125360E+04  0.00000000000E+00 0.  1.
<mgrwt>
<rscale>  0 0.12425855E+04</rscale>
<asrwt>0</asrwt>
<pdfrwt beam="1">  1        1 0.40091162E-01 0.12425855E+04</pdfrwt>
<pdfrwt beam="2">  1       -1 0.22788579E+00 0.12425855E+04</pdfrwt>
<totfact> 0.10144692E+01</totfact>
</mgrwt>
</event>
<event>
 6    1  0.1588846E-005  0.5834059E+03  0.7818608E-02  0.9940444E-01
         -4   -1    0    0    0  501 -0.00000000000E+00  0.00000000000E+00  0.28746420505E+03  0.28746420505E+03  0.00000000000E+00 0.  1.
          4   -1    0    0  501    0  0.00000000000E+00 -0.00000000000E+00 -0.29600415875E+03  0.29600415875E+03  0.00000000000E+00 0. -1.
         23    2    1    2    0    0  0.16987351365E+03 -0.11095384258E+03  0.19516547166E+03  0.29595546645E+03  0.91281493051E+02 0.  0.
         13    1    3    3    0    0 -0.10100744301E+02 -0.94379486714E+01  0.23745748126E+02  0.27476543899E+02  0.00000000000E+00 0. -1.
        -13    1    3    3    0    0  0.17997425795E+03 -0.10151589391E+03  0.17141972354E+03  0.26847892255E+03  0.00000000000E+00 0.  1.
         22    1    1    2    0    0 -0.16987351365E+03  0.11095384258E+03 -0.20370542536E+03  0.28751289735E+03  0.00000000000E+00 0. -1.
<mgrwt>
<rscale>  0 0.58340586E+03</rscale>
<asrwt>0</asrwt>
<pdfrwt beam="1">  1        4 0.45539101E-01 0.58340586E+03</pdfrwt>
<pdfrwt beam="2">  1       -4 0.44225262E-01 0.58340586E+03</pdfrwt>
<totfact> 0.45813191E+01</totfact>
</mgrwt>
</event>
<event>
 6    1  0.1588846E-005  0.1581856E+04  0.7818608E-02  0.8831772E-01
         -2   -1    0    0    0  501 -0.00000000000E+00  0.00000000000E+00  0.20468334292E+03  0.20468334292E+03  0.00000000000E+00 0.  1.
          2   -1    0    0  501    0  0.00000000000E+00 -0.00000000000E+00 -0.30562694987E+04  0.30562694987E+04  0.00000000000E+00 0. -1.
         23    2    1    2    0    0  0.36971180980E+03  0.53924211387E+03 -0.23377313852E+04  0.24293786688E+04  0.97076296450E+02 0.  0.
         13    1    3    3    0    0  0.24006487869E+03  0.37800491785E+03 -0.17464875616E+04  0.18029802180E+04  0.00000000000E+00 0. -1.
        -13    1    3    3    0    0  0.12964693111E+03  0.16123719601E+03 -0.59124382361E+03  0.62639845074E+03  0.00000000000E+00 0.  1.
         22    1    1    2    0    0 -0.36971180980E+03 -0.53924211387E+03 -0.51385477057E+03  0.83157417283E+03  0.00000000000E+00 0.  1.
<mgrwt>
<rscale>  0 0.15818565E+04</rscale>
<asrwt>0</asrwt>
<pdfrwt beam="1">  1        2 0.47019528E+00 0.15818565E+04</pdfrwt>
<pdfrwt beam="2">  1       -2 0.31489747E-01 0.15818565E+04</pdfrwt>
<totfact> 0.14524892E+01</totfact>
</mgrwt>
</event>
<event>
 6    1  0.1588846E-005  0.2770791E+03  0.7818608E-02  0.1097295E+00
         -1   -1    0    0    0  501 -0.00000000000E+00  0.00000000000E+00  0.24260460667E+02  0.24260460667E+02  0.00000000000E+00 0.  1.
          1   -1    0    0  501    0  0.00000000000E+00 -0.00000000000E+00 -0.79113140159E+03  0.79113140159E+03  0.00000000000E+00 0. -1.
         23    2    1    2    0    0 -0.46079858537E+02 -0.11029128195E+03 -0.32628836465E+03  0.35888279691E+03  0.89695288445E+02 0.  0.
         11    1    3    3    0    0 -0.59929471958E+02 -0.77223222582E+02 -0.15037464689E+03  0.17935300985E+03  0.00000000000E+00 0.  1.
        -11    1    3    3    0    0  0.13849613421E+02 -0.33068059366E+02 -0.17591371777E+03  0.17952978706E+03  0.00000000000E+00 0. -1.
         22    1    1    2    0    0  0.46079858537E+02  0.11029128195E+03 -0.44058257627E+03  0.45650906535E+03  0.00000000000E+00 0. -1.
<mgrwt>
<rscale>  0 0.27707914E+03</rscale>
<asrwt>0</asrwt>
<pdfrwt beam="1">  1        1 0.12171253E+00 0.27707914E+03</pdfrwt>
<pdfrwt beam="2">  1       -1 0.37323784E-02 0.27707914E+03</pdfrwt>
<totfact> 0.63817040E+03</totfact>
</mgrwt>
</event>
<event>
 6    1  0.1588846E-005  0.1909212E+04  0.7818608E-02  0.8650285E-01
          2   -1    0    0  501    0  0.00000000000E+00  0.00000000000E+00  0.20140223164E+04  0.20140223164E+04  0.00000000000E+00 0.  1.
         -2   -1    0    0    0  501 -0.00000000000E+00 -0.00000000000E+00 -0.45246390474E+03  0.45246390474E+03  0.00000000000E+00 0. -1.
         23    2    1    2    0    0 -0.66376840561E+03  0.25259694609E+03  0.16019711899E+04  0.17551305393E+04  0.98882775564E+02 0.  0.
         13    1    3    3    0    0 -0.23266357703E+03  0.63198350867E+02  0.64498957159E+03  0.68857673435E+03  0.00000000000E+00 0. -1.
        -13    1    3    3    0    0 -0.43110482859E+03  0.18939859523E+03  0.95698161828E+03  0.10665538049E+04  0.00000000000E+00 0.  1.
         22    1    1    2    0    0  0.66376840561E+03 -0.25259694609E+03 -0.40412778206E+02  0.71135568185E+03  0.00000000000E+00 0. -1.
<mgrwt>
<rscale>  0 0.19092118E+04</rscale>
<asrwt>0</asrwt>
<pdfrwt beam="1">  1        2 0.30984958E+00 0.19092118E+04</pdfrwt>
<pdfrwt beam="2">  1       -2 0.69609833E-01 0.19092118E+04</pdfrwt>
<totfact> 0.11555972E+01</totfact>
</mgrwt>
</event>
<event>
 6    1  0.1588846E-005  0.3160121E+04  0.7818608E-02  0.8199429E-01
          2   -1    0    0  501    0  0.00000000000E+00  0.00000000000E+00  0.13867621250E+04  0.13867621250E+04  0.00000000000E+00 0.  1.
         -2   -1    0    0    0  501 -0.00000000000E+00 -0.00000000000E+00 -0.18003025885E+04  0.18003025885E+04  0.00000000000E+00 0. -1.
         23    2    1    2    0    0 -0.14558172561E+04  0.58875262539E+03 -0.44033530576E+02  0.15738167752E+04  0.94481494987E+02 0.  0.
         11    1    3    3    0    0 -0.61283158927E+03  0.29674890516E+03 -0.30696034020E+02  0.68158984443E+03  0.00000000000E+00 0. -1.
        -11    1    3    3    0    0 -0.84298566688E+03  0.29200372024E+03 -0.13337496556E+02  0.89222693078E+03  0.00000000000E+00 0.  1.
         22    1    1    2    0    0  0.14558172561E+04 -0.58875262539E+03 -0.36950693291E+03  0.16132479384E+04  0.00000000000E+00 0.  1.
<mgrwt>
<rscale>  0 0.31601212E+04</rscale>
<asrwt>0</asrwt>
<pdfrwt beam="1">  1        2 0.21334802E+00 0.31601212E+04</pdfrwt>
<pdfrwt beam="2">  1       -2 0.27696963E+00 0.31601212E+04</pdfrwt>
<totfact> 0.54668084E-01</totfact>
</mgrwt>
</event>
<event>
 6    1  0.1588846E-005  0.1918553E+04  0.7818608E-02  0.8645676E-01
         -1   -1    0    0    0  501 -0.00000000000E+00  0.00000000000E+00  0.15442564338E+04  0.15442564338E+04  0.00000000000E+00 0.  1.
          1   -1    0    0  501    0  0.00000000000E+00 -0.00000000000E+00 -0.59589272091E+03  0.59589272091E+03  0.00000000000E+00 0. -1.
         23    2    1    2    0    0 -0.65328122377E+03  0.14371238632E+03 -0.28852515918E+03  0.73397573397E+03  0.89688367519E+02 0.  0.
         13    1    3    3    0    0 -0.42690625625E+03  0.13713099786E+03 -0.19479397025E+03  0.48887478258E+03  0.00000000000E+00 0. -1.
        -13    1    3    3    0    0 -0.22637496753E+03  0.65813884587E+01 -0.93731188933E+02  0.24510095140E+03  0.00000000000E+00 0.  1.
         22    1    1    2    0    0  0.65328122377E+03 -0.14371238632E+03  0.12368888721E+04  0.14061734207E+04  0.00000000000E+00 0.  1.
<mgrwt>
<rscale>  0 0.19185528E+04</rscale>
<asrwt>0</asrwt>
<pdfrwt beam="1">  1        1 0.91675804E-01 0.19185528E+04</pdfrwt>
<pdfrwt beam="2">  1       -1 0.23757791E+00 0.19185528E+04</pdfrwt>
<totfact> 0.27174477E+00</totfact>
</mgrwt>
</event>
<event>
 6    1  0.1588846E-005  0.1465001E+04  0.7818608E-02  0.8908066E-01
          2   -1    0    0  501    0  0.00000000000E+00  0.00000000000E+00  0.47834908410E+04  0.47834908410E+04  0.00000000000E+00 0. -1.
         -2   -1    0    0    0  501 -0.00000000000E+00 -0.00000000000E+00 -0.11216855761E+03  0.11216855761E+03  0.00000000000E+00 0.  1.
         23    2    1    2    0    0 -0.69814176464E+03  0.18604275713E+03  0.20091354905E+04  0.21371720683E+04  0.94155188158E+02 0.  0.
         13    1    3    3    0    0 -0.54974147468E+03  0.10561392039E+03  0.15360509511E+04  0.16348769108E+04  0.00000000000E+00 0. -1.
        -13    1    3    3    0    0 -0.14840028996E+03  0.80428836734E+02  0.47308453936E+03  0.50229515747E+03  0.00000000000E+00 0.  1.
         22    1    1    2    0    0  0.69814176464E+03 -0.18604275713E+03  0.26621867929E+04  0.27584873303E+04  0.00000000000E+00 0. -1.
<mgrwt>
<rscale>  0 0.14650014E+04</rscale>
<asrwt>0</asrwt>
<pdfrwt beam="1">  1        2 0.73592151E+00 0.14650014E+04</pdfrwt>
<pdfrwt beam="2">  1       -2 0.17256705E-01 0.14650014E+04</pdfrwt>
<totfact> 0.17426867E+00</totfact>
</mgrwt>
</event>
<event>
 6    1  0.1588846E-005  0.1306386E+04  0.7818608E-02  0.9024516E-01
          1   -1    0    0  501    0  0.00000000000E+00  0.00000000000E+00  0.11616861070E+04  0.11616861070E+04  0.00000000000E+00 0. -1.
         -1   -1    0    0    0  501 -0.00000000000E+00 -0.00000000000E+00 -0.36727766074E+03  0.36727766074E+03  0.00000000000E+00 0.  1.
         23    2    1    2    0    0  0.52885393409E+03  0.34397095029E+03  0.58330975812E+03  0.86370806175E+03  0.87970698300E+02 0.  0.
         11    1    3    3    0    0  0.22036502859E+03  0.19181066353E+03  0.29023181353E+03  0.41180891449E+03  0.00000000000E+00 0.  1.
        -11    1    3    3    0    0  0.30848890550E+03  0.15216028676E+03  0.29307794459E+03  0.45189914726E+03  0.00000000000E+00 0. -1.
         22    1    1    2    0    0 -0.52885393409E+03 -0.34397095029E+03  0.21109868816E+03  0.66525570602E+03  0.00000000000E+00 0.  1.
<mgrwt>
<rscale>  0 0.13063864E+04</rscale>
<asrwt>0</asrwt>
<pdfrwt beam="1">  1        1 0.17872094E+00 0.13063864E+04</pdfrwt>
<pdfrwt beam="2">  1       -1 0.56504256E-01 0.13063864E+04</pdfrwt>
<totfact> 0.35493144E+01</totfact>
</mgrwt>
</event>
<event>
 6    1  0.1588846E-005  0.1708811E+04  0.7818608E-02  0.8756355E-01
          2   -1    0    0  501    0  0.00000000000E+00  0.00000000000E+00  0.27218200632E+04  0.27218200632E+04  0.00000000000E+00 0.  1.
         -2   -1    0    0    0  501 -0.00000000000E+00 -0.00000000000E+00 -0.26820605891E+03  0.26820605891E+03  0.00000000000E+00 0. -1.
         23    2    1    2    0    0 -0.32953088533E+03 -0.75013271761E+03  0.82188013668E+03  0.11641441125E+04  0.91950296872E+02 0.  0.
         13    1    3    3    0    0 -0.24961117339E+02 -0.13909113912E+03  0.15509676063E+03  0.20981994071E+03  0.00000000000E+00 0.  1.
        -13    1    3    3    0    0 -0.30456976799E+03 -0.61104157849E+03  0.66678337604E+03  0.95432417175E+03  0.00000000000E+00 0. -1.
         22    1    1    2    0    0  0.32953088533E+03  0.75013271761E+03  0.16317338677E+04  0.18258820097E+04  0.00000000000E+00 0.  1.
<mgrwt>
<rscale>  0 0.17088109E+04</rscale>
<asrwt>0</asrwt>
<pdfrwt beam="1">  1        2 0.41874153E+00 0.17088109E+04</pdfrwt>
<pdfrwt beam="2">  1       -2 0.41262472E-01 0.17088109E+04</pdfrwt>
<totfact> 0.13671843E+01</totfact>
</mgrwt>
</event>
<event>
 6    1  0.1664914E-005  0.3820184E+04  0.7818608E-02  0.8041837E-01
         -1   -1    0    0    0  501 -0.00000000000E+00  0.00000000000E+00  0.19137660720E+04  0.19137660720E+04  0.00000000000E+00 0. -1.
          1   -1    0    0  501    0  0.00000000000E+00 -0.00000000000E+00 -0.19064246254E+04  0.19064246254E+04  0.00000000000E+00 0.  1.
         23    2    1    2    0    0  0.13488965581E+04 -0.12131841934E+04 -0.59158264651E+03  0.19096808489E+04  0.74653235286E+02 0.  0.
         13    1    3    3    0    0  0.48604127045E+03 -0.46225829291E+03 -0.18635496621E+03  0.69616594242E+03  0.00000000000E+00 0.  1.
        -13    1    3    3    0    0  0.86285528764E+03 -0.75092590049E+03 -0.40522768029E+03  0.12135149065E+04  0.00000000000E+00 0. -1.
         22    1    1    2    0    0 -0.13488965581E+04  0.12131841934E+04  0.59892409311E+03  0.19105098484E+04  0.00000000000E+00 0. -1.
<mgrwt>
<rscale>  0 0.38201836E+04</rscale>
<asrwt>0</asrwt>
<pdfrwt beam="1">  1        1 0.29329609E+00 0.38201836E+04</pdfrwt>
<pdfrwt beam="2">  1       -1 0.29442555E+00 0.38201836E+04</pdfrwt>
<totfact> 0.98333062E-02</totfact>
</mgrwt>
</event>
<event>
 6    1  0.1588846E-005  0.6409372E+04  0.7818608E-02  0.7641618E-01
          2   -1    0    0  501    0  0.00000000000E+00  0.00000000000E+00  0.25961563719E+04  0.25961563719E+04  0.00000000000E+00 0. -1.
         -2   -1    0    0    0  501 -0.00000000000E+00 -0.00000000000E+00 -0.39558523501E+04  0.39558523501E+04  0.00000000000E+00 0.  1.
         23    2    1    2    0    0 -0.57595553081E+03 -0.25230399266E+04  0.12510400711E+04  0.28759513280E+04  0.92409614231E+02 0.  0.
         11    1    3    3    0    0 -0.29093076113E+03 -0.14661709295E+04  0.74018817466E+03  0.16679857422E+04  0.00000000000E+00 0.  1.
        -11    1    3    3    0    0 -0.28502476968E+03 -0.10568689971E+04  0.51085189648E+03  0.12079655858E+04  0.00000000000E+00 0. -1.
         22    1    1    2    0    0  0.57595553081E+03  0.25230399266E+04 -0.26107360494E+04  0.36760573940E+04  0.00000000000E+00 0.  1.
<mgrwt>
<rscale>  0 0.64093717E+04</rscale>
<asrwt>0</asrwt>
<pdfrwt beam="1">  1        2 0.39940867E+00 0.64093717E+04</pdfrwt>
<pdfrwt beam="2">  1       -2 0.60859267E+00 0.64093717E+04</pdfrwt>
<totfact> 0.96202965E-04</totfact>
</mgrwt>
</event>
<event>
 6    1  0.1588846E-005  0.1843229E+04  0.7818608E-02  0.8683643E-01
         -1   -1    0    0    0  501 -0.00000000000E+00  0.00000000000E+00  0.11750816342E+04  0.11750816342E+04  0.00000000000E+00 0.  1.
          1   -1    0    0  501    0  0.00000000000E+00 -0.00000000000E+00 -0.72282066767E+03  0.72282066767E+03  0.00000000000E+00 0. -1.
         23    2    1    2    0    0  0.91348862711E+03  0.10058562033E+03  0.19920773088E+03  0.94468937761E+03  0.90417704261E+02 0.  0.
         13    1    3    3    0    0  0.33376764086E+03  0.80181104640E+02  0.67229023584E+02  0.34978506148E+03  0.00000000000E+00 0. -1.
        -13    1    3    3    0    0  0.57972098625E+03  0.20404515686E+02  0.13197870730E+03  0.59490431612E+03  0.00000000000E+00 0.  1.
         22    1    1    2    0    0 -0.91348862711E+03 -0.10058562033E+03  0.25305323562E+03  0.95321292424E+03  0.00000000000E+00 0. -1.
<mgrwt>
<rscale>  0 0.18432290E+04</rscale>
<asrwt>0</asrwt>
<pdfrwt beam="1">  1        1 0.11120318E+00 0.18432290E+04</pdfrwt>
<pdfrwt beam="2">  1       -1 0.18078179E+00 0.18432290E+04</pdfrwt>
<totfact> 0.50089844E+00</totfact>
</mgrwt>
</event>
<event>
 6    1  0.1588846E-005  0.2265169E+04  0.7818608E-02  0.8491783E-01
          2   -1    0    0  501    0  0.00000000000E+00  0.00000000000E+00  0.36933553503E+04  0.36933553503E+04  0.00000000000E+00 0. -1.
         -2   -1    0    0    0  501 -0.00000000000E+00 -0.00000000000E+00 -0.34731213666E+03  0.34731213666E+03  0.00000000000E+00 0.  1.
         23    2    1    2    0    0 -0.56703251361E+03 -0.15373972962E+03 -0.47532109244E+02  0.59661242817E+03  0.92332616584E+02 0.  0.
         13    1    3    3    0    0 -0.30720948891E+03 -0.36451942609E+02 -0.33918624056E+02  0.31121839157E+03  0.00000000000E+00 0. -1.
        -13    1    3    3    0    0 -0.25982302470E+03 -0.11728778701E+03 -0.13613485188E+02  0.28539403660E+03  0.00000000000E+00 0.  1.
         22    1    1    2    0    0  0.56703251361E+03  0.15373972962E+03  0.33935753229E+04  0.34440550588E+04  0.00000000000E+00 0. -1.
<mgrwt>
<rscale>  0 0.22651685E+04</rscale>
<asrwt>0</asrwt>
<pdfrwt beam="1">  1        2 0.56820849E+00 0.22651685E+04</pdfrwt>
<pdfrwt beam="2">  1       -2 0.53432639E-01 0.22651685E+04</pdfrwt>
<totfact> 0.17791116E+00</totfact>
</mgrwt>
</event>
<event>
 6    1  0.1588846E-005  0.1211842E+04  0.7818608E-02  0.9102554E-01
          2   -1    0    0  501    0  0.00000000000E+00  0.00000000000E+00  0.15431811966E+04  0.15431811966E+04  0.00000000000E+00 0.  1.
         -2   -1    0    0    0  501 -0.00000000000E+00 -0.00000000000E+00 -0.23791126862E+03  0.23791126862E+03  0.00000000000E+00 0. -1.
         23    2    1    2    0    0  0.28085986324E+03  0.42404530270E+03  0.18153679128E+03  0.54761249212E+03  0.90703657112E+02 0.  0.
         13    1    3    3    0    0  0.21802892888E+03  0.27524786148E+03  0.15541593826E+03  0.38399493869E+03  0.00000000000E+00 0. -1.
        -13    1    3    3    0    0  0.62830934368E+02  0.14879744122E+03  0.26120853025E+02  0.16361755343E+03  0.00000000000E+00 0.  1.
         22    1    1    2    0    0 -0.28085986324E+03 -0.42404530270E+03  0.11237331367E+04  0.12334799731E+04  0.00000000000E+00 0.  1.
<mgrwt>
<rscale>  0 0.12118419E+04</rscale>
<asrwt>0</asrwt>
<pdfrwt beam="1">  1        2 0.23741249E+00 0.12118419E+04</pdfrwt>
<pdfrwt beam="2">  1       -2 0.36601735E-01 0.12118419E+04</pdfrwt>
<totfact> 0.83137933E+01</totfact>
</mgrwt>
</event>
<event>
 6    1  0.2437357E-005  0.2550851E+04  0.7818608E-02  0.8385090E-01
         -1   -1    0    0    0  501 -0.00000000000E+00  0.00000000000E+00  0.10105848906E+04  0.10105848906E+04  0.00000000000E+00 0.  1.
          1   -1    0    0  501    0  0.00000000000E+00 -0.00000000000E+00 -0.16096721286E+04  0.16096721286E+04  0.00000000000E+00 0. -1.
         23    2    1    2    0    0 -0.21568082369E+03  0.20409844104E+03  0.97254196808E+03  0.10208218836E+04  0.89805607039E+02 0.  0.
         11    1    3    3    0    0 -0.13801545699E+03  0.17183489823E+03  0.60828401903E+03  0.64698141119E+03  0.00000000000E+00 0. -1.
        -11    1    3    3    0    0 -0.77665366708E+02  0.32263542805E+02  0.36425794906E+03  0.37384047243E+03  0.00000000000E+00 0.  1.
         22    1    1    2    0    0  0.21568082369E+03 -0.20409844104E+03 -0.15716292061E+04  0.15994351355E+04  0.00000000000E+00 0. -1.
<mgrwt>
<rscale>  0 0.25508511E+04</rscale>
<asrwt>0</asrwt>
<pdfrwt beam="1">  1        1 0.24764186E+00 0.25508511E+04</pdfrwt>
<pdfrwt beam="2">  1       -1 0.15547460E+00 0.25508511E+04</pdfrwt>
<totfact> 0.15382163E+00</totfact>
</mgrwt>
</event>
<event>
 6    1  0.1588846E-005  0.2024204E+04  0.7818608E-02  0.8595387E-01
         -1   -1    0    0    0  501 -0.00000000000E+00  0.00000000000E+00  0.11430971158E+04  0.11430971158E+04  0.00000000000E+00 0.  1.
          1   -1    0    0  501    0  0.00000000000E+00 -0.00000000000E+00 -0.89611848154E+03  0.89611848154E+03  0.00000000000E+00 0. -1.
         23    2    1    2    0    0 -0.25744144151E+03  0.96310763011E+03  0.28576952874E+03  0.10415397299E+04  0.96376254714E+02 0.  0.
         11    1    3    3    0    0 -0.20266225213E+03  0.57620251285E+03  0.17338197485E+03  0.63493514114E+03  0.00000000000E+00 0.  1.
        -11    1    3    3    0    0 -0.54779189382E+02  0.38690511726E+03  0.11238755388E+03  0.40660458878E+03  0.00000000000E+00 0. -1.
         22    1    1    2    0    0  0.25744144151E+03 -0.96310763011E+03 -0.38790894469E+02  0.99767586744E+03  0.00000000000E+00 0. -1.
<mgrwt>
<rscale>  0 0.20242040E+04</rscale>
<asrwt>0</asrwt>
<pdfrwt beam="1">  1        1 0.13786438E+00 0.20242040E+04</pdfrwt>
<pdfrwt beam="2">  1       -1 0.17586110E+00 0.20242040E+04</pdfrwt>
<totfact> 0.37832300E+00</totfact>
</mgrwt>
</event>
<event>
 6    1  0.1588846E-005  0.4288737E+04  0.7818608E-02  0.7948704E-01
         -1   -1    0    0    0  501 -0.00000000000E+00  0.00000000000E+00  0.25287108317E+04  0.25287108317E+04  0.00000000000E+00 0.  1.
          1   -1    0    0  501    0  0.00000000000E+00 -0.00000000000E+00 -0.18184432448E+04  0.18184432448E+04  0.00000000000E+00 0. -1.
         23    2    1    2    0    0 -0.65135525679E+03  0.11115793671E+04  0.20915883018E+04  0.24582604116E+04  0.91816485662E+02 0.  0.
         11    1    3    3    0    0 -0.16934102301E+03  0.22170251069E+03  0.48373085886E+03  0.55841197080E+03  0.00000000000E+00 0. -1.
        -11    1    3    3    0    0 -0.48201423378E+03  0.88987685639E+03  0.16078574430E+04  0.18998484408E+04  0.00000000000E+00 0.  1.
         22    1    1    2    0    0  0.65135525679E+03 -0.11115793671E+04 -0.13813207149E+04  0.18888936649E+04  0.00000000000E+00 0. -1.
<mgrwt>
<rscale>  0 0.42887374E+04</rscale>
<asrwt>0</asrwt>
<pdfrwt beam="1">  1        1 0.27976050E+00 0.42887374E+04</pdfrwt>
<pdfrwt beam="2">  1       -1 0.38903244E+00 0.42887374E+04</pdfrwt>
<totfact> 0.25701105E-02</totfact>
</mgrwt>
</event>
<event>
 6    1  0.1588846E-005  0.1250183E+04  0.7818608E-02  0.9070031E-01
          2   -1    0    0  501    0  0.00000000000E+00  0.00000000000E+00  0.15151188225E+04  0.15151188225E+04  0.00000000000E+00 0. -1.
         -2   -1    0    0    0  501 -0.00000000000E+00 -0.00000000000E+00 -0.25789366614E+03  0.25789366614E+03  0.00000000000E+00 0.  1.
         23    2    1    2    0    0  0.20507025485E+03  0.58538303010E+03  0.69759316104E+03  0.93759937434E+03  0.87916250374E+02 0.  0.
         11    1    3    3    0    0  0.90497585699E+02  0.32517196166E+03  0.32161024094E+03  0.46621858044E+03  0.00000000000E+00 0. -1.
        -11    1    3    3    0    0  0.11457266915E+03  0.26021106845E+03  0.37598292010E+03  0.47138079390E+03  0.00000000000E+00 0.  1.
         22    1    1    2    0    0 -0.20507025485E+03 -0.58538303010E+03  0.55963199529E+03  0.83541311428E+03  0.00000000000E+00 0.  1.
<mgrwt>
<rscale>  0 0.12501833E+04</rscale>
<asrwt>0</asrwt>
<pdfrwt beam="1">  1        2 0.23309520E+00 0.12501833E+04</pdfrwt>
<pdfrwt beam="2">  1       -2 0.39675949E-01 0.12501833E+04</pdfrwt>
<totfact> 0.73526484E+01</totfact>
</mgrwt>
</event>
<event>
 6    1  0.1588846E-005  0.2844175E+04  0.7818608E-02  0.8289684E-01
         -2   -1    0    0    0  501 -0.00000000000E+00  0.00000000000E+00  0.23671744239E+04  0.23671744239E+04  0.00000000000E+00 0.  1.
          2   -1    0    0  501    0  0.00000000000E+00 -0.00000000000E+00 -0.85432343386E+03  0.85432343386E+03  0.00000000000E+00 0. -1.
         23    2    1    2    0    0  0.35877159482E+03  0.10079686406E+04 -0.30138539648E+03  0.11152757651E+04  0.91044150162E+02 0.  0.
         13    1    3    3    0    0  0.29449525544E+03  0.72209374516E+03 -0.23965894139E+03  0.81583285081E+03  0.00000000000E+00 0. -1.
        -13    1    3    3    0    0  0.64276339374E+02  0.28587489542E+03 -0.61726455092E+02  0.29944291425E+03  0.00000000000E+00 0.  1.
         22    1    1    2    0    0 -0.35877159482E+03 -0.10079686406E+04  0.18142363865E+04  0.21062220927E+04  0.00000000000E+00 0.  1.
<mgrwt>
<rscale>  0 0.28441748E+04</rscale>
<asrwt>0</asrwt>
<pdfrwt beam="1">  1        2 0.13143438E+00 0.28441748E+04</pdfrwt>
<pdfrwt beam="2">  1       -2 0.36418068E+00 0.28441748E+04</pdfrwt>
<totfact> 0.34557951E-01</totfact>
</mgrwt>
</event>
<event>
 6    1  0.1588846E-005  0.1544455E+04  0.7818608E-02  0.8855417E-01
         -1   -1    0    0    0  501 -0.00000000000E+00  0.00000000000E+00  0.45444805749E+03  0.45444805749E+03  0.00000000000E+00 0.  1.
          1   -1    0    0  501    0  0.00000000000E+00 -0.00000000000E+00 -0.13122196998E+04  0.13122196998E+04  0.00000000000E+00 0. -1.
         23    2    1    2    0    0 -0.68851409076E+03 -0.13936797239E+03 -0.79058484291E+03  0.10609842936E+04  0.84783208852E+02 0.  0.
         11    1    3    3    0    0 -0.27307100283E+03 -0.46648844462E+02 -0.37366727858E+03  0.46515709428E+03  0.00000000000E+00 0. -1.
        -11    1    3    3    0    0 -0.41544308793E+03 -0.92719127930E+02 -0.41691756433E+03  0.59582719931E+03  0.00000000000E+00 0.  1.
         22    1    1    2    0    0  0.68851409076E+03  0.13936797239E+03 -0.67186799398E+02  0.70568346369E+03  0.00000000000E+00 0.  1.
<mgrwt>
<rscale>  0 0.15444555E+04</rscale>
<asrwt>0</asrwt>
<pdfrwt beam="1">  1        1 0.20187995E+00 0.15444555E+04</pdfrwt>
<pdfrwt beam="2">  1       -1 0.69915086E-01 0.15444555E+04</pdfrwt>
<totfact> 0.17674954E+01</totfact>
</mgrwt>
</event>
<event>
 6    1  0.1588846E-005  0.2523479E+04  0.7818608E-02  0.8394669E-01
          2   -1    0    0  501    0  0.00000000000E+00  0.00000000000E+00  0.13205139786E+04  0.13205139786E+04  0.00000000000E+00 0. -1.
         -2   -1    0    0    0  501 -0.00000000000E+00 -0.00000000000E+00 -0.12055807955E+04  0.12055807955E+04  0.00000000000E+00 0.  1.
         23    2    1    2    0    0  0.89109078343E+03 -0.17892976975E+03  0.93114110048E+03  0.13045162824E+04  0.93168317154E+02 0.  0.
         13    1    3    3    0    0  0.33227970001E+03 -0.21968733644E+02  0.35261057816E+03  0.48500169497E+03  0.00000000000E+00 0. -1.
        -13    1    3    3    0    0  0.55881108343E+03 -0.15696103611E+03  0.57853052233E+03  0.81951458747E+03  0.00000000000E+00 0.  1.
         22    1    1    2    0    0 -0.89109078343E+03  0.17892976975E+03 -0.81620791741E+03  0.12215784917E+04  0.00000000000E+00 0. -1.
<mgrwt>
<rscale>  0 0.25234788E+04</rscale>
<asrwt>0</asrwt>
<pdfrwt beam="1">  1        2 0.20315600E+00 0.25234788E+04</pdfrwt>
<pdfrwt beam="2">  1       -2 0.18547397E+00 0.25234788E+04</pdfrwt>
<totfact> 0.23810981E+00</totfact>
</mgrwt>
</event>
<event>
 6    1  0.1588846E-005  0.9140806E+03  0.7818608E-02  0.9408149E-01
         -2   -1    0    0    0  501 -0.00000000000E+00  0.00000000000E+00  0.58513996237E+03  0.58513996237E+03  0.00000000000E+00 0.  1.
          2   -1    0    0  501    0  0.00000000000E+00 -0.00000000000E+00 -0.35698440468E+03  0.35698440468E+03  0.00000000000E+00 0. -1.
         23    2    1    2    0    0  0.35848552196E+03  0.26905348367E+03  0.18543400134E+03  0.49187246211E+03  0.81554298492E+02 0.  0.
         13    1    3    3    0    0  0.79436775137E+02  0.85150353580E+02  0.80577669678E+02  0.14161053919E+03  0.00000000000E+00 0. -1.
        -13    1    3    3    0    0  0.27904874682E+03  0.18390313009E+03  0.10485633166E+03  0.35026192292E+03  0.00000000000E+00 0.  1.
         22    1    1    2    0    0 -0.35848552196E+03 -0.26905348367E+03  0.42721556342E+02  0.45025190494E+03  0.00000000000E+00 0. -1.
<mgrwt>
<rscale>  0 0.91408061E+03</rscale>
<asrwt>0</asrwt>
<pdfrwt beam="1">  1        2 0.54920678E-01 0.91408061E+03</pdfrwt>
<pdfrwt beam="2">  1       -2 0.90021533E-01 0.91408061E+03</pdfrwt>
<totfact> 0.95760159E+01</totfact>
</mgrwt>
</event>
<event>
 6    1  0.2015029E-005  0.3704422E+04  0.7818608E-02  0.8066983E-01
         -1   -1    0    0    0  501 -0.00000000000E+00  0.00000000000E+00  0.10525776737E+04  0.10525776737E+04  0.00000000000E+00 0.  1.
          1   -1    0    0  501    0  0.00000000000E+00 -0.00000000000E+00 -0.32593175497E+04  0.32593175497E+04  0.00000000000E+00 0. -1.
         23    2    1    2    0    0 -0.14585913152E+04  0.99956609073E+03 -0.46531518480E+03  0.18301255020E+04  0.78867846372E+02 0.  0.
         11    1    3    3    0    0 -0.34031051204E+03  0.21301765956E+03 -0.76306099492E+02  0.40866904544E+03  0.00000000000E+00 0. -1.
        -11    1    3    3    0    0 -0.11182808032E+04  0.78654843118E+03 -0.38900908530E+03  0.14214564565E+04  0.00000000000E+00 0.  1.
         22    1    1    2    0    0  0.14585913152E+04 -0.99956609073E+03 -0.17414246912E+04  0.24817697214E+04  0.00000000000E+00 0. -1.
<mgrwt>
<rscale>  0 0.37044216E+04</rscale>
<asrwt>0</asrwt>
<pdfrwt beam="1">  1        1 0.50143346E+00 0.37044216E+04</pdfrwt>
<pdfrwt beam="2">  1       -1 0.16193503E+00 0.37044216E+04</pdfrwt>
<totfact> 0.86807230E-02</totfact>
</mgrwt>
</event>
<event>
 6    1  0.1588846E-005  0.1544567E+04  0.7818608E-02  0.8855346E-01
         -2   -1    0    0    0  501 -0.00000000000E+00  0.00000000000E+00  0.59653743790E+03  0.59653743790E+03  0.00000000000E+00 0.  1.
          2   -1    0    0  501    0  0.00000000000E+00 -0.00000000000E+00 -0.99980619324E+03  0.99980619324E+03  0.00000000000E+00 0. -1.
         23    2    1    2    0    0  0.26679259806E+01 -0.49790342395E+03 -0.80918909343E+03  0.95393701670E+03  0.85404364556E+02 0.  0.
         11    1    3    3    0    0 -0.93482388740E+01 -0.16279813444E+03 -0.19519896293E+03  0.25434869230E+03  0.00000000000E+00 0.  1.
        -11    1    3    3    0    0  0.12016164855E+02 -0.33510528952E+03 -0.61399013050E+03  0.69958832440E+03  0.00000000000E+00 0. -1.
         22    1    1    2    0    0 -0.26679259806E+01  0.49790342395E+03  0.40592033808E+03  0.64240661445E+03  0.00000000000E+00 0.  1.
<mgrwt>
<rscale>  0 0.15445670E+04</rscale>
<asrwt>0</asrwt>
<pdfrwt beam="1">  1        2 0.15381633E+00 0.15445670E+04</pdfrwt>
<pdfrwt beam="2">  1       -2 0.91774992E-01 0.15445670E+04</pdfrwt>
<totfact> 0.24513226E+01</totfact>
</mgrwt>
</event>
<event>
 6    1  0.1588846E-005  0.3561839E+04  0.7818608E-02  0.8099289E-01
         -2   -1    0    0    0  501 -0.00000000000E+00  0.00000000000E+00  0.20698101236E+04  0.20698101236E+04  0.00000000000E+00 0. -1.
          2   -1    0    0  501    0  0.00000000000E+00 -0.00000000000E+00 -0.15323502349E+04  0.15323502349E+04  0.00000000000E+00 0.  1.
         23    2    1    2    0    0 -0.74348360420E+03  0.25683491627E+03  0.18834444091E+04  0.20431842929E+04  0.92234314320E+02 0.  0.
         13    1    3    3    0    0 -0.19772817810E+03  0.33838997452E+02  0.41990920762E+03  0.46536571941E+03  0.00000000000E+00 0. -1.
        -13    1    3    3    0    0 -0.54575542610E+03  0.22299591882E+03  0.14635352015E+04  0.15778185735E+04  0.00000000000E+00 0.  1.
         22    1    1    2    0    0  0.74348360420E+03 -0.25683491627E+03 -0.13459845204E+04  0.15589760656E+04  0.00000000000E+00 0.  1.
<mgrwt>
<rscale>  0 0.35618389E+04</rscale>
<asrwt>0</asrwt>
<pdfrwt beam="1">  1        2 0.23574619E+00 0.35618389E+04</pdfrwt>
<pdfrwt beam="2">  1       -2 0.31843233E+00 0.35618389E+04</pdfrwt>
<totfact> 0.24359418E-01</totfact>
</mgrwt>
</event>
<event>
 6    1  0.1588846E-005  0.3150625E+04  0.7818608E-02  0.8201980E-01
          1   -1    0    0  501    0  0.00000000000E+00  0.00000000000E+00  0.10265952199E+04  0.10265952199E+04  0.00000000000E+00 0. -1.
         -1   -1    0    0    0  501 -0.00000000000E+00 -0.00000000000E+00 -0.24173199512E+04  0.24173199512E+04  0.00000000000E+00 0.  1.
         23    2    1    2    0    0  0.25578084495E+02 -0.15601444247E+04 -0.46980044399E+03  0.16320635195E+04  0.90631176134E+02 0.  0.
         11    1    3    3    0    0 -0.32728045957E+02 -0.38840027772E+03 -0.11424626396E+03  0.40617497406E+03  0.00000000000E+00 0.  1.
        -11    1    3    3    0    0  0.58306130452E+02 -0.11717441470E+04 -0.35555418003E+03  0.12258885454E+04  0.00000000000E+00 0. -1.
         22    1    1    2    0    0 -0.25578084495E+02  0.15601444247E+04 -0.92092428733E+03  0.18118516516E+04  0.00000000000E+00 0.  1.
<mgrwt>
<rscale>  0 0.31506248E+04</rscale>
<asrwt>0</asrwt>
<pdfrwt beam="1">  1        1 0.15793773E+00 0.31506248E+04</pdfrwt>
<pdfrwt beam="2">  1       -1 0.37189537E+00 0.31506248E+04</pdfrwt>
<totfact> 0.13441835E-01</totfact>
</mgrwt>
</event>
<event>
 6    1  0.1588846E-005  0.1078573E+04  0.7818608E-02  0.9226332E-01
         -2   -1    0    0    0  501 -0.00000000000E+00  0.00000000000E+00  0.20820323646E+03  0.20820323646E+03  0.00000000000E+00 0. -1.
          2   -1    0    0  501    0  0.00000000000E+00 -0.00000000000E+00 -0.13968556436E+04  0.13968556436E+04  0.00000000000E+00 0.  1.
         23    2    1    2    0    0  0.41618296204E+03 -0.72090383075E+02 -0.10766340320E+03  0.44448035714E+03  0.86983321833E+02 0.  0.
         13    1    3    3    0    0  0.37209619496E+03 -0.38857521538E+02 -0.10754710664E+03  0.38927094090E+03  0.00000000000E+00 0. -1.
        -13    1    3    3    0    0  0.44086767080E+02 -0.33232861537E+02 -0.11629656607E+00  0.55209416248E+02  0.00000000000E+00 0.  1.
         22    1    1    2    0    0 -0.41618296204E+03  0.72090383075E+02 -0.10809890039E+04  0.11605785229E+04  0.00000000000E+00 0.  1.
<mgrwt>
<rscale>  0 0.10785729E+04</rscale>
<asrwt>0</asrwt>
<pdfrwt beam="1">  1        2 0.21490087E+00 0.10785729E+04</pdfrwt>
<pdfrwt beam="2">  1       -2 0.32031267E-01 0.10785729E+04</pdfrwt>
<totfact> 0.13084797E+02</totfact>
</mgrwt>
</event>
<event>
 6    1  0.1588846E-005  0.5445229E+03  0.7818608E-02  0.1002770E+00
         -3   -1    0    0    0  501 -0.00000000000E+00  0.00000000000E+00  0.15610145765E+03  0.15610145765E+03  0.00000000000E+00 0.  1.
          3   -1    0    0  501    0  0.00000000000E+00 -0.00000000000E+00 -0.47485966454E+03  0.47485966454E+03  0.00000000000E+00 0. -1.
         23    2    1    2    0    0  0.40698720085E+02  0.80596674059E+02  0.12473246781E+03  0.17837280126E+03  0.90035870726E+02 0.  0.
         13    1    3    3    0    0 -0.11539569984E+02  0.69630792711E+02  0.91259651921E+02  0.11536868309E+03  0.00000000000E+00 0.  1.
        -13    1    3    3    0    0  0.52238290068E+02  0.10965881348E+02  0.33472815893E+02  0.63004118173E+02  0.00000000000E+00 0. -1.
         22    1    1    2    0    0 -0.40698720085E+02 -0.80596674059E+02 -0.44349067471E+03  0.45258832093E+03  0.00000000000E+00 0. -1.
<mgrwt>
<rscale>  0 0.54452286E+03</rscale>
<asrwt>0</asrwt>
<pdfrwt beam="1">  1        3 0.73055334E-01 0.54452286E+03</pdfrwt>
<pdfrwt beam="2">  1       -3 0.24015609E-01 0.54452286E+03</pdfrwt>
<totfact> 0.76569727E+01</totfact>
</mgrwt>
</event>
<event>
 6    1  0.1588846E-005  0.1650424E+04  0.7818608E-02  0.8790155E-01
         -2   -1    0    0    0  501 -0.00000000000E+00  0.00000000000E+00  0.40862996715E+03  0.40862996715E+03  0.00000000000E+00 0.  1.
          2   -1    0    0  501    0  0.00000000000E+00 -0.00000000000E+00 -0.16664835825E+04  0.16664835825E+04  0.00000000000E+00 0. -1.
         23    2    1    2    0    0 -0.55340737407E+03  0.56540821548E+03 -0.91445559393E+03  0.12126355076E+04  0.91157387619E+02 0.  0.
         11    1    3    3    0    0 -0.12461739355E+03  0.88025957802E+02 -0.14204980843E+03  0.20846153625E+03  0.00000000000E+00 0.  1.
        -11    1    3    3    0    0 -0.42878998052E+03  0.47738225767E+03 -0.77240578550E+03  0.10041739714E+04  0.00000000000E+00 0. -1.
         22    1    1    2    0    0  0.55340737407E+03 -0.56540821548E+03 -0.34339802138E+03  0.86247804198E+03  0.00000000000E+00 0.  1.
<mgrwt>
<rscale>  0 0.16504243E+04</rscale>
<asrwt>0</asrwt>
<pdfrwt beam="1">  1        2 0.25638209E+00 0.16504243E+04</pdfrwt>
<pdfrwt beam="2">  1       -2 0.62866148E-01 0.16504243E+04</pdfrwt>
<totfact> 0.22931836E+01</totfact>
</mgrwt>
</event>
<event>
 6    1  0.1588846E-005  0.5776295E+03  0.7818608E-02  0.9952936E-01
         -1   -1    0    0    0  501 -0.00000000000E+00  0.00000000000E+00  0.91729947999E+02  0.91729947999E+02  0.00000000000E+00 0.  1.
          1   -1    0    0  501    0  0.00000000000E+00 -0.00000000000E+00 -0.90934260922E+03  0.90934260922E+03  0.00000000000E+00 0. -1.
         23    2    1    2    0    0  0.23763865683E+03 -0.70150797077E+02 -0.19382327481E+03  0.32987477403E+03  0.99280608053E+02 0.  0.
         13    1    3    3    0    0  0.78982524670E+02 -0.71941151600E+02 -0.61496085148E+02  0.12327017882E+03  0.00000000000E+00 0. -1.
        -13    1    3    3    0    0  0.15865613216E+03  0.17903545233E+01 -0.13232718966E+03  0.20660459522E+03  0.00000000000E+00 0.  1.
         22    1    1    2    0    0 -0.23763865683E+03  0.70150797077E+02 -0.62378938641E+03  0.67119778318E+03  0.00000000000E+00 0. -1.
<mgrwt>
<rscale>  0 0.57762947E+03</rscale>
<asrwt>0</asrwt>
<pdfrwt beam="1">  1        1 0.13989886E+00 0.57762947E+03</pdfrwt>
<pdfrwt beam="2">  1       -1 0.14112300E-01 0.57762947E+03</pdfrwt>
<totfact> 0.65786475E+02</totfact>
</mgrwt>
</event>
<event>
 6    1  0.1588846E-005  0.2019823E+04  0.7818608E-02  0.8597409E-01
         -2   -1    0    0    0  501 -0.00000000000E+00  0.00000000000E+00  0.74133671053E+03  0.74133671053E+03  0.00000000000E+00 0. -1.
          2   -1    0    0  501    0  0.00000000000E+00 -0.00000000000E+00 -0.13757865243E+04  0.13757865243E+04  0.00000000000E+00 0.  1.
         23    2    1    2    0    0 -0.95567858817E+03 -0.11543169471E+03 -0.46341724671E+01  0.96676947096E+03  0.89306743352E+02 0.  0.
         13    1    3    3    0    0 -0.69399219738E+03 -0.96228727627E+02  0.34481271798E+02  0.70147993282E+03  0.00000000000E+00 0.  1.
        -13    1    3    3    0    0 -0.26168639078E+03 -0.19202967078E+02 -0.39115444265E+02  0.26528953814E+03  0.00000000000E+00 0. -1.
         22    1    1    2    0    0  0.95567858817E+03  0.11543169471E+03 -0.62981564132E+03  0.11503537639E+04  0.00000000000E+00 0. -1.
<mgrwt>
<rscale>  0 0.20198228E+04</rscale>
<asrwt>0</asrwt>
<pdfrwt beam="1">  1        2 0.21165946E+00 0.20198228E+04</pdfrwt>
<pdfrwt beam="2">  1       -2 0.11405180E+00 0.20198228E+04</pdfrwt>
<totfact> 0.83404333E+00</totfact>
</mgrwt>
</event>
<event>
 6    1  0.1588846E-005  0.3545477E+04  0.7818608E-02  0.8103096E-01
         -2   -1    0    0    0  501 -0.00000000000E+00  0.00000000000E+00  0.93997978114E+03  0.93997978114E+03  0.00000000000E+00 0.  1.
          2   -1    0    0  501    0  0.00000000000E+00 -0.00000000000E+00 -0.33432652600E+04  0.33432652600E+04  0.00000000000E+00 0. -1.
         23    2    1    2    0    0  0.51547944458E+03  0.16797977407E+04 -0.14745022750E+04  0.22957647904E+04  0.94548962503E+02 0.  0.
         11    1    3    3    0    0  0.19007100429E+03  0.62804165495E+03 -0.61075356771E+03  0.89642803810E+03  0.00000000000E+00 0.  1.
        -11    1    3    3    0    0  0.32540844029E+03  0.10517560857E+04 -0.86374870728E+03  0.13993367523E+04  0.00000000000E+00 0. -1.
         22    1    1    2    0    0 -0.51547944458E+03 -0.16797977407E+04 -0.92878320381E+03  0.19874802507E+04  0.00000000000E+00 0.  1.
<mgrwt>
<rscale>  0 0.35454770E+04</rscale>
<asrwt>0</asrwt>
<pdfrwt beam="1">  1        2 0.51434850E+00 0.35454770E+04</pdfrwt>
<pdfrwt beam="2">  1       -2 0.14461227E+00 0.35454770E+04</pdfrwt>
<totfact> 0.28108007E-01</totfact>
</mgrwt>
</event>
<event>
 6    1  0.1588846E-005  0.2979824E+04  0.7818608E-02  0.8249516E-01
         -1   -1    0    0    0  501 -0.00000000000E+00  0.00000000000E+00  0.14090908472E+04  0.14090908472E+04  0.00000000000E+00 0.  1.
          1   -1    0    0  501    0  0.00000000000E+00 -0.00000000000E+00 -0.15753687054E+04  0.15753687054E+04  0.00000000000E+00 0. -1.
         23    2    1    2    0    0  0.15776225608E+03  0.11498502022E+04  0.85031406772E+03  0.14415714942E+04  0.89721469064E+02 0.  0.
         11    1    3    3    0    0  0.16464363331E+03  0.98162006214E+03  0.74009165613E+03  0.12403310574E+04  0.00000000000E+00 0. -1.
        -11    1    3    3    0    0 -0.68813772287E+01  0.16823014009E+03  0.11022241159E+03  0.20124043680E+03  0.00000000000E+00 0.  1.
         22    1    1    2    0    0 -0.15776225608E+03 -0.11498502022E+04 -0.10165919259E+04  0.15428880584E+04  0.00000000000E+00 0. -1.
<mgrwt>
<rscale>  0 0.29798239E+04</rscale>
<asrwt>0</asrwt>
<pdfrwt beam="1">  1        1 0.24236442E+00 0.29798239E+04</pdfrwt>
<pdfrwt beam="2">  1       -1 0.21678321E+00 0.29798239E+04</pdfrwt>
<totfact> 0.57217160E-01</totfact>
</mgrwt>
</event>
<event>
 6    1  0.1588846E-005  0.1877850E+04  0.7818608E-02  0.8665961E-01
          1   -1    0    0  501    0  0.00000000000E+00  0.00000000000E+00  0.10708755473E+04  0.10708755473E+04  0.00000000000E+00 0. -1.
         -1   -1    0    0    0  501 -0.00000000000E+00 -0.00000000000E+00 -0.82323281493E+03  0.82323281493E+03  0.00000000000E+00 0.  1.
         23    2    1    2    0    0  0.67194539838E+03 -0.35446921997E+03 -0.42857858969E+03  0.87703691796E+03  0.91406244931E+02 0.  0.
         11    1    3    3    0    0  0.20941807819E+03 -0.10757300253E+03 -0.18238777102E+03  0.29781400465E+03  0.00000000000E+00 0. -1.
        -11    1    3    3    0    0  0.46252732019E+03 -0.24689621744E+03 -0.24619081867E+03  0.57922291331E+03  0.00000000000E+00 0.  1.
         22    1    1    2    0    0 -0.67194539838E+03  0.35446921997E+03  0.67622132203E+03  0.10170714442E+04  0.00000000000E+00 0. -1.
<mgrwt>
<rscale>  0 0.18778497E+04</rscale>
<asrwt>0</asrwt>
<pdfrwt beam="1">  1        1 0.16475008E+00 0.18778497E+04</pdfrwt>
<pdfrwt beam="2">  1       -1 0.12665120E+00 0.18778497E+04</pdfrwt>
<totfact> 0.67730372E+00</totfact>
</mgrwt>
</event>
<event>
 6    1  0.1588846E-005  0.1880986E+04  0.7818608E-02  0.8664379E-01
          2   -1    0    0  501    0  0.00000000000E+00  0.00000000000E+00  0.66619642566E+03  0.66619642566E+03  0.00000000000E+00 0.  1.
         -2   -1    0    0    0  501 -0.00000000000E+00 -0.00000000000E+00 -0.13277272309E+04  0.13277272309E+04  0.00000000000E+00 0. -1.
         23    2    1    2    0    0  0.15529435797E+03 -0.83023589738E+03 -0.76465530361E+03  0.11430167021E+04  0.91550341335E+02 0.  0.
         11    1    3    3    0    0  0.44374571825E+02 -0.32318530510E+03 -0.23991414626E+03  0.40494029391E+03  0.00000000000E+00 0.  1.
        -11    1    3    3    0    0  0.11091978614E+03 -0.50705059228E+03 -0.52474115735E+03  0.73807640818E+03  0.00000000000E+00 0. -1.
         22    1    1    2    0    0 -0.15529435797E+03  0.83023589738E+03  0.10312449841E+03  0.85090695442E+03  0.00000000000E+00 0. -1.
<mgrwt>
<rscale>  0 0.18809861E+04</rscale>
<asrwt>0</asrwt>
<pdfrwt beam="1">  1        2 0.10249176E+00 0.18809861E+04</pdfrwt>
<pdfrwt beam="2">  1       -2 0.20426572E+00 0.18809861E+04</pdfrwt>
<totfact> 0.50978802E+00</totfact>
</mgrwt>
</event>
<event>
 6    1  0.1588846E-005  0.3036833E+04  0.7818608E-02  0.8233290E-01
         -1   -1    0    0    0  501 -0.00000000000E+00  0.00000000000E+00  0.64927041000E+03  0.64927041000E+03  0.00000000000E+00 0.  1.
          1   -1    0    0  501    0  0.00000000000E+00 -0.00000000000E+00 -0.35510460137E+04  0.35510460137E+04  0.00000000000E+00 0. -1.
         23    2    1    2    0    0 -0.11773694237E+04  0.12554096276E+02 -0.12909675305E+03  0.11879910140E+04  0.91106050385E+02 0.  0.
         13    1    3    3    0    0 -0.70654670426E+03 -0.35057152455E+02 -0.90813437793E+02  0.71322109455E+03  0.00000000000E+00 0.  1.
        -13    1    3    3    0    0 -0.47082271946E+03  0.47611248731E+02 -0.38283315258E+02  0.47476991943E+03  0.00000000000E+00 0. -1.
         22    1    1    2    0    0  0.11773694237E+04 -0.12554096276E+02 -0.27726788507E+04  0.30123254097E+04  0.00000000000E+00 0. -1.
<mgrwt>
<rscale>  0 0.30368333E+04</rscale>
<asrwt>0</asrwt>
<pdfrwt beam="1">  1        1 0.54631477E+00 0.30368333E+04</pdfrwt>
<pdfrwt beam="2">  1       -1 0.99887756E-01 0.30368333E+04</pdfrwt>
<totfact> 0.18438913E-01</totfact>
</mgrwt>
</event>
<event>
 6    1  0.1588846E-005  0.2823242E+04  0.7818608E-02  0.8296089E-01
          2   -1    0    0  501    0  0.00000000000E+00  0.00000000000E+00  0.96659369877E+03  0.96659369877E+03  0.00000000000E+00 0. -1.
         -2   -1    0    0    0  501 -0.00000000000E+00 -0.00000000000E+00 -0.20615416886E+04  0.20615416886E+04  0.00000000000E+00 0.  1.
         23    2    1    2    0    0 -0.34742070136E+03  0.78826592991E+03 -0.17455304574E+04  0.19486346384E+04  0.90752720162E+02 0.  0.
         11    1    3    3    0    0 -0.19235523991E+03  0.35070245198E+03 -0.87385620179E+03  0.96105015975E+03  0.00000000000E+00 0.  1.
        -11    1    3    3    0    0 -0.15506546145E+03  0.43756347792E+03 -0.87167425559E+03  0.98758447862E+03  0.00000000000E+00 0. -1.
         22    1    1    2    0    0  0.34742070136E+03 -0.78826592991E+03  0.65058246756E+03  0.10795007490E+04  0.00000000000E+00 0. -1.
<mgrwt>
<rscale>  0 0.28232415E+04</rscale>
<asrwt>0</asrwt>
<pdfrwt beam="1">  1        2 0.14870673E+00 0.28232415E+04</pdfrwt>
<pdfrwt beam="2">  1       -2 0.31716025E+00 0.28232415E+04</pdfrwt>
<totfact> 0.57328050E-01</totfact>
</mgrwt>
</event>
<event>
 6    1  0.1588846E-005  0.1637519E+04  0.7818608E-02  0.8797824E-01
         -2   -1    0    0    0  501 -0.00000000000E+00  0.00000000000E+00  0.17407740715E+03  0.17407740715E+03  0.00000000000E+00 0.  1.
          2   -1    0    0  501    0  0.00000000000E+00 -0.00000000000E+00 -0.38509736473E+04  0.38509736473E+04  0.00000000000E+00 0. -1.
         23    2    1    2    0    0 -0.34495366760E+03 -0.57233070331E+03 -0.69194637606E+03  0.96621448512E+03  0.90692762529E+02 0.  0.
         11    1    3    3    0    0 -0.23995229544E+03 -0.44181031803E+03 -0.56304553460E+03  0.75484682898E+03  0.00000000000E+00 0. -1.
        -11    1    3    3    0    0 -0.10500137217E+03 -0.13052038528E+03 -0.12890084147E+03  0.21136765614E+03  0.00000000000E+00 0.  1.
         22    1    1    2    0    0  0.34495366760E+03  0.57233070331E+03 -0.29849498641E+04  0.30588365693E+04  0.00000000000E+00 0. -1.
<mgrwt>
<rscale>  0 0.16375195E+04</rscale>
<asrwt>0</asrwt>
<pdfrwt beam="1">  1        2 0.59245745E+00 0.16375195E+04</pdfrwt>
<pdfrwt beam="2">  1       -2 0.26781141E-01 0.16375195E+04</pdfrwt>
<totfact> 0.55202588E+00</totfact>
</mgrwt>
</event>
<event>
 6    1  0.1588846E-005  0.1985464E+04  0.7818608E-02  0.8613447E-01
          2   -1    0    0  501    0  0.00000000000E+00  0.00000000000E+00  0.15981499759E+04  0.15981499759E+04  0.00000000000E+00 0. -1.
         -2   -1    0    0    0  501 -0.00000000000E+00 -0.00000000000E+00 -0.61666098740E+03  0.61666098740E+03  0.00000000000E+00 0.  1.
         23    2    1    2    0    0  0.30120436497E+03  0.14662153030E+03 -0.54798080576E+03  0.64908436068E+03  0.93838164811E+02 0.  0.
         13    1    3    3    0    0  0.11645076432E+03  0.93801869291E+01 -0.20717863605E+03  0.23784817774E+03  0.00000000000E+00 0. -1.
        -13    1    3    3    0    0  0.18475360065E+03  0.13724134337E+03 -0.34080216971E+03  0.41123618294E+03  0.00000000000E+00 0.  1.
         22    1    1    2    0    0 -0.30120436497E+03 -0.14662153030E+03  0.15294697942E+04  0.15657266026E+04  0.00000000000E+00 0. -1.
<mgrwt>
<rscale>  0 0.19854639E+04</rscale>
<asrwt>0</asrwt>
<pdfrwt beam="1">  1        2 0.24586923E+00 0.19854639E+04</pdfrwt>
<pdfrwt beam="2">  1       -2 0.94870922E-01 0.19854639E+04</pdfrwt>
<totfact> 0.97221409E+00</totfact>
</mgrwt>
</event>
<event>
 6    1  0.1588846E-005  0.3684441E+04  0.7818608E-02  0.8071419E-01
         -2   -1    0    0    0  501 -0.00000000000E+00  0.00000000000E+00  0.15833318762E+04  0.15833318762E+04  0.00000000000E+00 0.  1.
          2   -1    0    0  501    0  0.00000000000E+00 -0.00000000000E+00 -0.21434400659E+04  0.21434400659E+04  0.00000000000E+00 0. -1.
         23    2    1    2    0    0 -0.28615585212E+03  0.16911556399E+04  0.39619712077E+03  0.17629968997E+04  0.96401970602E+02 0.  0.
         11    1    3    3    0    0 -0.23713484838E+03  0.11845139466E+04  0.30438074160E+03  0.12457744025E+04  0.00000000000E+00 0. -1.
        -11    1    3    3    0    0 -0.49021003741E+02  0.50664169330E+03  0.91816379168E+02  0.51722249727E+03  0.00000000000E+00 0.  1.
         22    1    1    2    0    0  0.28615585212E+03 -0.16911556399E+04 -0.95630531051E+03  0.19637750424E+04  0.00000000000E+00 0. -1.
<mgrwt>
<rscale>  0 0.36844413E+04</rscale>
<asrwt>0</asrwt>
<pdfrwt beam="1">  1        2 0.32976001E+00 0.36844413E+04</pdfrwt>
<pdfrwt beam="2">  1       -2 0.24358952E+00 0.36844413E+04</pdfrwt>
<totfact> 0.31653757E-01</totfact>
</mgrwt>
</event>
<event>
 6    1  0.1588846E-005  0.2971304E+04  0.7818608E-02  0.8251973E-01
         -2   -1    0    0    0  501 -0.00000000000E+00  0.00000000000E+00  0.16800601309E+04  0.16800601309E+04  0.00000000000E+00 0.  1.
          2   -1    0    0  501    0  0.00000000000E+00 -0.00000000000E+00 -0.13137402270E+04  0.13137402270E+04  0.00000000000E+00 0. -1.
         23    2    1    2    0    0 -0.41164611808E+03 -0.14139655903E+04  0.37064902089E+03  0.15211259342E+04  0.87705152164E+02 0.  0.
         13    1    3    3    0    0 -0.30615673252E+03 -0.95497512275E+03  0.22041337000E+03  0.10267869709E+04  0.00000000000E+00 0.  1.
        -13    1    3    3    0    0 -0.10548938556E+03 -0.45899046759E+03  0.15023565090E+03  0.49433896326E+03  0.00000000000E+00 0. -1.
         22    1    1    2    0    0  0.41164611808E+03  0.14139655903E+04 -0.43291170057E+01  0.14726744238E+04  0.00000000000E+00 0.  1.
<mgrwt>
<rscale>  0 0.29713045E+04</rscale>
<asrwt>0</asrwt>
<pdfrwt beam="1">  1        2 0.20211388E+00 0.29713045E+04</pdfrwt>
<pdfrwt beam="2">  1       -2 0.25847079E+00 0.29713045E+04</pdfrwt>
<totfact> 0.79386017E-01</totfact>
</mgrwt>
</event>
<event>
 6    1  0.1588846E-005  0.1837351E+04  0.7818608E-02  0.8686685E-01
          1   -1    0    0  501    0  0.00000000000E+00  0.00000000000E+00  0.41225406901E+03  0.41225406901E+03  0.00000000000E+00 0. -1.
         -1   -1    0    0    0  501 -0.00000000000E+00 -0.00000000000E+00 -0.20471957137E+04  0.20471957137E+04  0.00000000000E+00 0.  1.
         23    2    1    2    0    0  0.30208491146E+03  0.85037656074E+03 -0.60505299999E+03  0.10901192130E+04  0.88742193286E+02 0.  0.
         13    1    3    3    0    0  0.17066308356E+03  0.35556708934E+03 -0.24681019675E+03  0.46526241663E+03  0.00000000000E+00 0. -1.
        -13    1    3    3    0    0  0.13142182790E+03  0.49480947140E+03 -0.35824280324E+03  0.62485679632E+03  0.00000000000E+00 0.  1.
         22    1    1    2    0    0 -0.30208491146E+03 -0.85037656074E+03 -0.10298886447E+04  0.13693305697E+04  0.00000000000E+00 0.  1.
<mgrwt>
<rscale>  0 0.18373511E+04</rscale>
<asrwt>0</asrwt>
<pdfrwt beam="1">  1        1 0.63423705E-01 0.18373511E+04</pdfrwt>
<pdfrwt beam="2">  1       -1 0.31495318E+00 0.18373511E+04</pdfrwt>
<totfact> 0.14330248E+00</totfact>
</mgrwt>
</event>
<event>
 6    1  0.1588846E-005  0.3930773E+04  0.7818608E-02  0.8018659E-01
         -2   -1    0    0    0  501 -0.00000000000E+00  0.00000000000E+00  0.28068135685E+04  0.28068135685E+04  0.00000000000E+00 0. -1.
          2   -1    0    0  501    0  0.00000000000E+00 -0.00000000000E+00 -0.13762023882E+04  0.13762023882E+04  0.00000000000E+00 0.  1.
         23    2    1    2    0    0 -0.18102566983E+04  0.76245766825E+03  0.70305393926E+03  0.20883296917E+04  0.92005706294E+02 0.  0.
         11    1    3    3    0    0 -0.15132581197E+04  0.60311188704E+03  0.59763088758E+03  0.17351820547E+04  0.00000000000E+00 0.  1.
        -11    1    3    3    0    0 -0.29699857861E+03  0.15934578121E+03  0.10542305167E+03  0.35314763699E+03  0.00000000000E+00 0. -1.
         22    1    1    2    0    0  0.18102566983E+04 -0.76245766825E+03  0.72755724109E+03  0.20946862650E+04  0.00000000000E+00 0. -1.
<mgrwt>
<rscale>  0 0.39307727E+04</rscale>
<asrwt>0</asrwt>
<pdfrwt beam="1">  1        2 0.21172345E+00 0.39307727E+04</pdfrwt>
<pdfrwt beam="2">  1       -2 0.43181747E+00 0.39307727E+04</pdfrwt>
<totfact> 0.54230991E-02</totfact>
</mgrwt>
</event>
<event>
 6    1  0.1588846E-005  0.1976390E+04  0.7818608E-02  0.8617740E-01
         -1   -1    0    0    0  501 -0.00000000000E+00  0.00000000000E+00  0.63782902550E+03  0.63782902550E+03  0.00000000000E+00 0.  1.
          1   -1    0    0  501    0  0.00000000000E+00 -0.00000000000E+00 -0.15310199447E+04  0.15310199447E+04  0.00000000000E+00 0. -1.
         23    2    1    2    0    0  0.67717987200E+02  0.94122153768E+02 -0.15221345036E+04  0.15293063696E+04  0.91868489332E+02 0.  0.
         11    1    3    3    0    0 -0.57720610116E+01 -0.42584917804E+01 -0.46624437338E+03  0.46629954658E+03  0.00000000000E+00 0. -1.
        -11    1    3    3    0    0  0.73490048212E+02  0.98380645548E+02 -0.10558901302E+04  0.10630068230E+04  0.00000000000E+00 0.  1.
         22    1    1    2    0    0 -0.67717987200E+02 -0.94122153768E+02  0.62894358441E+03  0.63954260061E+03  0.00000000000E+00 0.  1.
<mgrwt>
<rscale>  0 0.19763896E+04</rscale>
<asrwt>0</asrwt>
<pdfrwt beam="1">  1        1 0.23554153E+00 0.19763896E+04</pdfrwt>
<pdfrwt beam="2">  1       -1 0.98127543E-01 0.19763896E+04</pdfrwt>
<totfact> 0.57586426E+00</totfact>
</mgrwt>
</event>
<event>
 6    1  0.1588846E-005  0.1736076E+04  0.7818608E-02  0.8741052E-01
          2   -1    0    0  501    0  0.00000000000E+00  0.00000000000E+00  0.14014830895E+04  0.14014830895E+04  0.00000000000E+00 0. -1.
         -2   -1    0    0    0  501 -0.00000000000E+00 -0.00000000000E+00 -0.53763757230E+03  0.53763757230E+03  0.00000000000E+00 0.  1.
         23    2    1    2    0    0  0.76286082855E+03  0.40890445924E+03  0.45253978015E+03  0.98082430372E+03  0.89802904292E+02 0.  0.
         13    1    3    3    0    0  0.45383410507E+03  0.27636550732E+03  0.31360233751E+03  0.61700057913E+03  0.00000000000E+00 0.  1.
        -13    1    3    3    0    0  0.30902672348E+03  0.13253895192E+03  0.13893744264E+03  0.36382372459E+03  0.00000000000E+00 0. -1.
         22    1    1    2    0    0 -0.76286082855E+03 -0.40890445924E+03  0.41130573700E+03  0.95829635803E+03  0.00000000000E+00 0. -1.
<mgrwt>
<rscale>  0 0.17360760E+04</rscale>
<asrwt>0</asrwt>
<pdfrwt beam="1">  1        2 0.21561278E+00 0.17360760E+04</pdfrwt>
<pdfrwt beam="2">  1       -2 0.82713474E-01 0.17360760E+04</pdfrwt>
<totfact> 0.17568335E+01</totfact>
</mgrwt>
</event>
<event>
 6    1  0.1588846E-005  0.3660556E+04  0.7818608E-02  0.8076760E-01
         -2   -1    0    0    0  501 -0.00000000000E+00  0.00000000000E+00  0.16455045839E+04  0.16455045839E+04  0.00000000000E+00 0.  1.
          2   -1    0    0  501    0  0.00000000000E+00 -0.00000000000E+00 -0.20357991756E+04  0.20357991756E+04  0.00000000000E+00 0. -1.
         23    2    1    2    0    0  0.40924736634E+03  0.15685388764E+04  0.65689390935E+03  0.17514329424E+04  0.90609767721E+02 0.  0.
         13    1    3    3    0    0  0.12974184726E+03  0.67440741369E+03  0.27577309089E+03  0.74007371540E+03  0.00000000000E+00 0.  1.
        -13    1    3    3    0    0  0.27950551908E+03  0.89413146274E+03  0.38112081847E+03  0.10113592270E+04  0.00000000000E+00 0. -1.
         22    1    1    2    0    0 -0.40924736634E+03 -0.15685388764E+04 -0.10471885011E+04  0.19298708171E+04  0.00000000000E+00 0.  1.
<mgrwt>
<rscale>  0 0.36605556E+04</rscale>
<asrwt>0</asrwt>
<pdfrwt beam="1">  1        2 0.31319987E+00 0.36605556E+04</pdfrwt>
<pdfrwt beam="2">  1       -2 0.25315455E+00 0.36605556E+04</pdfrwt>
<totfact> 0.31807097E-01</totfact>
</mgrwt>
</event>
<event>
 6    1  0.1588846E-005  0.4877671E+04  0.7818608E-02  0.7847660E-01
          2   -1    0    0  501    0  0.00000000000E+00  0.00000000000E+00  0.37372516847E+04  0.37372516847E+04  0.00000000000E+00 0. -1.
         -2   -1    0    0    0  501 -0.00000000000E+00 -0.00000000000E+00 -0.15915222049E+04  0.15915222049E+04  0.00000000000E+00 0.  1.
         23    2    1    2    0    0  0.77596753805E+03  0.70440299700E+03 -0.13316156760E+04  0.16969370905E+04  0.89922068271E+02 0.  0.
         13    1    3    3    0    0  0.54813158969E+03  0.45765019724E+03 -0.95276900966E+03  0.11906555877E+04  0.00000000000E+00 0.  1.
        -13    1    3    3    0    0  0.22783594835E+03  0.24675279976E+03 -0.37884666631E+03  0.50628150285E+03  0.00000000000E+00 0. -1.
         22    1    1    2    0    0 -0.77596753805E+03 -0.70440299700E+03  0.34773451558E+04  0.36318367990E+04  0.00000000000E+00 0. -1.
<mgrwt>
<rscale>  0 0.48776712E+04</rscale>
<asrwt>0</asrwt>
<pdfrwt beam="1">  1        2 0.57496179E+00 0.48776712E+04</pdfrwt>
<pdfrwt beam="2">  1       -2 0.24484957E+00 0.48776712E+04</pdfrwt>
<totfact> 0.27748589E-02</totfact>
</mgrwt>
</event>
<event>
 6    1  0.1588846E-005  0.9384783E+03  0.7818608E-02  0.9378720E-01
         -2   -1    0    0    0  501 -0.00000000000E+00  0.00000000000E+00  0.28249007736E+03  0.28249007736E+03  0.00000000000E+00 0. -1.
          2   -1    0    0  501    0  0.00000000000E+00 -0.00000000000E+00 -0.77944457055E+03  0.77944457055E+03  0.00000000000E+00 0.  1.
         23    2    1    2    0    0  0.64411855431E+02  0.44932342431E+03 -0.36643759615E+03  0.58962639353E+03  0.85687486365E+02 0.  0.
         13    1    3    3    0    0  0.31050329277E+02  0.40653141369E+02 -0.51675933402E+02  0.72713155236E+02  0.00000000000E+00 0. -1.
        -13    1    3    3    0    0  0.33361526154E+02  0.40867028294E+03 -0.31476166275E+03  0.51691323829E+03  0.00000000000E+00 0.  1.
         22    1    1    2    0    0 -0.64411855431E+02 -0.44932342431E+03 -0.13051689703E+03  0.47230825439E+03  0.00000000000E+00 0. -1.
<mgrwt>
<rscale>  0 0.93847825E+03</rscale>
<asrwt>0</asrwt>
<pdfrwt beam="1">  1        2 0.11991455E+00 0.93847825E+03</pdfrwt>
<pdfrwt beam="2">  1       -2 0.43460012E-01 0.93847825E+03</pdfrwt>
<totfact> 0.17917255E+02</totfact>
</mgrwt>
</event>
<event>
 6    1  0.1588846E-005  0.2328100E+04  0.7818608E-02  0.8466923E-01
         -1   -1    0    0    0  501 -0.00000000000E+00  0.00000000000E+00  0.22598195611E+04  0.22598195611E+04  0.00000000000E+00 0.  1.
          1   -1    0    0  501    0  0.00000000000E+00 -0.00000000000E+00 -0.59961092796E+03  0.59961092796E+03  0.00000000000E+00 0. -1.
         23    2    1    2    0    0 -0.25188603277E+03 -0.37648247159E+03 -0.48328351197E+03  0.66859863767E+03  0.90970107343E+02 0.  0.
         13    1    3    3    0    0 -0.23724578187E+03 -0.37702925998E+03 -0.45507349982E+03  0.63681120761E+03  0.00000000000E+00 0.  1.
        -13    1    3    3    0    0 -0.14640250895E+02  0.54678839838E+00 -0.28210012157E+02  0.31787430059E+02  0.00000000000E+00 0. -1.
         22    1    1    2    0    0  0.25188603277E+03  0.37648247159E+03  0.21434921451E+04  0.21908318514E+04  0.00000000000E+00 0.  1.
<mgrwt>
<rscale>  0 0.23281001E+04</rscale>
<asrwt>0</asrwt>
<pdfrwt beam="1">  1        1 0.92247836E-01 0.23281001E+04</pdfrwt>
<pdfrwt beam="2">  1       -1 0.34766454E+00 0.23281001E+04</pdfrwt>
<totfact> 0.49800789E-01</totfact>
</mgrwt>
</event>
<event>
 6    1  0.1588846E-005  0.2531568E+04  0.7818608E-02  0.8391825E-01
          1   -1    0    0  501    0  0.00000000000E+00  0.00000000000E+00  0.77230525481E+03  0.77230525481E+03  0.00000000000E+00 0. -1.
         -1   -1    0    0    0  501 -0.00000000000E+00 -0.00000000000E+00 -0.20745796989E+04  0.20745796989E+04  0.00000000000E+00 0.  1.
         23    2    1    2    0    0 -0.55367695852E+03  0.36960065552E+03 -0.18604657486E+04  0.19781270176E+04  0.92145954798E+02 0.  0.
         11    1    3    3    0    0 -0.36091123319E+03  0.18837605856E+03 -0.10957874337E+04  0.11689707257E+04  0.00000000000E+00 0. -1.
        -11    1    3    3    0    0 -0.19276572533E+03  0.18122459697E+03 -0.76467831490E+03  0.80915629188E+03  0.00000000000E+00 0.  1.
         22    1    1    2    0    0  0.55367695852E+03 -0.36960065552E+03  0.55819130458E+03  0.86875793606E+03  0.00000000000E+00 0. -1.
<mgrwt>
<rscale>  0 0.25315677E+04</rscale>
<asrwt>0</asrwt>
<pdfrwt beam="1">  1        1 0.11881619E+00 0.25315677E+04</pdfrwt>
<pdfrwt beam="2">  1       -1 0.31916611E+00 0.25315677E+04</pdfrwt>
<totfact> 0.51365112E-01</totfact>
</mgrwt>
</event>
<event>
 6    1  0.1588846E-005  0.2483646E+04  0.7818608E-02  0.8408835E-01
         -2   -1    0    0    0  501 -0.00000000000E+00  0.00000000000E+00  0.61538079742E+03  0.61538079742E+03  0.00000000000E+00 0.  1.
          2   -1    0    0  501    0  0.00000000000E+00 -0.00000000000E+00 -0.25059670327E+04  0.25059670327E+04  0.00000000000E+00 0. -1.
         23    2    1    2    0    0 -0.77720930595E+03  0.96321031328E+03 -0.85268094648E+03  0.15060844456E+04  0.96938887504E+02 0.  0.
         13    1    3    3    0    0 -0.61629448117E+03  0.71636493000E+03 -0.68399796109E+03  0.11665551042E+04  0.00000000000E+00 0. -1.
        -13    1    3    3    0    0 -0.16091482478E+03  0.24684538328E+03 -0.16868298539E+03  0.33952934136E+03  0.00000000000E+00 0.  1.
         22    1    1    2    0    0  0.77720930595E+03 -0.96321031328E+03 -0.10379052888E+04  0.16152633845E+04  0.00000000000E+00 0. -1.
<mgrwt>
<rscale>  0 0.24836457E+04</rscale>
<asrwt>0</asrwt>
<pdfrwt beam="1">  1        2 0.38553339E+00 0.24836457E+04</pdfrwt>
<pdfrwt beam="2">  1       -2 0.94673970E-01 0.24836457E+04</pdfrwt>
<totfact> 0.28972486E+00</totfact>
</mgrwt>
</event>
<event>
 6    1  0.1588846E-005  0.1397525E+04  0.7818608E-02  0.8955612E-01
         -1   -1    0    0    0  501 -0.00000000000E+00  0.00000000000E+00  0.63225681879E+03  0.63225681879E+03  0.00000000000E+00 0.  1.
          1   -1    0    0  501    0  0.00000000000E+00 -0.00000000000E+00 -0.77226346549E+03  0.77226346549E+03  0.00000000000E+00 0. -1.
         23    2    1    2    0    0  0.92438143370E+02 -0.29413185781E+03  0.55372428290E+03  0.64536222248E+03  0.12175161850E+03 0.  0.
         13    1    3    3    0    0  0.56454445527E+02 -0.14291581342E+03  0.39204112876E+03  0.42107989834E+03  0.00000000000E+00 0.  1.
        -13    1    3    3    0    0  0.35983697843E+02 -0.15121604439E+03  0.16168315413E+03  0.22428232414E+03  0.00000000000E+00 0. -1.
         22    1    1    2    0    0 -0.92438143370E+02  0.29413185781E+03 -0.69373092960E+03  0.75915806181E+03  0.00000000000E+00 0. -1.
<mgrwt>
<rscale>  0 0.13975247E+04</rscale>
<asrwt>0</asrwt>
<pdfrwt beam="1">  1        1 0.11880976E+00 0.13975247E+04</pdfrwt>
<pdfrwt beam="2">  1       -1 0.97270280E-01 0.13975247E+04</pdfrwt>
<totfact> 0.23167357E+01</totfact>
</mgrwt>
</event>
<event>
 6    1  0.1588846E-005  0.1398198E+04  0.7818608E-02  0.8955124E-01
          2   -1    0    0  501    0  0.00000000000E+00  0.00000000000E+00  0.82504940964E+03  0.82504940964E+03  0.00000000000E+00 0.  1.
         -2   -1    0    0    0  501 -0.00000000000E+00 -0.00000000000E+00 -0.59237571431E+03  0.59237571431E+03  0.00000000000E+00 0. -1.
         23    2    1    2    0    0 -0.23645111696E+03  0.95109318212E+02 -0.53996432317E+03  0.60383774649E+03  0.90020223663E+02 0.  0.
         13    1    3    3    0    0 -0.13933402174E+03  0.10189193503E+03 -0.35927824607E+03  0.39859351994E+03  0.00000000000E+00 0. -1.
        -13    1    3    3    0    0 -0.97117095216E+02 -0.67826168202E+01 -0.18068607710E+03  0.20524422655E+03  0.00000000000E+00 0.  1.
         22    1    1    2    0    0  0.23645111696E+03 -0.95109318212E+02  0.77263801851E+03  0.81358737746E+03  0.00000000000E+00 0.  1.
<mgrwt>
<rscale>  0 0.13981977E+04</rscale>
<asrwt>0</asrwt>
<pdfrwt beam="1">  1        2 0.12693068E+00 0.13981977E+04</pdfrwt>
<pdfrwt beam="2">  1       -2 0.91134725E-01 0.13981977E+04</pdfrwt>
<totfact> 0.33039122E+01</totfact>
</mgrwt>
</event>
<event>
 6    1  0.1588846E-005  0.2469163E+04  0.7818608E-02  0.8414054E-01
         -2   -1    0    0    0  501 -0.00000000000E+00  0.00000000000E+00  0.12383102474E+04  0.12383102474E+04  0.00000000000E+00 0.  1.
          2   -1    0    0  501    0  0.00000000000E+00 -0.00000000000E+00 -0.12308642846E+04  0.12308642846E+04  0.00000000000E+00 0. -1.
         23    2    1    2    0    0 -0.31679529718E+03  0.10441553279E+04 -0.57043080538E+03  0.12344433190E+04  0.88540358149E+02 0.  0.
         11    1    3    3    0    0 -0.64395854884E+02  0.29481165781E+03 -0.19363278747E+03  0.35854483135E+03  0.00000000000E+00 0. -1.
        -11    1    3    3    0    0 -0.25239944229E+03  0.74934367011E+03 -0.37679801791E+03  0.87589848766E+03  0.00000000000E+00 0.  1.
         22    1    1    2    0    0  0.31679529718E+03 -0.10441553279E+04  0.57787676817E+03  0.12347312130E+04  0.00000000000E+00 0.  1.
<mgrwt>
<rscale>  0 0.24691633E+04</rscale>
<asrwt>0</asrwt>
<pdfrwt beam="1">  1        2 0.18936373E+00 0.24691633E+04</pdfrwt>
<pdfrwt beam="2">  1       -2 0.19050927E+00 0.24691633E+04</pdfrwt>
<totfact> 0.24964738E+00</totfact>
</mgrwt>
</event>
<event>
 6    1  0.1588846E-005  0.1906910E+04  0.7818608E-02  0.8651424E-01
         -2   -1    0    0    0  501 -0.00000000000E+00  0.00000000000E+00  0.78811188328E+03  0.78811188328E+03  0.00000000000E+00 0.  1.
          2   -1    0    0  501    0  0.00000000000E+00 -0.00000000000E+00 -0.11534865310E+04  0.11534865310E+04  0.00000000000E+00 0. -1.
         23    2    1    2    0    0 -0.25719196757E+03 -0.90236499149E+03 -0.23771506304E+02  0.94304796872E+03  0.91455457689E+02 0.  0.
         13    1    3    3    0    0 -0.19732697537E+03 -0.59127012405E+03 -0.48943680166E+02  0.62524697411E+03  0.00000000000E+00 0. -1.
        -13    1    3    3    0    0 -0.59864992206E+02 -0.31109486743E+03  0.25172173861E+02  0.31780099461E+03  0.00000000000E+00 0.  1.
         22    1    1    2    0    0  0.25719196757E+03  0.90236499149E+03 -0.34160314138E+03  0.99855044552E+03  0.00000000000E+00 0. -1.
<mgrwt>
<rscale>  0 0.19069100E+04</rscale>
<asrwt>0</asrwt>
<pdfrwt beam="1">  1        2 0.17745947E+00 0.19069100E+04</pdfrwt>
<pdfrwt beam="2">  1       -2 0.12124798E+00 0.19069100E+04</pdfrwt>
<totfact> 0.97879501E+00</totfact>
</mgrwt>
</event>
<event>
 6    1  0.1588846E-005  0.5536617E+04  0.7818608E-02  0.7750671E-01
         -2   -1    0    0    0  501 -0.00000000000E+00  0.00000000000E+00  0.42528410297E+04  0.42528410297E+04  0.00000000000E+00 0. -1.
          2   -1    0    0  501    0  0.00000000000E+00 -0.00000000000E+00 -0.18019795716E+04  0.18019795716E+04  0.00000000000E+00 0.  1.
         23    2    1    2    0    0  0.13956533067E+04  0.14751659720E+04 -0.83079221264E+03  0.21956479422E+04  0.81800905496E+02 0.  0.
         13    1    3    3    0    0  0.75558742400E+03  0.81858955793E+03 -0.49705093998E+03  0.12198609989E+04  0.00000000000E+00 0.  1.
        -13    1    3    3    0    0  0.64006588273E+03  0.65657641407E+03 -0.33374127266E+03  0.97578694336E+03  0.00000000000E+00 0. -1.
         22    1    1    2    0    0 -0.13956533067E+04 -0.14751659720E+04  0.32816536707E+04  0.38591726590E+04  0.00000000000E+00 0. -1.
<mgrwt>
<rscale>  0 0.55366173E+04</rscale>
<asrwt>0</asrwt>
<pdfrwt beam="1">  1        2 0.27722763E+00 0.55366173E+04</pdfrwt>
<pdfrwt beam="2">  1       -2 0.65428323E+00 0.55366173E+04</pdfrwt>
<totfact> 0.19841102E-03</totfact>
</mgrwt>
</event>
<event>
 6    1  0.1588846E-005  0.2889494E+04  0.7818608E-02  0.8276010E-01
         -1   -1    0    0    0  501 -0.00000000000E+00  0.00000000000E+00  0.14305338694E+04  0.14305338694E+04  0.00000000000E+00 0.  1.
          1   -1    0    0  501    0  0.00000000000E+00 -0.00000000000E+00 -0.14591012090E+04  0.14591012090E+04  0.00000000000E+00 0. -1.
         23    2    1    2    0    0 -0.14696461701E+02  0.13591871667E+04  0.47113871817E+03  0.14414251888E+04  0.90161760128E+02 0.  0.
         13    1    3    3    0    0 -0.46408745242E+02  0.48967606720E+03  0.15579380710E+03  0.51595361492E+03  0.00000000000E+00 0.  1.
        -13    1    3    3    0    0  0.31712283541E+02  0.86951109950E+03  0.31534491106E+03  0.92547157386E+03  0.00000000000E+00 0. -1.
         22    1    1    2    0    0  0.14696461701E+02 -0.13591871667E+04 -0.49970605779E+03  0.14482098896E+04  0.00000000000E+00 0. -1.
<mgrwt>
<rscale>  0 0.28894939E+04</rscale>
<asrwt>0</asrwt>
<pdfrwt beam="1">  1        1 0.22447711E+00 0.28894939E+04</pdfrwt>
<pdfrwt beam="2">  1       -1 0.22008213E+00 0.28894939E+04</pdfrwt>
<totfact> 0.65955905E-01</totfact>
</mgrwt>
</event>
<event>
 6    1  0.1588846E-005  0.5935464E+04  0.7818608E-02  0.7698455E-01
         -2   -1    0    0    0  501 -0.00000000000E+00  0.00000000000E+00  0.49350794792E+04  0.49350794792E+04  0.00000000000E+00 0.  1.
          2   -1    0    0  501    0  0.00000000000E+00 -0.00000000000E+00 -0.17846588708E+04  0.17846588708E+04  0.00000000000E+00 0. -1.
         23    2    1    2    0    0 -0.26922740269E+04 -0.11809258398E+04  0.20290014303E+04  0.35732313584E+04  0.90610490447E+02 0.  0.
         13    1    3    3    0    0 -0.56589912054E+03 -0.20912974598E+03  0.40709576384E+03  0.72780768492E+03  0.00000000000E+00 0. -1.
        -13    1    3    3    0    0 -0.21263749064E+04 -0.97179609380E+03  0.16219056665E+04  0.28454236735E+04  0.00000000000E+00 0.  1.
         22    1    1    2    0    0  0.26922740269E+04  0.11809258398E+04  0.11214191780E+04  0.31465069916E+04  0.00000000000E+00 0.  1.
<mgrwt>
<rscale>  0 0.59354640E+04</rscale>
<asrwt>0</asrwt>
<pdfrwt beam="1">  1        2 0.27456291E+00 0.59354640E+04</pdfrwt>
<pdfrwt beam="2">  1       -2 0.75924299E+00 0.59354640E+04</pdfrwt>
<totfact> 0.78165338E-04</totfact>
</mgrwt>
</event>
<event>
 6    1  0.1588846E-005  0.4020059E+04  0.7818608E-02  0.8000512E-01
          2   -1    0    0  501    0  0.00000000000E+00  0.00000000000E+00  0.39193418441E+04  0.39193418441E+04  0.00000000000E+00 0. -1.
         -2   -1    0    0    0  501 -0.00000000000E+00 -0.00000000000E+00 -0.10308411756E+04  0.10308411756E+04  0.00000000000E+00 0.  1.
         23    2    1    2    0    0  0.50483909854E+03  0.63894065520E+03 -0.81658858093E+03  0.11566630155E+04  0.89133297284E+02 0.  0.
         13    1    3    3    0    0  0.28537148109E+03  0.42633114681E+03 -0.53284049867E+03  0.73967163389E+03  0.00000000000E+00 0.  1.
        -13    1    3    3    0    0  0.21946761746E+03  0.21260950840E+03 -0.28374808227E+03  0.41699138164E+03  0.00000000000E+00 0. -1.
         22    1    1    2    0    0 -0.50483909854E+03 -0.63894065520E+03  0.37050892494E+04  0.37935200042E+04  0.00000000000E+00 0. -1.
<mgrwt>
<rscale>  0 0.40200592E+04</rscale>
<asrwt>0</asrwt>
<pdfrwt beam="1">  1        2 0.60297566E+00 0.40200592E+04</pdfrwt>
<pdfrwt beam="2">  1       -2 0.15859095E+00 0.40200592E+04</pdfrwt>
<totfact> 0.80393584E-02</totfact>
</mgrwt>
</event>
<event>
 6    1  0.1588846E-005  0.2206724E+04  0.7818608E-02  0.8515635E-01
          1   -1    0    0  501    0  0.00000000000E+00  0.00000000000E+00  0.69125762213E+03  0.69125762213E+03  0.00000000000E+00 0. -1.
         -1   -1    0    0    0  501 -0.00000000000E+00 -0.00000000000E+00 -0.17611486299E+04  0.17611486299E+04  0.00000000000E+00 0.  1.
         23    2    1    2    0    0 -0.87910346752E+03  0.17321388411E+03 -0.12478734814E+04  0.15388945021E+04  0.90454998777E+02 0.  0.
         11    1    3    3    0    0 -0.55617278814E+03  0.15365185582E+03 -0.79350260279E+03  0.98111336945E+03  0.00000000000E+00 0. -1.
        -11    1    3    3    0    0 -0.32293067938E+03  0.19562028284E+02 -0.45437087863E+03  0.55778113268E+03  0.00000000000E+00 0.  1.
         22    1    1    2    0    0  0.87910346752E+03 -0.17321388411E+03  0.17798247367E+03  0.91351174989E+03  0.00000000000E+00 0. -1.
<mgrwt>
<rscale>  0 0.22067237E+04</rscale>
<asrwt>0</asrwt>
<pdfrwt beam="1">  1        1 0.10634733E+00 0.22067237E+04</pdfrwt>
<pdfrwt beam="2">  1       -1 0.27094594E+00 0.22067237E+04</pdfrwt>
<totfact> 0.12891486E+00</totfact>
</mgrwt>
</event>
<event>
 6    1  0.1588846E-005  0.6763264E+03  0.7818608E-02  0.9758596E-01
         -2   -1    0    0    0  501 -0.00000000000E+00  0.00000000000E+00  0.71019946234E+02  0.71019946234E+02  0.00000000000E+00 0.  1.
          2   -1    0    0  501    0  0.00000000000E+00 -0.00000000000E+00 -0.16101721204E+04  0.16101721204E+04  0.00000000000E+00 0. -1.
         23    2    1    2    0    0  0.16988755223E+02 -0.38740615818E+02 -0.16023280969E+04  0.16051614785E+04  0.85431778893E+02 0.  0.
         11    1    3    3    0    0 -0.30621911758E+02  0.18680621896E+01 -0.38196400975E+03  0.38319407078E+03  0.00000000000E+00 0.  1.
        -11    1    3    3    0    0  0.47610666981E+02 -0.40608678008E+02 -0.12203640872E+04  0.12219674077E+04  0.00000000000E+00 0. -1.
         22    1    1    2    0    0 -0.16988755223E+02  0.38740615818E+02  0.63175922734E+02  0.76030588129E+02  0.00000000000E+00 0.  1.
<mgrwt>
<rscale>  0 0.67632636E+03</rscale>
<asrwt>0</asrwt>
<pdfrwt beam="1">  1        2 0.24771877E+00 0.67632636E+03</pdfrwt>
<pdfrwt beam="2">  1       -2 0.10926147E-01 0.67632636E+03</pdfrwt>
<totfact> 0.66580570E+02</totfact>
</mgrwt>
</event>
<event>
 6    1  0.1588846E-005  0.1935403E+04  0.7818608E-02  0.8637432E-01
         -1   -1    0    0    0  501 -0.00000000000E+00  0.00000000000E+00  0.66419125436E+03  0.66419125436E+03  0.00000000000E+00 0.  1.
          1   -1    0    0  501    0  0.00000000000E+00 -0.00000000000E+00 -0.14099044840E+04  0.14099044840E+04  0.00000000000E+00 0. -1.
         23    2    1    2    0    0 -0.19960482918E+03  0.45827572985E+03 -0.12589144833E+04  0.13576920399E+04  0.92753795045E+02 0.  0.
         13    1    3    3    0    0 -0.18746377594E+03  0.33552006916E+03 -0.92162824779E+03  0.99855646371E+03  0.00000000000E+00 0.  1.
        -13    1    3    3    0    0 -0.12141053239E+02  0.12275566068E+03 -0.33728623555E+03  0.35913557621E+03  0.00000000000E+00 0. -1.
         22    1    1    2    0    0  0.19960482918E+03 -0.45827572985E+03  0.51320125367E+03  0.71640369846E+03  0.00000000000E+00 0.  1.
<mgrwt>
<rscale>  0 0.19354030E+04</rscale>
<asrwt>0</asrwt>
<pdfrwt beam="1">  1        1 0.21690838E+00 0.19354030E+04</pdfrwt>
<pdfrwt beam="2">  1       -1 0.10218327E+00 0.19354030E+04</pdfrwt>
<totfact> 0.63957772E+00</totfact>
</mgrwt>
</event>
<event>
 6    1  0.1588846E-005  0.5182170E+04  0.7818608E-02  0.7801004E-01
         -2   -1    0    0    0  501 -0.00000000000E+00  0.00000000000E+00  0.18509719191E+04  0.18509719191E+04  0.00000000000E+00 0.  1.
          2   -1    0    0  501    0  0.00000000000E+00 -0.00000000000E+00 -0.36271323859E+04  0.36271323859E+04  0.00000000000E+00 0. -1.
         23    2    1    2    0    0 -0.13533552571E+04 -0.87714319905E+03  0.12543548934E+04  0.20451793143E+04  0.91660163666E+02 0.  0.
         13    1    3    3    0    0 -0.54073861911E+03 -0.35101834796E+03  0.44497376478E+03  0.78333504080E+03  0.00000000000E+00 0. -1.
        -13    1    3    3    0    0 -0.81261663794E+03 -0.52612485110E+03  0.80938112860E+03  0.12618442735E+04  0.00000000000E+00 0.  1.
         22    1    1    2    0    0  0.13533552571E+04  0.87714319905E+03 -0.30305153602E+04  0.34329249907E+04  0.00000000000E+00 0. -1.
<mgrwt>
<rscale>  0 0.51821695E+04</rscale>
<asrwt>0</asrwt>
<pdfrwt beam="1">  1        2 0.55802037E+00 0.51821695E+04</pdfrwt>
<pdfrwt beam="2">  1       -2 0.28476491E+00 0.51821695E+04</pdfrwt>
<totfact> 0.18604016E-02</totfact>
</mgrwt>
</event>
<event>
 6    1  0.1588846E-005  0.2152986E+04  0.7818608E-02  0.8538255E-01
         -1   -1    0    0    0  501 -0.00000000000E+00  0.00000000000E+00  0.95363783683E+03  0.95363783683E+03  0.00000000000E+00 0.  1.
          1   -1    0    0  501    0  0.00000000000E+00 -0.00000000000E+00 -0.12151753228E+04  0.12151753228E+04  0.00000000000E+00 0. -1.
         23    2    1    2    0    0  0.26271367631E+03 -0.10000739665E+04 -0.42545885436E+03  0.11218954794E+04  0.92020735001E+02 0.  0.
         13    1    3    3    0    0  0.83929644135E+02 -0.27717308407E+03 -0.76663429048E+02  0.29957701022E+03  0.00000000000E+00 0.  1.
        -13    1    3    3    0    0  0.17878403217E+03 -0.72290088243E+03 -0.34879542531E+03  0.82231846914E+03  0.00000000000E+00 0. -1.
         22    1    1    2    0    0 -0.26271367631E+03  0.10000739665E+04  0.16392136842E+03  0.10469176802E+04  0.00000000000E+00 0.  1.
<mgrwt>
<rscale>  0 0.21529860E+04</rscale>
<asrwt>0</asrwt>
<pdfrwt beam="1">  1        1 0.18695005E+00 0.21529860E+04</pdfrwt>
<pdfrwt beam="2">  1       -1 0.14671351E+00 0.21529860E+04</pdfrwt>
<totfact> 0.35313093E+00</totfact>
</mgrwt>
</event>
<event>
 6    1  0.1588846E-005  0.1825321E+04  0.7818608E-02  0.8692949E-01
          2   -1    0    0  501    0  0.00000000000E+00  0.00000000000E+00  0.29503402573E+03  0.29503402573E+03  0.00000000000E+00 0. -1.
         -2   -1    0    0    0  501 -0.00000000000E+00 -0.00000000000E+00 -0.28232302114E+04  0.28232302114E+04  0.00000000000E+00 0.  1.
         23    2    1    2    0    0  0.91052848849E+03  0.59147655566E+01 -0.12588468732E+04  0.15561039413E+04  0.87560911377E+02 0.  0.
         13    1    3    3    0    0  0.36296505631E+03  0.19208633339E+01 -0.57592093303E+03  0.68075857903E+03  0.00000000000E+00 0. -1.
        -13    1    3    3    0    0  0.54756343218E+03  0.39939022227E+01 -0.68292594014E+03  0.87534536226E+03  0.00000000000E+00 0.  1.
         22    1    1    2    0    0 -0.91052848849E+03 -0.59147655566E+01 -0.12693493125E+04  0.15621602959E+04  0.00000000000E+00 0. -1.
<mgrwt>
<rscale>  0 0.18253208E+04</rscale>
<asrwt>0</asrwt>
<pdfrwt beam="1">  1        2 0.45389847E-01 0.18253208E+04</pdfrwt>
<pdfrwt beam="2">  1       -2 0.43434314E+00 0.18253208E+04</pdfrwt>
<totfact> 0.46623653E-01</totfact>
</mgrwt>
</event>
<event>
 6    1  0.1588846E-005  0.2753643E+04  0.7818608E-02  0.8317807E-01
          2   -1    0    0  501    0  0.00000000000E+00  0.00000000000E+00  0.11016355685E+04  0.11016355685E+04  0.00000000000E+00 0. -1.
         -2   -1    0    0    0  501 -0.00000000000E+00 -0.00000000000E+00 -0.17207481770E+04  0.17207481770E+04  0.00000000000E+00 0.  1.
         23    2    1    2    0    0 -0.43042266169E+03 -0.11968701509E+04 -0.84497322926E+03  0.15305730605E+04  0.10446200075E+03 0.  0.
         11    1    3    3    0    0 -0.54415720448E+02 -0.24295104088E+03 -0.19875126079E+03  0.31857235059E+03  0.00000000000E+00 0. -1.
        -11    1    3    3    0    0 -0.37600694124E+03 -0.95391911005E+03 -0.64622196848E+03  0.12120007099E+04  0.00000000000E+00 0.  1.
         22    1    1    2    0    0  0.43042266169E+03  0.11968701509E+04  0.22586062079E+03  0.12918106850E+04  0.00000000000E+00 0. -1.
<mgrwt>
<rscale>  0 0.27536430E+04</rscale>
<asrwt>0</asrwt>
<pdfrwt beam="1">  1        2 0.16948240E+00 0.27536430E+04</pdfrwt>
<pdfrwt beam="2">  1       -2 0.26473049E+00 0.27536430E+04</pdfrwt>
<totfact> 0.99094437E-01</totfact>
</mgrwt>
</event>
<event>
 6    1  0.2410728E-005  0.3427280E+04  0.7818608E-02  0.8131243E-01
          1   -1    0    0  501    0  0.00000000000E+00  0.00000000000E+00  0.13525280775E+04  0.13525280775E+04  0.00000000000E+00 0. -1.
         -1   -1    0    0    0  501 -0.00000000000E+00 -0.00000000000E+00 -0.21711651051E+04  0.21711651051E+04  0.00000000000E+00 0.  1.
         23    2    1    2    0    0  0.94340826918E+03 -0.59768652960E+03 -0.17442330703E+04  0.20731841740E+04  0.92169766632E+02 0.  0.
         13    1    3    3    0    0  0.49048275995E+03 -0.33386547475E+03 -0.10028406607E+04  0.11652162391E+04  0.00000000000E+00 0.  1.
        -13    1    3    3    0    0  0.45292550923E+03 -0.26382105485E+03 -0.74139240955E+03  0.90796793491E+03  0.00000000000E+00 0. -1.
         22    1    1    2    0    0 -0.94340826918E+03  0.59768652960E+03  0.92559604266E+03  0.14505090087E+04  0.00000000000E+00 0. -1.
<mgrwt>
<rscale>  0 0.34272798E+04</rscale>
<asrwt>0</asrwt>
<pdfrwt beam="1">  1        1 0.20808125E+00 0.34272798E+04</pdfrwt>
<pdfrwt beam="2">  1       -1 0.33402540E+00 0.34272798E+04</pdfrwt>
<totfact> 0.13489293E-01</totfact>
</mgrwt>
</event>
<event>
 6    1  0.1588846E-005  0.6689852E+03  0.7818608E-02  0.9771793E-01
         -2   -1    0    0    0  501 -0.00000000000E+00  0.00000000000E+00  0.55742092863E+02  0.55742092863E+02  0.00000000000E+00 0.  1.
          2   -1    0    0  501    0  0.00000000000E+00 -0.00000000000E+00 -0.20071956228E+04  0.20071956228E+04  0.00000000000E+00 0. -1.
         23    2    1    2    0    0 -0.54051195170E+02  0.30140782185E+03 -0.62663954687E+03  0.70319498394E+03  0.89654096136E+02 0.  0.
         13    1    3    3    0    0  0.22760510157E+02  0.50130306005E+02 -0.86473493652E+02  0.10251221150E+03  0.00000000000E+00 0. -1.
        -13    1    3    3    0    0 -0.76811705327E+02  0.25127751584E+03 -0.54016605322E+03  0.60068277243E+03  0.00000000000E+00 0.  1.
         22    1    1    2    0    0  0.54051195170E+02 -0.30140782185E+03 -0.13248139831E+04  0.13597427318E+04  0.00000000000E+00 0. -1.
<mgrwt>
<rscale>  0 0.66898516E+03</rscale>
<asrwt>0</asrwt>
<pdfrwt beam="1">  1        2 0.30879935E+00 0.66898516E+03</pdfrwt>
<pdfrwt beam="2">  1       -2 0.85757059E-02 0.66898516E+03</pdfrwt>
<totfact> 0.59981555E+02</totfact>
</mgrwt>
</event>
<event>
 6    1  0.1606014E-005  0.4895684E+04  0.7818608E-02  0.7844804E-01
         -1   -1    0    0    0  501 -0.00000000000E+00  0.00000000000E+00  0.20488203269E+04  0.20488203269E+04  0.00000000000E+00 0.  1.
          1   -1    0    0  501    0  0.00000000000E+00 -0.00000000000E+00 -0.29245756320E+04  0.29245756320E+04  0.00000000000E+00 0. -1.
         23    2    1    2    0    0 -0.78748218629E+03 -0.70617965454E+03  0.18036473033E+04  0.20927682086E+04  0.87848062095E+02 0.  0.
         13    1    3    3    0    0 -0.34138033821E+03 -0.28175021511E+03  0.67756192657E+03  0.80932927994E+03  0.00000000000E+00 0. -1.
        -13    1    3    3    0    0 -0.44610184808E+03 -0.42442943943E+03  0.11260853767E+04  0.12834389286E+04  0.00000000000E+00 0.  1.
         22    1    1    2    0    0  0.78748218629E+03  0.70617965454E+03 -0.26794026084E+04  0.28806277503E+04  0.00000000000E+00 0. -1.
<mgrwt>
<rscale>  0 0.48956838E+04</rscale>
<asrwt>0</asrwt>
<pdfrwt beam="1">  1        1 0.44993471E+00 0.48956838E+04</pdfrwt>
<pdfrwt beam="2">  1       -1 0.31520313E+00 0.48956838E+04</pdfrwt>
<totfact> 0.12984603E-02</totfact>
</mgrwt>
</event>
<event>
 6    1  0.1588846E-005  0.1683087E+04  0.7818608E-02  0.8771070E-01
         -2   -1    0    0    0  501 -0.00000000000E+00  0.00000000000E+00  0.50130842786E+03  0.50130842786E+03  0.00000000000E+00 0. -1.
          2   -1    0    0  501    0  0.00000000000E+00 -0.00000000000E+00 -0.14126942095E+04  0.14126942095E+04  0.00000000000E+00 0.  1.
         23    2    1    2    0    0 -0.70334969322E+03 -0.33504507816E+03 -0.10094199109E+03  0.78982510113E+03  0.81721536067E+02 0.  0.
         13    1    3    3    0    0 -0.23075328515E+03 -0.72672308143E+02 -0.48541431700E+02  0.24674807713E+03  0.00000000000E+00 0. -1.
        -13    1    3    3    0    0 -0.47259640807E+03 -0.26237277001E+03 -0.52400559394E+02  0.54307702399E+03  0.00000000000E+00 0.  1.
         22    1    1    2    0    0  0.70334969322E+03  0.33504507816E+03 -0.81044379058E+03  0.11241775363E+04  0.00000000000E+00 0. -1.
<mgrwt>
<rscale>  0 0.16830871E+04</rscale>
<asrwt>0</asrwt>
<pdfrwt beam="1">  1        2 0.21733757E+00 0.16830871E+04</pdfrwt>
<pdfrwt beam="2">  1       -2 0.77124375E-01 0.16830871E+04</pdfrwt>
<totfact> 0.20345852E+01</totfact>
</mgrwt>
</event>
<event>
 6    1  0.1588846E-005  0.1106589E+04  0.7818608E-02  0.9198794E-01
         -1   -1    0    0    0  501 -0.00000000000E+00  0.00000000000E+00  0.15231884778E+04  0.15231884778E+04  0.00000000000E+00 0.  1.
          1   -1    0    0  501    0  0.00000000000E+00 -0.00000000000E+00 -0.20098285269E+03  0.20098285269E+03  0.00000000000E+00 0. -1.
         23    2    1    2    0    0 -0.59899627430E+02  0.38363236354E+03  0.59747827625E+02  0.40335285464E+03  0.91443789967E+02 0.  0.
         13    1    3    3    0    0 -0.27990201604E+02  0.19610579893E+03 -0.15700464740E+02  0.19871446941E+03  0.00000000000E+00 0. -1.
        -13    1    3    3    0    0 -0.31909425827E+02  0.18752656460E+03  0.75448292365E+02  0.20463838523E+03  0.00000000000E+00 0.  1.
         22    1    1    2    0    0  0.59899627430E+02 -0.38363236354E+03  0.12624577975E+04  0.13208184759E+04  0.00000000000E+00 0.  1.
<mgrwt>
<rscale>  0 0.11065889E+04</rscale>
<asrwt>0</asrwt>
<pdfrwt beam="1">  1        1 0.30920440E-01 0.11065889E+04</pdfrwt>
<pdfrwt beam="2">  1       -1 0.23433668E+00 0.11065889E+04</pdfrwt>
<totfact> 0.13043546E+01</totfact>
</mgrwt>
</event>
<event>
 6    1  0.1588846E-005  0.2192117E+04  0.7818608E-02  0.8521716E-01
         -2   -1    0    0    0  501 -0.00000000000E+00  0.00000000000E+00  0.94201297351E+03  0.94201297351E+03  0.00000000000E+00 0.  1.
          2   -1    0    0  501    0  0.00000000000E+00 -0.00000000000E+00 -0.12752944452E+04  0.12752944452E+04  0.00000000000E+00 0. -1.
         23    2    1    2    0    0  0.69557767218E+02  0.10911191229E+04 -0.12556163490E+03  0.11044162497E+04  0.92683898917E+02 0.  0.
         11    1    3    3    0    0  0.75640873614E+01  0.42195514804E+03 -0.74646415041E+01  0.42208895182E+03  0.00000000000E+00 0.  1.
        -11    1    3    3    0    0  0.61993679856E+02  0.66916397487E+03 -0.11809699340E+03  0.68232729790E+03  0.00000000000E+00 0. -1.
         22    1    1    2    0    0 -0.69557767218E+02 -0.10911191229E+04 -0.20771983677E+03  0.11128911690E+04  0.00000000000E+00 0. -1.
<mgrwt>
<rscale>  0 0.21921167E+04</rscale>
<asrwt>0</asrwt>
<pdfrwt beam="1">  1        2 0.19619914E+00 0.21921167E+04</pdfrwt>
<pdfrwt beam="2">  1       -2 0.14492507E+00 0.21921167E+04</pdfrwt>
<totfact> 0.51300017E+00</totfact>
</mgrwt>
</event>
<event>
 6    1  0.1588846E-005  0.2593552E+04  0.7818608E-02  0.8370395E-01
          2   -1    0    0  501    0  0.00000000000E+00  0.00000000000E+00  0.10374901327E+04  0.10374901327E+04  0.00000000000E+00 0. -1.
         -2   -1    0    0    0  501 -0.00000000000E+00 -0.00000000000E+00 -0.16208620235E+04  0.16208620235E+04  0.00000000000E+00 0.  1.
         23    2    1    2    0    0 -0.71765857159E+03 -0.10688915396E+04 -0.43668332758E+03  0.13625587764E+04  0.91165462892E+02 0.  0.
         11    1    3    3    0    0 -0.68528842356E+03 -0.10110505165E+04 -0.39260695481E+03  0.12829589204E+04  0.00000000000E+00 0.  1.
        -11    1    3    3    0    0 -0.32370148037E+02 -0.57841023130E+02 -0.44076372778E+02  0.79599856016E+02  0.00000000000E+00 0. -1.
         22    1    1    2    0    0  0.71765857159E+03  0.10688915396E+04 -0.14668856321E+03  0.12957933799E+04  0.00000000000E+00 0.  1.
<mgrwt>
<rscale>  0 0.25935523E+04</rscale>
<asrwt>0</asrwt>
<pdfrwt beam="1">  1        2 0.15961387E+00 0.25935523E+04</pdfrwt>
<pdfrwt beam="2">  1       -2 0.24936339E+00 0.25935523E+04</pdfrwt>
<totfact> 0.13679300E+00</totfact>
</mgrwt>
</event>
<event>
 6    1  0.1588846E-005  0.1563396E+04  0.7818608E-02  0.8843357E-01
         -2   -1    0    0    0  501 -0.00000000000E+00  0.00000000000E+00  0.11838977329E+04  0.11838977329E+04  0.00000000000E+00 0.  1.
          2   -1    0    0  501    0  0.00000000000E+00 -0.00000000000E+00 -0.51613527999E+03  0.51613527999E+03  0.00000000000E+00 0. -1.
         23    2    1    2    0    0 -0.11333531762E+03 -0.18804642211E+03 -0.47795619478E+03  0.53346643925E+03  0.89095266950E+02 0.  0.
         13    1    3    3    0    0 -0.41598635055E+02 -0.11195375104E+03 -0.16637690695E+03  0.20480567369E+03  0.00000000000E+00 0.  1.
        -13    1    3    3    0    0 -0.71736682570E+02 -0.76092671078E+02 -0.31157928782E+03  0.32866076556E+03  0.00000000000E+00 0. -1.
         22    1    1    2    0    0  0.11333531762E+03  0.18804642211E+03  0.11457186477E+04  0.11665665736E+04  0.00000000000E+00 0.  1.
<mgrwt>
<rscale>  0 0.15633955E+04</rscale>
<asrwt>0</asrwt>
<pdfrwt beam="1">  1        2 0.79405428E-01 0.15633955E+04</pdfrwt>
<pdfrwt beam="2">  1       -2 0.18213811E+00 0.15633955E+04</pdfrwt>
<totfact> 0.99904255E+00</totfact>
</mgrwt>
</event>
<event>
 6    1  0.1588846E-005  0.1215081E+04  0.7818608E-02  0.9099758E-01
         -2   -1    0    0    0  501 -0.00000000000E+00  0.00000000000E+00  0.92301346911E+03  0.92301346911E+03  0.00000000000E+00 0.  1.
          2   -1    0    0  501    0  0.00000000000E+00 -0.00000000000E+00 -0.39989152760E+03  0.39989152760E+03  0.00000000000E+00 0. -1.
         23    2    1    2    0    0 -0.38804084896E+02 -0.48026601061E+03 -0.13367421600E+03  0.50832388320E+03  0.91450403255E+02 0.  0.
         11    1    3    3    0    0 -0.47732887961E+02 -0.20352393155E+03 -0.23654369425E+02  0.21038048507E+03  0.00000000000E+00 0. -1.
        -11    1    3    3    0    0  0.89288030646E+01 -0.27674207906E+03 -0.11001984658E+03  0.29794339813E+03  0.00000000000E+00 0.  1.
         22    1    1    2    0    0  0.38804084896E+02  0.48026601061E+03  0.65679615752E+03  0.81458111351E+03  0.00000000000E+00 0.  1.
<mgrwt>
<rscale>  0 0.12150807E+04</rscale>
<asrwt>0</asrwt>
<pdfrwt beam="1">  1        2 0.61521774E-01 0.12150807E+04</pdfrwt>
<pdfrwt beam="2">  1       -2 0.14200207E+00 0.12150807E+04</pdfrwt>
<totfact> 0.27114450E+01</totfact>
</mgrwt>
</event>
<event>
 6    1  0.1588846E-005  0.3547183E+04  0.7818608E-02  0.8102698E-01
          2   -1    0    0  501    0  0.00000000000E+00  0.00000000000E+00  0.24425199726E+04  0.24425199726E+04  0.00000000000E+00 0. -1.
         -2   -1    0    0    0  501 -0.00000000000E+00 -0.00000000000E+00 -0.12878614057E+04  0.12878614057E+04  0.00000000000E+00 0.  1.
         23    2    1    2    0    0  0.15116853667E+04  0.19106228460E+03 -0.37443664963E+03  0.15717175263E+04  0.91628233664E+02 0.  0.
         11    1    3    3    0    0  0.10395302227E+04  0.17392786858E+03 -0.26209317147E+03  0.10860786426E+04  0.00000000000E+00 0. -1.
        -11    1    3    3    0    0  0.47215514401E+03  0.17134416021E+02 -0.11234347816E+03  0.48563888365E+03  0.00000000000E+00 0.  1.
         22    1    1    2    0    0 -0.15116853667E+04 -0.19106228460E+03  0.15290952165E+04  0.21586638520E+04  0.00000000000E+00 0.  1.
<mgrwt>
<rscale>  0 0.35471832E+04</rscale>
<asrwt>0</asrwt>
<pdfrwt beam="1">  1        2 0.37577230E+00 0.35471832E+04</pdfrwt>
<pdfrwt beam="2">  1       -2 0.19813252E+00 0.35471832E+04</pdfrwt>
<totfact> 0.42084320E-01</totfact>
</mgrwt>
</event>
<event>
 6    1  0.1588846E-005  0.2612753E+03  0.7818608E-02  0.1106379E+00
          2   -1    0    0  501    0  0.00000000000E+00  0.00000000000E+00  0.35956645895E+03  0.35956645895E+03  0.00000000000E+00 0. -1.
         -2   -1    0    0    0  501 -0.00000000000E+00 -0.00000000000E+00 -0.47463242966E+02  0.47463242966E+02  0.00000000000E+00 0.  1.
         23    2    1    2    0    0  0.51708855596E+01 -0.64987072719E+02  0.32236169818E+03  0.34103504959E+03  0.90209660879E+02 0.  0.
         11    1    3    3    0    0  0.41587730171E+02 -0.29317017128E+02  0.92324536326E+02  0.10541748812E+03  0.00000000000E+00 0.  1.
        -11    1    3    3    0    0 -0.36416844612E+02 -0.35670055591E+02  0.23003716186E+03  0.23561756147E+03  0.00000000000E+00 0. -1.
         22    1    1    2    0    0 -0.51708855596E+01  0.64987072719E+02 -0.10258482202E+02  0.65994652322E+02  0.00000000000E+00 0.  1.
<mgrwt>
<rscale>  0 0.26127526E+03</rscale>
<asrwt>0</asrwt>
<pdfrwt beam="1">  1        2 0.55317915E-01 0.26127526E+03</pdfrwt>
<pdfrwt beam="2">  1       -2 0.73020376E-02 0.26127526E+03</pdfrwt>
<totfact> 0.96895925E+03</totfact>
</mgrwt>
</event>
<event>
 6    1  0.1588846E-005  0.2323698E+04  0.7818608E-02  0.8468636E-01
         -2   -1    0    0    0  501 -0.00000000000E+00  0.00000000000E+00  0.52015889593E+03  0.52015889593E+03  0.00000000000E+00 0.  1.
          2   -1    0    0  501    0  0.00000000000E+00 -0.00000000000E+00 -0.25951543942E+04  0.25951543942E+04  0.00000000000E+00 0. -1.
         23    2    1    2    0    0  0.93558403636E+02  0.75992763846E+03 -0.22074750106E+04  0.23382714561E+04  0.91237543676E+02 0.  0.
         11    1    3    3    0    0  0.65686412672E+02  0.56189767744E+03 -0.15022870574E+04  0.16052757108E+04  0.00000000000E+00 0.  1.
        -11    1    3    3    0    0  0.27871990963E+02  0.19802996102E+03 -0.70518795319E+03  0.73299574533E+03  0.00000000000E+00 0. -1.
         22    1    1    2    0    0 -0.93558403636E+02 -0.75992763846E+03  0.13247951238E+03  0.77704183400E+03  0.00000000000E+00 0.  1.
<mgrwt>
<rscale>  0 0.23236976E+04</rscale>
<asrwt>0</asrwt>
<pdfrwt beam="1">  1        2 0.39925453E+00 0.23236976E+04</pdfrwt>
<pdfrwt beam="2">  1       -2 0.80024445E-01 0.23236976E+04</pdfrwt>
<totfact> 0.38289636E+00</totfact>
</mgrwt>
</event>
<event>
 6    1  0.1588846E-005  0.1023430E+04  0.7818608E-02  0.9283214E-01
          1   -1    0    0  501    0  0.00000000000E+00  0.00000000000E+00  0.12887645902E+04  0.12887645902E+04  0.00000000000E+00 0. -1.
         -1   -1    0    0    0  501 -0.00000000000E+00 -0.00000000000E+00 -0.20318101126E+03  0.20318101126E+03  0.00000000000E+00 0.  1.
         23    2    1    2    0    0  0.67628064258E+01  0.39458516019E+03  0.81661073747E+02  0.41324101696E+03  0.91413472394E+02 0.  0.
         11    1    3    3    0    0  0.40949867167E+02  0.96045009962E+02  0.15532697182E+02  0.10555946306E+03  0.00000000000E+00 0.  1.
        -11    1    3    3    0    0 -0.34187060741E+02  0.29854015023E+03  0.66128376566E+02  0.30768155390E+03  0.00000000000E+00 0. -1.
         22    1    1    2    0    0 -0.67628064258E+01 -0.39458516019E+03  0.10039225052E+04  0.10787045845E+04  0.00000000000E+00 0. -1.
<mgrwt>
<rscale>  0 0.10234305E+04</rscale>
<asrwt>0</asrwt>
<pdfrwt beam="1">  1        1 0.19827147E+00 0.10234305E+04</pdfrwt>
<pdfrwt beam="2">  1       -1 0.31258618E-01 0.10234305E+04</pdfrwt>
<totfact> 0.87488903E+01</totfact>
</mgrwt>
</event>
<event>
 6    1  0.1588846E-005  0.3652313E+04  0.7818608E-02  0.8078613E-01
         -1   -1    0    0    0  501 -0.00000000000E+00  0.00000000000E+00  0.13936761624E+04  0.13936761624E+04  0.00000000000E+00 0.  1.
          1   -1    0    0  501    0  0.00000000000E+00 -0.00000000000E+00 -0.23928428203E+04  0.23928428203E+04  0.00000000000E+00 0. -1.
         23    2    1    2    0    0 -0.10032137285E+04 -0.44564144806E+03  0.10116792133E+04  0.14955508025E+04  0.90240162590E+02 0.  0.
         13    1    3    3    0    0 -0.86774641955E+03 -0.40598573720E+03  0.91238927408E+03  0.13229748504E+04  0.00000000000E+00 0. -1.
        -13    1    3    3    0    0 -0.13546730893E+03 -0.39655710861E+02  0.99289939242E+02  0.17257595205E+03  0.00000000000E+00 0.  1.
         22    1    1    2    0    0  0.10032137285E+04  0.44564144806E+03 -0.20108458712E+04  0.22909681803E+04  0.00000000000E+00 0. -1.
<mgrwt>
<rscale>  0 0.36523132E+04</rscale>
<asrwt>0</asrwt>
<pdfrwt beam="1">  1        1 0.36812966E+00 0.36523132E+04</pdfrwt>
<pdfrwt beam="2">  1       -1 0.21441172E+00 0.36523132E+04</pdfrwt>
<totfact> 0.15532897E-01</totfact>
</mgrwt>
</event>
<event>
 6    1  0.1588846E-005  0.1143642E+04  0.7818608E-02  0.9163669E-01
         -1   -1    0    0    0  501 -0.00000000000E+00  0.00000000000E+00  0.65810372409E+03  0.65810372409E+03  0.00000000000E+00 0.  1.
          1   -1    0    0  501    0  0.00000000000E+00 -0.00000000000E+00 -0.49685045908E+03  0.49685045908E+03  0.00000000000E+00 0. -1.
         23    2    1    2    0    0 -0.11786157484E+03  0.21185129293E+03 -0.43786334467E+03  0.50864695504E+03  0.90692310183E+02 0.  0.
         11    1    3    3    0    0 -0.59749613500E+02  0.75203696872E+02 -0.95398791709E+02  0.13537555834E+03  0.00000000000E+00 0.  1.
        -11    1    3    3    0    0 -0.58111961344E+02  0.13664759605E+03 -0.34246455296E+03  0.37327139670E+03  0.00000000000E+00 0. -1.
         22    1    1    2    0    0  0.11786157484E+03 -0.21185129293E+03  0.59911660968E+03  0.64630722813E+03  0.00000000000E+00 0.  1.
<mgrwt>
<rscale>  0 0.11436418E+04</rscale>
<asrwt>0</asrwt>
<pdfrwt beam="1">  1        1 0.76438532E-01 0.11436418E+04</pdfrwt>
<pdfrwt beam="2">  1       -1 0.10124673E+00 0.11436418E+04</pdfrwt>
<totfact> 0.41176151E+01</totfact>
</mgrwt>
</event>
<event>
 6    1  0.1588846E-005  0.1219320E+04  0.7818608E-02  0.9096112E-01
          1   -1    0    0  501    0  0.00000000000E+00  0.00000000000E+00  0.12405809617E+04  0.12405809617E+04  0.00000000000E+00 0. -1.
         -1   -1    0    0    0  501 -0.00000000000E+00 -0.00000000000E+00 -0.29960570492E+03  0.29960570492E+03  0.00000000000E+00 0.  1.
         23    2    1    2    0    0 -0.31627667537E+02  0.59837172164E+03  0.58860888399E+03  0.84505280375E+03  0.92762040746E+02 0.  0.
         11    1    3    3    0    0 -0.54493047310E+02  0.49531125990E+03  0.51322417609E+03  0.71533334279E+03  0.00000000000E+00 0.  1.
        -11    1    3    3    0    0  0.22865379773E+02  0.10306046173E+03  0.75384707902E+02  0.12971946095E+03  0.00000000000E+00 0. -1.
         22    1    1    2    0    0  0.31627667537E+02 -0.59837172164E+03  0.35236637275E+03  0.69513386283E+03  0.00000000000E+00 0. -1.
<mgrwt>
<rscale>  0 0.12193197E+04</rscale>
<asrwt>0</asrwt>
<pdfrwt beam="1">  1        1 0.19085861E+00 0.12193197E+04</pdfrwt>
<pdfrwt beam="2">  1       -1 0.46093186E-01 0.12193197E+04</pdfrwt>
<totfact> 0.46176773E+01</totfact>
</mgrwt>
</event>
<event>
 6    1  0.1588846E-005  0.2322619E+04  0.7818608E-02  0.8469056E-01
          2   -1    0    0  501    0  0.00000000000E+00  0.00000000000E+00  0.12791902196E+04  0.12791902196E+04  0.00000000000E+00 0. -1.
         -2   -1    0    0    0  501 -0.00000000000E+00 -0.00000000000E+00 -0.10542913436E+04  0.10542913436E+04  0.00000000000E+00 0.  1.
         23    2    1    2    0    0 -0.37840101607E+03 -0.63980780360E+03  0.10066999849E+04  0.12547071064E+04  0.91124688528E+02 0.  0.
         13    1    3    3    0    0 -0.12207305714E+03 -0.22614997438E+03  0.42076153764E+03  0.49303743646E+03  0.00000000000E+00 0. -1.
        -13    1    3    3    0    0 -0.25632795893E+03 -0.41365782922E+03  0.58593844726E+03  0.76166966999E+03  0.00000000000E+00 0.  1.
         22    1    1    2    0    0  0.37840101607E+03  0.63980780360E+03 -0.78180110890E+03  0.10787744567E+04  0.00000000000E+00 0.  1.
<mgrwt>
<rscale>  0 0.23226185E+04</rscale>
<asrwt>0</asrwt>
<pdfrwt beam="1">  1        2 0.19679850E+00 0.23226185E+04</pdfrwt>
<pdfrwt beam="2">  1       -2 0.16219867E+00 0.23226185E+04</pdfrwt>
<totfact> 0.37339498E+00</totfact>
</mgrwt>
</event>
<event>
 6    1  0.1588846E-005  0.1975488E+04  0.7818608E-02  0.8618167E-01
          2   -1    0    0  501    0  0.00000000000E+00  0.00000000000E+00  0.31362855170E+04  0.31362855170E+04  0.00000000000E+00 0. -1.
         -2   -1    0    0    0  501 -0.00000000000E+00 -0.00000000000E+00 -0.31108080064E+03  0.31108080064E+03  0.00000000000E+00 0.  1.
         23    2    1    2    0    0 -0.14484564250E+03  0.56901657533E+03  0.33920849842E+02  0.59499436668E+03  0.90041930107E+02 0.  0.
         13    1    3    3    0    0 -0.16474039299E+02  0.24262355184E+03  0.19628633442E+02  0.24397308280E+03  0.00000000000E+00 0.  1.
        -13    1    3    3    0    0 -0.12837160320E+03  0.32639302349E+03  0.14292216399E+02  0.35102128388E+03  0.00000000000E+00 0. -1.
         22    1    1    2    0    0  0.14484564250E+03 -0.56901657533E+03  0.27912838665E+04  0.28523719510E+04  0.00000000000E+00 0. -1.
<mgrwt>
<rscale>  0 0.19754880E+04</rscale>
<asrwt>0</asrwt>
<pdfrwt beam="1">  1        2 0.48250544E+00 0.19754880E+04</pdfrwt>
<pdfrwt beam="2">  1       -2 0.47858587E-01 0.19754880E+04</pdfrwt>
<totfact> 0.55106332E+00</totfact>
</mgrwt>
</event>
<event>
 6    1  0.1588846E-005  0.5547435E+04  0.7818608E-02  0.7749196E-01
          1   -1    0    0  501    0  0.00000000000E+00  0.00000000000E+00  0.31865485458E+04  0.31865485458E+04  0.00000000000E+00 0. -1.
         -1   -1    0    0    0  501 -0.00000000000E+00 -0.00000000000E+00 -0.24143700548E+04  0.24143700548E+04  0.00000000000E+00 0.  1.
         23    2    1    2    0    0 -0.49302655455E+03  0.22356779975E+03  0.31319882384E+04  0.31798114596E+04  0.93770191016E+02 0.  0.
         13    1    3    3    0    0 -0.17119660391E+03  0.12421388562E+03  0.11125141188E+04  0.11324420652E+04  0.00000000000E+00 0.  1.
        -13    1    3    3    0    0 -0.32182995063E+03  0.99353914123E+02  0.20194741196E+04  0.20473693944E+04  0.00000000000E+00 0. -1.
         22    1    1    2    0    0  0.49302655455E+03 -0.22356779975E+03 -0.23598097474E+04  0.24211071410E+04  0.00000000000E+00 0.  1.
<mgrwt>
<rscale>  0 0.55474345E+04</rscale>
<asrwt>0</asrwt>
<pdfrwt beam="1">  1        1 0.49023824E+00 0.55474345E+04</pdfrwt>
<pdfrwt beam="2">  1       -1 0.37144155E+00 0.55474345E+04</pdfrwt>
<totfact> 0.33618973E-03</totfact>
</mgrwt>
</event>
<event>
 6    1  0.1588846E-005  0.9035152E+03  0.7818608E-02  0.9421198E-01
         -2   -1    0    0    0  501 -0.00000000000E+00  0.00000000000E+00  0.87899556969E+02  0.87899556969E+02  0.00000000000E+00 0.  1.
          2   -1    0    0  501    0  0.00000000000E+00 -0.00000000000E+00 -0.23217968145E+04  0.23217968145E+04  0.00000000000E+00 0. -1.
         23    2    1    2    0    0 -0.20550140044E+03 -0.20561229361E+03 -0.20344234162E+04  0.20571384979E+04  0.91830943323E+02 0.  0.
         13    1    3    3    0    0 -0.18291423212E+02 -0.55118862936E+02 -0.59319015334E+03  0.59602619341E+03  0.00000000000E+00 0. -1.
        -13    1    3    3    0    0 -0.18720997723E+03 -0.15049343067E+03 -0.14412332629E+04  0.14611123045E+04  0.00000000000E+00 0.  1.
         22    1    1    2    0    0  0.20550140044E+03  0.20561229361E+03 -0.19947384134E+03  0.35255787361E+03  0.00000000000E+00 0.  1.
<mgrwt>
<rscale>  0 0.90351516E+03</rscale>
<asrwt>0</asrwt>
<pdfrwt beam="1">  1        2 0.35719945E+00 0.90351516E+03</pdfrwt>
<pdfrwt beam="2">  1       -2 0.13523011E-01 0.90351516E+03</pdfrwt>
<totfact> 0.18717549E+02</totfact>
</mgrwt>
</event>
<event>
 6    1  0.1588846E-005  0.5698175E+04  0.7818608E-02  0.7728994E-01
         -2   -1    0    0    0  501 -0.00000000000E+00  0.00000000000E+00  0.47655402837E+04  0.47655402837E+04  0.00000000000E+00 0.  1.
          2   -1    0    0  501    0  0.00000000000E+00 -0.00000000000E+00 -0.17033324892E+04  0.17033324892E+04  0.00000000000E+00 0. -1.
         23    2    1    2    0    0 -0.24429545293E+04 -0.84351756477E+02 -0.12847209354E+03  0.24494722954E+04  0.90925222018E+02 0.  0.
         13    1    3    3    0    0 -0.19960180818E+04 -0.66202518515E+02 -0.14002351394E+03  0.20020183667E+04  0.00000000000E+00 0. -1.
        -13    1    3    3    0    0 -0.44693644751E+03 -0.18149237963E+02  0.11551420405E+02  0.44745392865E+03  0.00000000000E+00 0.  1.
         22    1    1    2    0    0  0.24429545293E+04  0.84351756477E+02  0.31906798880E+04  0.40194004775E+04  0.00000000000E+00 0. -1.
<mgrwt>
<rscale>  0 0.56981750E+04</rscale>
<asrwt>0</asrwt>
<pdfrwt beam="1">  1        2 0.26205115E+00 0.56981750E+04</pdfrwt>
<pdfrwt beam="2">  1       -2 0.73316004E+00 0.56981750E+04</pdfrwt>
<totfact> 0.11553824E-03</totfact>
</mgrwt>
</event>
<event>
 6    1  0.1588846E-005  0.7304600E+03  0.7818608E-02  0.9666514E-01
         -1   -1    0    0    0  501 -0.00000000000E+00  0.00000000000E+00  0.52100712280E+03  0.52100712280E+03  0.00000000000E+00 0.  1.
          1   -1    0    0  501    0  0.00000000000E+00 -0.00000000000E+00 -0.25602902888E+03  0.25602902888E+03  0.00000000000E+00 0. -1.
         23    2    1    2    0    0  0.58500960352E+01 -0.28775205117E+03  0.36396508971E+03  0.47267798782E+03  0.90102314449E+02 0.  0.
         11    1    3    3    0    0  0.45614418620E+02 -0.11824444765E+03  0.13714056759E+03  0.18673499903E+03  0.00000000000E+00 0.  1.
        -11    1    3    3    0    0 -0.39764322584E+02 -0.16950760352E+03  0.22682452212E+03  0.28594298879E+03  0.00000000000E+00 0. -1.
         22    1    1    2    0    0 -0.58500960352E+01  0.28775205117E+03 -0.98986995788E+02  0.30435816386E+03  0.00000000000E+00 0. -1.
<mgrwt>
<rscale>  0 0.73045999E+03</rscale>
<asrwt>0</asrwt>
<pdfrwt beam="1">  1        1 0.39389081E-01 0.73045999E+03</pdfrwt>
<pdfrwt beam="2">  1       -1 0.80154942E-01 0.73045999E+03</pdfrwt>
<totfact> 0.16988879E+02</totfact>
</mgrwt>
</event>
<event>
 6    1  0.1588846E-005  0.2614508E+04  0.7818608E-02  0.8363290E-01
         -1   -1    0    0    0  501 -0.00000000000E+00  0.00000000000E+00  0.11458946752E+04  0.11458946752E+04  0.00000000000E+00 0.  1.
          1   -1    0    0  501    0  0.00000000000E+00 -0.00000000000E+00 -0.14913354558E+04  0.14913354558E+04  0.00000000000E+00 0. -1.
         23    2    1    2    0    0  0.99178833393E+03 -0.77826723017E+03 -0.51548387876E+03  0.13651221811E+04  0.92146401432E+02 0.  0.
         11    1    3    3    0    0  0.87075714665E+03 -0.71333696175E+03 -0.47655864908E+03  0.12223648291E+04  0.00000000000E+00 0.  1.
        -11    1    3    3    0    0  0.12103118727E+03 -0.64930268420E+02 -0.38925229677E+02  0.14275735202E+03  0.00000000000E+00 0. -1.
         22    1    1    2    0    0 -0.99178833393E+03  0.77826723017E+03  0.17004309808E+03  0.12721079499E+04  0.00000000000E+00 0.  1.
<mgrwt>
<rscale>  0 0.26145083E+04</rscale>
<asrwt>0</asrwt>
<pdfrwt beam="1">  1        1 0.22943622E+00 0.26145083E+04</pdfrwt>
<pdfrwt beam="2">  1       -1 0.17629149E+00 0.26145083E+04</pdfrwt>
<totfact> 0.12915543E+00</totfact>
</mgrwt>
</event>
<event>
 6    1  0.1588846E-005  0.6074149E+03  0.7818608E-02  0.9890141E-01
          2   -1    0    0  501    0  0.00000000000E+00  0.00000000000E+00  0.28075711828E+03  0.28075711828E+03  0.00000000000E+00 0.  1.
         -2   -1    0    0    0  501 -0.00000000000E+00 -0.00000000000E+00 -0.32853382377E+03  0.32853382377E+03  0.00000000000E+00 0. -1.
         23    2    1    2    0    0 -0.23494920162E+03  0.16125116293E+03 -0.10816327955E+03  0.31800138985E+03  0.90678134168E+02 0.  0.
         13    1    3    3    0    0 -0.17283225151E+03  0.15642835267E+03 -0.64335029024E+02  0.24182599662E+03  0.00000000000E+00 0. -1.
        -13    1    3    3    0    0 -0.62116950110E+02  0.48228102565E+01 -0.43828250523E+02  0.76175393230E+02  0.00000000000E+00 0.  1.
         22    1    1    2    0    0  0.23494920162E+03 -0.16125116293E+03  0.60386574058E+02  0.29128955219E+03  0.00000000000E+00 0.  1.
<mgrwt>
<rscale>  0 0.60741488E+03</rscale>
<asrwt>0</asrwt>
<pdfrwt beam="1">  1        2 0.43193403E-01 0.60741488E+03</pdfrwt>
<pdfrwt beam="2">  1       -2 0.50543665E-01 0.60741488E+03</pdfrwt>
<totfact> 0.44153632E+02</totfact>
</mgrwt>
</event>
<event>
 6    1  0.1588846E-005  0.2082157E+04  0.7818608E-02  0.8569144E-01
          1   -1    0    0  501    0  0.00000000000E+00  0.00000000000E+00  0.25808238448E+04  0.25808238448E+04  0.00000000000E+00 0. -1.
         -1   -1    0    0    0  501 -0.00000000000E+00 -0.00000000000E+00 -0.41996067056E+03  0.41996067056E+03  0.00000000000E+00 0.  1.
         23    2    1    2    0    0 -0.71161575790E+03  0.42210533585E+03  0.19883407077E+04  0.21556017523E+04  0.92467526237E+02 0.  0.
         11    1    3    3    0    0 -0.36658088276E+03  0.25377665827E+03  0.98012656713E+03  0.10767693455E+04  0.00000000000E+00 0.  1.
        -11    1    3    3    0    0 -0.34503487514E+03  0.16832867758E+03  0.10082141406E+04  0.10788324068E+04  0.00000000000E+00 0. -1.
         22    1    1    2    0    0  0.71161575790E+03 -0.42210533585E+03  0.17252246655E+03  0.84518276302E+03  0.00000000000E+00 0.  1.
<mgrwt>
<rscale>  0 0.20821571E+04</rscale>
<asrwt>0</asrwt>
<pdfrwt beam="1">  1        1 0.39704981E+00 0.20821571E+04</pdfrwt>
<pdfrwt beam="2">  1       -1 0.64609336E-01 0.20821571E+04</pdfrwt>
<totfact> 0.26637035E+00</totfact>
</mgrwt>
</event>
<event>
 6    1  0.1588846E-005  0.2026312E+04  0.7818608E-02  0.8594417E-01
          2   -1    0    0  501    0  0.00000000000E+00  0.00000000000E+00  0.15478116908E+04  0.15478116908E+04  0.00000000000E+00 0. -1.
         -2   -1    0    0    0  501 -0.00000000000E+00 -0.00000000000E+00 -0.66318476307E+03  0.66318476307E+03  0.00000000000E+00 0.  1.
         23    2    1    2    0    0  0.90119300335E+02  0.71208689296E+03 -0.33396138735E+03  0.79673102154E+03  0.89782409349E+02 0.  0.
         11    1    3    3    0    0 -0.17257282206E+02  0.10346036602E+03 -0.38757493378E+02  0.11182130575E+03  0.00000000000E+00 0.  1.
        -11    1    3    3    0    0  0.10737658254E+03  0.60862652694E+03 -0.29520389397E+03  0.68490971579E+03  0.00000000000E+00 0. -1.
         22    1    1    2    0    0 -0.90119300335E+02 -0.71208689296E+03  0.12185883151E+04  0.14142654323E+04  0.00000000000E+00 0. -1.
<mgrwt>
<rscale>  0 0.20263120E+04</rscale>
<asrwt>0</asrwt>
<pdfrwt beam="1">  1        2 0.23812487E+00 0.20263120E+04</pdfrwt>
<pdfrwt beam="2">  1       -2 0.10202843E+00 0.20263120E+04</pdfrwt>
<totfact> 0.87097419E+00</totfact>
</mgrwt>
</event>
<event>
 6    1  0.1588846E-005  0.2121368E+04  0.7818608E-02  0.8551889E-01
          2   -1    0    0  501    0  0.00000000000E+00  0.00000000000E+00  0.25622233697E+04  0.25622233697E+04  0.00000000000E+00 0. -1.
         -2   -1    0    0    0  501 -0.00000000000E+00 -0.00000000000E+00 -0.43909155247E+03  0.43909155247E+03  0.00000000000E+00 0.  1.
         23    2    1    2    0    0 -0.70119401438E+03  0.60845413250E+02  0.21822388322E+04  0.22950084381E+04  0.97581762710E+02 0.  0.
         13    1    3    3    0    0 -0.53921809016E+02  0.16253892635E+01  0.99222705740E+02  0.11293957992E+03  0.00000000000E+00 0. -1.
        -13    1    3    3    0    0 -0.64727220536E+03  0.59220023987E+02  0.20830161264E+04  0.21820688582E+04  0.00000000000E+00 0.  1.
         22    1    1    2    0    0  0.70119401438E+03 -0.60845413250E+02 -0.59107014966E+02  0.70630648399E+03  0.00000000000E+00 0.  1.
<mgrwt>
<rscale>  0 0.21213681E+04</rscale>
<asrwt>0</asrwt>
<pdfrwt beam="1">  1        2 0.39418820E+00 0.21213681E+04</pdfrwt>
<pdfrwt beam="2">  1       -2 0.67552548E-01 0.21213681E+04</pdfrwt>
<totfact> 0.59201454E+00</totfact>
</mgrwt>
</event>
<event>
 6    1  0.1588846E-005  0.2217631E+04  0.7818608E-02  0.8511125E-01
          3   -1    0    0  501    0  0.00000000000E+00  0.00000000000E+00  0.23271605595E+04  0.23271605595E+04  0.00000000000E+00 0. -1.
         -3   -1    0    0    0  501 -0.00000000000E+00 -0.00000000000E+00 -0.52831402696E+03  0.52831402696E+03  0.00000000000E+00 0.  1.
         23    2    1    2    0    0  0.26422013568E+03  0.33894027140E+03 -0.41253545617E+03  0.60272003088E+03  0.91614111111E+02 0.  0.
         11    1    3    3    0    0  0.11486989524E+03  0.15383957128E+03 -0.12296834202E+03  0.22799763083E+03  0.00000000000E+00 0. -1.
        -11    1    3    3    0    0  0.14935024044E+03  0.18510070011E+03 -0.28956711415E+03  0.37472240005E+03  0.00000000000E+00 0.  1.
         22    1    1    2    0    0 -0.26422013568E+03 -0.33894027140E+03  0.22113819887E+04  0.22527545556E+04  0.00000000000E+00 0. -1.
<mgrwt>
<rscale>  0 0.22176308E+04</rscale>
<asrwt>0</asrwt>
<pdfrwt beam="1">  1        3 0.35802470E+00 0.22176308E+04</pdfrwt>
<pdfrwt beam="2">  1       -3 0.81279083E-01 0.22176308E+04</pdfrwt>
<totfact> 0.62490681E-02</totfact>
</mgrwt>
</event>
<event>
 6    1  0.2894074E-005  0.2285890E+04  0.7818608E-02  0.8483506E-01
          1   -1    0    0  501    0  0.00000000000E+00  0.00000000000E+00  0.12035179337E+04  0.12035179337E+04  0.00000000000E+00 0. -1.
         -1   -1    0    0    0  501 -0.00000000000E+00 -0.00000000000E+00 -0.10854202221E+04  0.10854202221E+04  0.00000000000E+00 0.  1.
         23    2    1    2    0    0 -0.44767701396E+03 -0.29484141950E+03 -0.95024732945E+03  0.10936527094E+04  0.75895258172E+02 0.  0.
         11    1    3    3    0    0 -0.21748739859E+03 -0.10498236266E+03 -0.46590115362E+03  0.52477228391E+03  0.00000000000E+00 0.  1.
        -11    1    3    3    0    0 -0.23018961537E+03 -0.18985905683E+03 -0.48434617583E+03  0.56888042551E+03  0.00000000000E+00 0. -1.
         22    1    1    2    0    0  0.44767701396E+03  0.29484141950E+03  0.10683450411E+04  0.11952854464E+04  0.00000000000E+00 0. -1.
<mgrwt>
<rscale>  0 0.22858895E+04</rscale>
<asrwt>0</asrwt>
<pdfrwt beam="1">  1        1 0.18515661E+00 0.22858895E+04</pdfrwt>
<pdfrwt beam="2">  1       -1 0.16698773E+00 0.22858895E+04</pdfrwt>
<totfact> 0.24900596E+00</totfact>
</mgrwt>
</event>
<event>
 6    1  0.1588846E-005  0.1797375E+04  0.7818608E-02  0.8707697E-01
         -2   -1    0    0    0  501 -0.00000000000E+00  0.00000000000E+00  0.34323363298E+03  0.34323363298E+03  0.00000000000E+00 0.  1.
          2   -1    0    0  501    0  0.00000000000E+00 -0.00000000000E+00 -0.23530305934E+04  0.23530305934E+04  0.00000000000E+00 0. -1.
         23    2    1    2    0    0  0.55278791099E+02  0.24582898325E+03 -0.22980517434E+04  0.23134085699E+04  0.85614030520E+02 0.  0.
         11    1    3    3    0    0  0.46397007235E+02  0.23801437124E+03 -0.19310540515E+04  0.19462202530E+04  0.00000000000E+00 0. -1.
        -11    1    3    3    0    0  0.88817838641E+01  0.78146120042E+01 -0.36699769190E+03  0.36718831695E+03  0.00000000000E+00 0.  1.
         22    1    1    2    0    0 -0.55278791099E+02 -0.24582898325E+03  0.28825478300E+03  0.38285565645E+03  0.00000000000E+00 0.  1.
<mgrwt>
<rscale>  0 0.17973750E+04</rscale>
<asrwt>0</asrwt>
<pdfrwt beam="1">  1        2 0.36200470E+00 0.17973750E+04</pdfrwt>
<pdfrwt beam="2">  1       -2 0.52805175E-01 0.17973750E+04</pdfrwt>
<totfact> 0.13518823E+01</totfact>
</mgrwt>
</event>
<event>
 6    1  0.1588846E-005  0.2941342E+04  0.7818608E-02  0.8260682E-01
         -2   -1    0    0    0  501 -0.00000000000E+00  0.00000000000E+00  0.30556543493E+04  0.30556543493E+04  0.00000000000E+00 0.  1.
          2   -1    0    0  501    0  0.00000000000E+00 -0.00000000000E+00 -0.70782674486E+03  0.70782674486E+03  0.00000000000E+00 0. -1.
         23    2    1    2    0    0  0.24197569931E+03  0.11643633050E+04  0.22789288106E+04  0.25722459415E+04  0.92943611938E+02 0.  0.
         13    1    3    3    0    0  0.22793886283E+03  0.94469092498E+03  0.18171582392E+04  0.20606943333E+04  0.00000000000E+00 0. -1.
        -13    1    3    3    0    0  0.14036836485E+02  0.21967238003E+03  0.46177057135E+03  0.51155160823E+03  0.00000000000E+00 0.  1.
         22    1    1    2    0    0 -0.24197569931E+03 -0.11643633050E+04  0.68898793883E+02  0.11912351526E+04  0.00000000000E+00 0. -1.
<mgrwt>
<rscale>  0 0.29413425E+04</rscale>
<asrwt>0</asrwt>
<pdfrwt beam="1">  1        2 0.10889642E+00 0.29413425E+04</pdfrwt>
<pdfrwt beam="2">  1       -2 0.47010066E+00 0.29413425E+04</pdfrwt>
<totfact> 0.88778793E-02</totfact>
</mgrwt>
</event>
<event>
 6    1  0.1588846E-005  0.2280864E+04  0.7818608E-02  0.8485505E-01
         -2   -1    0    0    0  501 -0.00000000000E+00  0.00000000000E+00  0.47463182556E+03  0.47463182556E+03  0.00000000000E+00 0.  1.
          2   -1    0    0  501    0  0.00000000000E+00 -0.00000000000E+00 -0.27401983130E+04  0.27401983130E+04  0.00000000000E+00 0. -1.
         23    2    1    2    0    0 -0.86528057380E+03  0.71054899612E+03 -0.84322275803E+03  0.14046776500E+04  0.92218942998E+02 0.  0.
         11    1    3    3    0    0 -0.56274167373E+03  0.51332526004E+03 -0.59306349105E+03  0.96535243221E+03  0.00000000000E+00 0. -1.
        -11    1    3    3    0    0 -0.30253890007E+03  0.19722373608E+03 -0.25015926698E+03  0.43932521779E+03  0.00000000000E+00 0.  1.
         22    1    1    2    0    0  0.86528057380E+03 -0.71054899612E+03 -0.14223437294E+04  0.18101524886E+04  0.00000000000E+00 0. -1.
<mgrwt>
<rscale>  0 0.22808642E+04</rscale>
<asrwt>0</asrwt>
<pdfrwt beam="1">  1        2 0.42156896E+00 0.22808642E+04</pdfrwt>
<pdfrwt beam="2">  1       -2 0.73020283E-01 0.22808642E+04</pdfrwt>
<totfact> 0.38663755E+00</totfact>
</mgrwt>
</event>
<event>
 6    1  0.1588846E-005  0.1567360E+04  0.7818608E-02  0.8840855E-01
         -1   -1    0    0    0  501 -0.00000000000E+00  0.00000000000E+00  0.57712457717E+03  0.57712457717E+03  0.00000000000E+00 0.  1.
          1   -1    0    0  501    0  0.00000000000E+00 -0.00000000000E+00 -0.10641626431E+04  0.10641626431E+04  0.00000000000E+00 0. -1.
         23    2    1    2    0    0  0.14556030972E+03  0.51033057080E+03  0.35560055430E+03  0.64546347104E+03  0.92445892119E+02 0.  0.
         13    1    3    3    0    0  0.31572111517E+02  0.23089072943E+03  0.19342845017E+03  0.30285622413E+03  0.00000000000E+00 0.  1.
        -13    1    3    3    0    0  0.11398819820E+03  0.27943984137E+03  0.16217210413E+03  0.34260724691E+03  0.00000000000E+00 0. -1.
         22    1    1    2    0    0 -0.14556030972E+03 -0.51033057080E+03 -0.84263862024E+03  0.99582374925E+03  0.00000000000E+00 0. -1.
<mgrwt>
<rscale>  0 0.15673601E+04</rscale>
<asrwt>0</asrwt>
<pdfrwt beam="1">  1        1 0.16371733E+00 0.15673601E+04</pdfrwt>
<pdfrwt beam="2">  1       -1 0.88788396E-01 0.15673601E+04</pdfrwt>
<totfact> 0.16165905E+01</totfact>
</mgrwt>
</event>
<event>
 6    1  0.1588846E-005  0.2333839E+04  0.7818608E-02  0.8464697E-01
          2   -1    0    0  501    0  0.00000000000E+00  0.00000000000E+00  0.16307828111E+04  0.16307828111E+04  0.00000000000E+00 0. -1.
         -2   -1    0    0    0  501 -0.00000000000E+00 -0.00000000000E+00 -0.83499859572E+03  0.83499859572E+03  0.00000000000E+00 0.  1.
         23    2    1    2    0    0 -0.95819054306E+03  0.23123415174E+03 -0.25743623169E+03  0.10232587346E+04  0.95847142923E+02 0.  0.
         13    1    3    3    0    0 -0.58930317385E+03  0.11618496284E+03 -0.19713223059E+03  0.63216951258E+03  0.00000000000E+00 0. -1.
        -13    1    3    3    0    0 -0.36888736921E+03  0.11504918891E+03 -0.60304001098E+02  0.39108922202E+03  0.00000000000E+00 0.  1.
         22    1    1    2    0    0  0.95819054306E+03 -0.23123415174E+03  0.10532204471E+04  0.14425226722E+04  0.00000000000E+00 0. -1.
<mgrwt>
<rscale>  0 0.23338392E+04</rscale>
<asrwt>0</asrwt>
<pdfrwt beam="1">  1        2 0.25088966E+00 0.23338392E+04</pdfrwt>
<pdfrwt beam="2">  1       -2 0.12846132E+00 0.23338392E+04</pdfrwt>
<totfact> 0.43380922E+00</totfact>
</mgrwt>
</event>
<event>
 6    1  0.1588846E-005  0.9878027E+03  0.7818608E-02  0.9322025E-01
         -1   -1    0    0    0  501 -0.00000000000E+00  0.00000000000E+00  0.12478677371E+03  0.12478677371E+03  0.00000000000E+00 0.  1.
          1   -1    0    0  501    0  0.00000000000E+00 -0.00000000000E+00 -0.19548431254E+04  0.19548431254E+04  0.00000000000E+00 0. -1.
         23    2    1    2    0    0  0.48569767629E+03  0.47529420168E+02 -0.99058913165E+03  0.11086167725E+04  0.97995111966E+02 0.  0.
         11    1    3    3    0    0  0.23115598518E+03 -0.18189997211E+02 -0.52526338972E+03  0.57416512787E+03  0.00000000000E+00 0.  1.
        -11    1    3    3    0    0  0.25454169111E+03  0.65719417379E+02 -0.46532574193E+03  0.53445164461E+03  0.00000000000E+00 0. -1.
         22    1    1    2    0    0 -0.48569767629E+03 -0.47529420168E+02 -0.83946722002E+03  0.97101312659E+03  0.00000000000E+00 0. -1.
<mgrwt>
<rscale>  0 0.98780275E+03</rscale>
<asrwt>0</asrwt>
<pdfrwt beam="1">  1        1 0.30074508E+00 0.98780275E+03</pdfrwt>
<pdfrwt beam="2">  1       -1 0.19197966E-01 0.98780275E+03</pdfrwt>
<totfact> 0.70597419E+01</totfact>
</mgrwt>
</event>
<event>
 6    1  0.1588846E-005  0.4644864E+04  0.7818608E-02  0.7885755E-01
         -2   -1    0    0    0  501 -0.00000000000E+00  0.00000000000E+00  0.25613157996E+04  0.25613157996E+04  0.00000000000E+00 0.  1.
          2   -1    0    0  501    0  0.00000000000E+00 -0.00000000000E+00 -0.21058275194E+04  0.21058275194E+04  0.00000000000E+00 0. -1.
         23    2    1    2    0    0  0.20868191126E+04  0.10166195139E+04  0.18474801251E+03  0.23301303672E+04  0.83943166963E+02 0.  0.
         13    1    3    3    0    0  0.72944648766E+03  0.35506230805E+03  0.10475761494E+03  0.81800707750E+03  0.00000000000E+00 0. -1.
        -13    1    3    3    0    0  0.13573726249E+04  0.66155720585E+03  0.79990397565E+02  0.15121232897E+04  0.00000000000E+00 0.  1.
         22    1    1    2    0    0 -0.20868191126E+04 -0.10166195139E+04  0.27074026768E+03  0.23370129518E+04  0.00000000000E+00 0. -1.
<mgrwt>
<rscale>  0 0.46448635E+04</rscale>
<asrwt>0</asrwt>
<pdfrwt beam="1">  1        2 0.32397346E+00 0.46448635E+04</pdfrwt>
<pdfrwt beam="2">  1       -2 0.39404859E+00 0.46448635E+04</pdfrwt>
<totfact> 0.35461123E-02</totfact>
</mgrwt>
</event>
<event>
 6    1  0.1588846E-005  0.2164385E+04  0.7818608E-02  0.8533400E-01
         -1   -1    0    0    0  501 -0.00000000000E+00  0.00000000000E+00  0.67959862885E+03  0.67959862885E+03  0.00000000000E+00 0.  1.
          1   -1    0    0  501    0  0.00000000000E+00 -0.00000000000E+00 -0.17232825056E+04  0.17232825056E+04  0.00000000000E+00 0. -1.
         23    2    1    2    0    0  0.79585785181E+03 -0.10944527996E+03 -0.13245801912E+04  0.15518401665E+04  0.91253657229E+02 0.  0.
         11    1    3    3    0    0  0.98641998880E+02 -0.40692077068E+02 -0.14772902028E+03  0.18223598029E+03  0.00000000000E+00 0. -1.
        -11    1    3    3    0    0  0.69721585293E+03 -0.68753202891E+02 -0.11768511709E+04  0.13696041862E+04  0.00000000000E+00 0.  1.
         22    1    1    2    0    0 -0.79585785181E+03  0.10944527996E+03  0.28089631445E+03  0.85104096791E+03  0.00000000000E+00 0.  1.
<mgrwt>
<rscale>  0 0.21643848E+04</rscale>
<asrwt>0</asrwt>
<pdfrwt beam="1">  1        1 0.26512038E+00 0.21643848E+04</pdfrwt>
<pdfrwt beam="2">  1       -1 0.10455364E+00 0.21643848E+04</pdfrwt>
<totfact> 0.36128847E+00</totfact>
</mgrwt>
</event>
<event>
 6    1  0.1588846E-005  0.3339688E+04  0.7818608E-02  0.8152870E-01
          2   -1    0    0  501    0  0.00000000000E+00  0.00000000000E+00  0.10157478181E+04  0.10157478181E+04  0.00000000000E+00 0.  1.
         -2   -1    0    0    0  501 -0.00000000000E+00 -0.00000000000E+00 -0.27451487342E+04  0.27451487342E+04  0.00000000000E+00 0. -1.
         23    2    1    2    0    0 -0.14761923812E+04  0.53331338113E+03 -0.22769822349E+03  0.15886447056E+04  0.91533659795E+02 0.  0.
         13    1    3    3    0    0 -0.11729870352E+04  0.46132332672E+03 -0.19170128655E+03  0.12749381082E+04  0.00000000000E+00 0. -1.
        -13    1    3    3    0    0 -0.30320534601E+03  0.71990054406E+02 -0.35996936939E+02  0.31370659739E+03  0.00000000000E+00 0.  1.
         22    1    1    2    0    0  0.14761923812E+04 -0.53331338113E+03 -0.15017026926E+04  0.21722518468E+04  0.00000000000E+00 0.  1.
<mgrwt>
<rscale>  0 0.33396879E+04</rscale>
<asrwt>0</asrwt>
<pdfrwt beam="1">  1        2 0.15626889E+00 0.33396879E+04</pdfrwt>
<pdfrwt beam="2">  1       -2 0.42233058E+00 0.33396879E+04</pdfrwt>
<totfact> 0.10830029E-01</totfact>
</mgrwt>
</event>
<event>
 6    1  0.1588846E-005  0.7689038E+03  0.7818608E-02  0.9606151E-01
          2   -1    0    0  501    0  0.00000000000E+00  0.00000000000E+00  0.73684650797E+03  0.73684650797E+03  0.00000000000E+00 0. -1.
         -2   -1    0    0    0  501 -0.00000000000E+00 -0.00000000000E+00 -0.20058893018E+03  0.20058893018E+03  0.00000000000E+00 0.  1.
         23    2    1    2    0    0 -0.14027266078E+03  0.34405042951E+03  0.18107024188E+03  0.42342652676E+03  0.91959086882E+02 0.  0.
         13    1    3    3    0    0 -0.96576452238E+02  0.12826604324E+03  0.54976452494E+02  0.16971033941E+03  0.00000000000E+00 0. -1.
        -13    1    3    3    0    0 -0.43696208544E+02  0.21578438627E+03  0.12609378939E+03  0.25371618735E+03  0.00000000000E+00 0.  1.
         22    1    1    2    0    0  0.14027266078E+03 -0.34405042951E+03  0.35518733590E+03  0.51400891139E+03  0.00000000000E+00 0.  1.
<mgrwt>
<rscale>  0 0.76890377E+03</rscale>
<asrwt>0</asrwt>
<pdfrwt beam="1">  1        2 0.11336100E+00 0.76890377E+03</pdfrwt>
<pdfrwt beam="2">  1       -2 0.30859836E-01 0.76890377E+03</pdfrwt>
<totfact> 0.37510948E+02</totfact>
</mgrwt>
</event>
<event>
 6    1  0.1588846E-005  0.2410249E+04  0.7818608E-02  0.8435676E-01
          1   -1    0    0  501    0  0.00000000000E+00  0.00000000000E+00  0.11763955832E+04  0.11763955832E+04  0.00000000000E+00 0. -1.
         -1   -1    0    0    0  501 -0.00000000000E+00 -0.00000000000E+00 -0.12345552708E+04  0.12345552708E+04  0.00000000000E+00 0.  1.
         23    2    1    2    0    0  0.29609700882E+03  0.26125850858E+03 -0.11661544121E+04  0.12346933327E+04  0.92855080967E+02 0.  0.
         13    1    3    3    0    0  0.52246435293E+02  0.90926111744E+02 -0.23903602640E+03  0.26102771828E+03  0.00000000000E+00 0.  1.
        -13    1    3    3    0    0  0.24385057353E+03  0.17033239684E+03 -0.92711838566E+03  0.97366561439E+03  0.00000000000E+00 0. -1.
         22    1    1    2    0    0 -0.29609700882E+03 -0.26125850858E+03  0.11079947245E+04  0.11762575213E+04  0.00000000000E+00 0. -1.
<mgrwt>
<rscale>  0 0.24102493E+04</rscale>
<asrwt>0</asrwt>
<pdfrwt beam="1">  1        1 0.18098393E+00 0.24102493E+04</pdfrwt>
<pdfrwt beam="2">  1       -1 0.18993158E+00 0.24102493E+04</pdfrwt>
<totfact> 0.17613785E+00</totfact>
</mgrwt>
</event>
<event>
 6    1  0.1588846E-005  0.1308293E+04  0.7818608E-02  0.9023014E-01
         -3   -1    0    0    0  501 -0.00000000000E+00  0.00000000000E+00  0.96051415862E+03  0.96051415862E+03  0.00000000000E+00 0.  1.
          3   -1    0    0  501    0  0.00000000000E+00 -0.00000000000E+00 -0.44549867317E+03  0.44549867317E+03  0.00000000000E+00 0. -1.
         23    2    1    2    0    0  0.30465752960E+03 -0.48784702110E+03  0.58657704302E+03  0.82641643527E+03  0.89891994862E+02 0.  0.
         11    1    3    3    0    0  0.15176237451E+03 -0.18427400377E+03  0.19795001963E+03  0.31011761810E+03  0.00000000000E+00 0. -1.
        -11    1    3    3    0    0  0.15289515509E+03 -0.30357301733E+03  0.38862702339E+03  0.51629881717E+03  0.00000000000E+00 0.  1.
         22    1    1    2    0    0 -0.30465752960E+03  0.48784702110E+03 -0.71561557573E+02  0.57959639652E+03  0.00000000000E+00 0. -1.
<mgrwt>
<rscale>  0 0.13082932E+04</rscale>
<asrwt>0</asrwt>
<pdfrwt beam="1">  1        3 0.68538258E-01 0.13082932E+04</pdfrwt>
<pdfrwt beam="2">  1       -3 0.14777141E+00 0.13082932E+04</pdfrwt>
<totfact> 0.17585808E+00</totfact>
</mgrwt>
</event>
<event>
 6    1  0.1588846E-005  0.8078975E+03  0.7818608E-02  0.9548656E-01
          2   -1    0    0  501    0  0.00000000000E+00  0.00000000000E+00  0.15836773680E+04  0.15836773680E+04  0.00000000000E+00 0. -1.
         -2   -1    0    0    0  501 -0.00000000000E+00 -0.00000000000E+00 -0.10303523691E+03  0.10303523691E+03  0.00000000000E+00 0.  1.
         23    2    1    2    0    0 -0.10422293608E+03  0.24472446070E+03  0.13702226050E+04  0.13987109490E+04  0.90165677474E+02 0.  0.
         11    1    3    3    0    0 -0.92790749706E+02  0.10324680621E+03  0.69658815101E+03  0.71028520916E+03  0.00000000000E+00 0. -1.
        -11    1    3    3    0    0 -0.11432186372E+02  0.14147765449E+03  0.67363445401E+03  0.68842573981E+03  0.00000000000E+00 0.  1.
         22    1    1    2    0    0  0.10422293608E+03 -0.24472446070E+03  0.11041952603E+03  0.28800165589E+03  0.00000000000E+00 0.  1.
<mgrwt>
<rscale>  0 0.80789745E+03</rscale>
<asrwt>0</asrwt>
<pdfrwt beam="1">  1        2 0.24364265E+00 0.80789745E+03</pdfrwt>
<pdfrwt beam="2">  1       -2 0.15851576E-01 0.80789745E+03</pdfrwt>
<totfact> 0.36717071E+02</totfact>
</mgrwt>
</event>
<event>
 6    1  0.1588846E-005  0.4119968E+04  0.7818608E-02  0.7980773E-01
          2   -1    0    0  501    0  0.00000000000E+00  0.00000000000E+00  0.22475239142E+04  0.22475239142E+04  0.00000000000E+00 0. -1.
         -2   -1    0    0    0  501 -0.00000000000E+00 -0.00000000000E+00 -0.18880926783E+04  0.18880926783E+04  0.00000000000E+00 0.  1.
         23    2    1    2    0    0  0.18078089379E+04 -0.84209562833E+03  0.69367560322E+03  0.21134846730E+04  0.91287552507E+02 0.  0.
         11    1    3    3    0    0  0.10006753084E+04 -0.41893034110E+03  0.39328673687E+03  0.11539186111E+04  0.00000000000E+00 0.  1.
        -11    1    3    3    0    0  0.80713362946E+03 -0.42316528723E+03  0.30038886635E+03  0.95956606190E+03  0.00000000000E+00 0. -1.
         22    1    1    2    0    0 -0.18078089379E+04  0.84209562833E+03 -0.33424436735E+03  0.20221319196E+04  0.00000000000E+00 0.  1.
<mgrwt>
<rscale>  0 0.41199677E+04</rscale>
<asrwt>0</asrwt>
<pdfrwt beam="1">  1        2 0.34577291E+00 0.41199677E+04</pdfrwt>
<pdfrwt beam="2">  1       -2 0.29047580E+00 0.41199677E+04</pdfrwt>
<totfact> 0.13786480E-01</totfact>
</mgrwt>
</event>
<event>
 6    1  0.1588846E-005  0.7328610E+03  0.7818608E-02  0.9662629E-01
          1   -1    0    0  501    0  0.00000000000E+00  0.00000000000E+00  0.25765254848E+03  0.25765254848E+03  0.00000000000E+00 0. -1.
         -1   -1    0    0    0  501 -0.00000000000E+00 -0.00000000000E+00 -0.52113327974E+03  0.52113327974E+03  0.00000000000E+00 0.  1.
         23    2    1    2    0    0 -0.76019821266E+02  0.30941943768E+03 -0.31370496269E+03  0.45623060030E+03  0.90643010730E+02 0.  0.
         13    1    3    3    0    0 -0.68810750118E+02  0.20865550542E+03 -0.15798592870E+03  0.27061336431E+03  0.00000000000E+00 0. -1.
        -13    1    3    3    0    0 -0.72090711484E+01  0.10076393226E+03 -0.15571903399E+03  0.18561723599E+03  0.00000000000E+00 0.  1.
         22    1    1    2    0    0  0.76019821266E+02 -0.30941943768E+03  0.50224231428E+02  0.32255522792E+03  0.00000000000E+00 0. -1.
<mgrwt>
<rscale>  0 0.73286102E+03</rscale>
<asrwt>0</asrwt>
<pdfrwt beam="1">  1        1 0.39638854E-01 0.73286102E+03</pdfrwt>
<pdfrwt beam="2">  1       -1 0.80174350E-01 0.73286102E+03</pdfrwt>
<totfact> 0.16840012E+02</totfact>
</mgrwt>
</event>
<event>
 6    1  0.1588846E-005  0.2893813E+04  0.7818608E-02  0.8274721E-01
         -1   -1    0    0    0  501 -0.00000000000E+00  0.00000000000E+00  0.13745776552E+04  0.13745776552E+04  0.00000000000E+00 0.  1.
          1   -1    0    0  501    0  0.00000000000E+00 -0.00000000000E+00 -0.15230416532E+04  0.15230416532E+04  0.00000000000E+00 0. -1.
         23    2    1    2    0    0 -0.67376900498E+03 -0.12713158328E+04  0.64278107235E+02  0.14431545196E+04  0.91403903582E+02 0.  0.
         11    1    3    3    0    0 -0.58984400749E+03 -0.10459661326E+04  0.40315912006E+02  0.12014934359E+04  0.00000000000E+00 0. -1.
        -11    1    3    3    0    0 -0.83924997483E+02 -0.22534970019E+03  0.23962195228E+02  0.24166108371E+03  0.00000000000E+00 0.  1.
         22    1    1    2    0    0  0.67376900498E+03  0.12713158328E+04 -0.21274210521E+03  0.14544647889E+04  0.00000000000E+00 0. -1.
<mgrwt>
<rscale>  0 0.28938134E+04</rscale>
<asrwt>0</asrwt>
<pdfrwt beam="1">  1        1 0.23431410E+00 0.28938134E+04</pdfrwt>
<pdfrwt beam="2">  1       -1 0.21147349E+00 0.28938134E+04</pdfrwt>
<totfact> 0.68035679E-01</totfact>
</mgrwt>
</event>
<event>
 6    1  0.1588846E-005  0.2767613E+04  0.7818608E-02  0.8313394E-01
         -1   -1    0    0    0  501 -0.00000000000E+00  0.00000000000E+00  0.25980679313E+04  0.25980679313E+04  0.00000000000E+00 0.  1.
          1   -1    0    0  501    0  0.00000000000E+00 -0.00000000000E+00 -0.73705578557E+03  0.73705578557E+03  0.00000000000E+00 0. -1.
         23    2    1    2    0    0 -0.50931633491E+03 -0.12006427669E+04  0.37964460350E+03  0.13614479639E+04  0.92001905313E+02 0.  0.
         11    1    3    3    0    0 -0.18831857465E+03 -0.38039420134E+03  0.16037372666E+03  0.45374372302E+03  0.00000000000E+00 0.  1.
        -11    1    3    3    0    0 -0.32099776026E+03 -0.82024856559E+03  0.21927087684E+03  0.90770424085E+03  0.00000000000E+00 0. -1.
         22    1    1    2    0    0  0.50931633491E+03  0.12006427669E+04  0.14813675422E+04  0.19736757530E+04  0.00000000000E+00 0.  1.
<mgrwt>
<rscale>  0 0.27676134E+04</rscale>
<asrwt>0</asrwt>
<pdfrwt beam="1">  1        1 0.11339320E+00 0.27676134E+04</pdfrwt>
<pdfrwt beam="2">  1       -1 0.39970275E+00 0.27676134E+04</pdfrwt>
<totfact> 0.15695303E-01</totfact>
</mgrwt>
</event>
<event>
 6    1  0.1588846E-005  0.2215447E+04  0.7818608E-02  0.8512026E-01
         -3   -1    0    0    0  501 -0.00000000000E+00  0.00000000000E+00  0.19697433508E+04  0.19697433508E+04  0.00000000000E+00 0.  1.
          3   -1    0    0  501    0  0.00000000000E+00 -0.00000000000E+00 -0.62294988532E+03  0.62294988532E+03  0.00000000000E+00 0. -1.
         23    2    1    2    0    0  0.92186458247E+03  0.51840809473E+03  0.10520365958E+04  0.14947575033E+04  0.94539588954E+02 0.  0.
         13    1    3    3    0    0  0.29185109799E+03  0.15334328241E+03  0.26913549926E+03  0.42558799633E+03  0.00000000000E+00 0. -1.
        -13    1    3    3    0    0  0.63001348448E+03  0.36506481232E+03  0.78290109649E+03  0.10691695070E+04  0.00000000000E+00 0.  1.
         22    1    1    2    0    0 -0.92186458247E+03 -0.51840809473E+03  0.29475686975E+03  0.10979357328E+04  0.00000000000E+00 0. -1.
<mgrwt>
<rscale>  0 0.22154470E+04</rscale>
<asrwt>0</asrwt>
<pdfrwt beam="1">  1        3 0.95838445E-01 0.22154470E+04</pdfrwt>
<pdfrwt beam="2">  1       -3 0.30303744E+00 0.22154470E+04</pdfrwt>
<totfact> 0.84115235E-02</totfact>
</mgrwt>
</event>
<event>
 6    1  0.1588846E-005  0.1623104E+04  0.7818608E-02  0.8806479E-01
         -2   -1    0    0    0  501 -0.00000000000E+00  0.00000000000E+00  0.44444027289E+03  0.44444027289E+03  0.00000000000E+00 0.  1.
          2   -1    0    0  501    0  0.00000000000E+00 -0.00000000000E+00 -0.14819017074E+04  0.14819017074E+04  0.00000000000E+00 0. -1.
         23    2    1    2    0    0  0.15118290900E+03 -0.45628462566E+03 -0.12926482449E+04  0.13821248914E+04  0.90982410143E+02 0.  0.
         13    1    3    3    0    0  0.69323327499E+02 -0.15583551232E+03 -0.34947158890E+03  0.38887121529E+03  0.00000000000E+00 0.  1.
        -13    1    3    3    0    0  0.81859581505E+02 -0.30044911334E+03 -0.94317665596E+03  0.99325367613E+03  0.00000000000E+00 0. -1.
         22    1    1    2    0    0 -0.15118290900E+03  0.45628462566E+03  0.25518681038E+03  0.54421708883E+03  0.00000000000E+00 0.  1.
<mgrwt>
<rscale>  0 0.16231042E+04</rscale>
<asrwt>0</asrwt>
<pdfrwt beam="1">  1        2 0.22798488E+00 0.16231042E+04</pdfrwt>
<pdfrwt beam="2">  1       -2 0.68375425E-01 0.16231042E+04</pdfrwt>
<totfact> 0.24340318E+01</totfact>
</mgrwt>
</event>
<event>
 6    1  0.1588846E-005  0.5233872E+04  0.7818608E-02  0.7793409E-01
         -2   -1    0    0    0  501 -0.00000000000E+00  0.00000000000E+00  0.20784485667E+04  0.20784485667E+04  0.00000000000E+00 0.  1.
          2   -1    0    0  501    0  0.00000000000E+00 -0.00000000000E+00 -0.32949351196E+04  0.32949351196E+04  0.00000000000E+00 0. -1.
         23    2    1    2    0    0  0.69878591025E+03 -0.24122227809E+04  0.14396165524E+03  0.25171729413E+04  0.91182042596E+02 0.  0.
         11    1    3    3    0    0  0.40836622484E+03 -0.15404977845E+04  0.66695556227E+02  0.15951002147E+04  0.00000000000E+00 0.  1.
        -11    1    3    3    0    0  0.29041968541E+03 -0.87172499639E+03  0.77266099010E+02  0.92207272656E+03  0.00000000000E+00 0. -1.
         22    1    1    2    0    0 -0.69878591025E+03  0.24122227809E+04 -0.13604482080E+04  0.28562107450E+04  0.00000000000E+00 0. -1.
<mgrwt>
<rscale>  0 0.52338717E+04</rscale>
<asrwt>0</asrwt>
<pdfrwt beam="1">  1        2 0.50691309E+00 0.52338717E+04</pdfrwt>
<pdfrwt beam="2">  1       -2 0.31976132E+00 0.52338717E+04</pdfrwt>
<totfact> 0.19250893E-02</totfact>
</mgrwt>
</event>
<event>
 6    1  0.1588846E-005  0.2585252E+04  0.7818608E-02  0.8373228E-01
          1   -1    0    0  501    0  0.00000000000E+00  0.00000000000E+00  0.11443489428E+04  0.11443489428E+04  0.00000000000E+00 0. -1.
         -1   -1    0    0    0  501 -0.00000000000E+00 -0.00000000000E+00 -0.14601153969E+04  0.14601153969E+04  0.00000000000E+00 0.  1.
         23    2    1    2    0    0  0.19968127526E+03  0.98779846716E+03 -0.97107041863E+03  0.14023654630E+04  0.89625388860E+02 0.  0.
         13    1    3    3    0    0  0.73093524530E+02  0.39295400284E+03 -0.44604379843E+03  0.59892452095E+03  0.00000000000E+00 0. -1.
        -13    1    3    3    0    0  0.12658775073E+03  0.59484446432E+03 -0.52502662019E+03  0.80344094200E+03  0.00000000000E+00 0.  1.
         22    1    1    2    0    0 -0.19968127526E+03 -0.98779846716E+03  0.65530396453E+03  0.12020988767E+04  0.00000000000E+00 0. -1.
<mgrwt>
<rscale>  0 0.25852516E+04</rscale>
<asrwt>0</asrwt>
<pdfrwt beam="1">  1        1 0.17605368E+00 0.25852516E+04</pdfrwt>
<pdfrwt beam="2">  1       -1 0.22463314E+00 0.25852516E+04</pdfrwt>
<totfact> 0.10614057E+00</totfact>
</mgrwt>
</event>
<event>
 6    1  0.1588846E-005  0.3202929E+04  0.7818608E-02  0.8188044E-01
         -2   -1    0    0    0  501 -0.00000000000E+00  0.00000000000E+00  0.22768567632E+04  0.22768567632E+04  0.00000000000E+00 0.  1.
          2   -1    0    0  501    0  0.00000000000E+00 -0.00000000000E+00 -0.11264160864E+04  0.11264160864E+04  0.00000000000E+00 0. -1.
         23    2    1    2    0    0  0.90325467678E+03 -0.70801279293E+03  0.17604933986E+04  0.21035361649E+04  0.91521934802E+02 0.  0.
         11    1    3    3    0    0  0.66747589606E+03 -0.51297512111E+03  0.13611996425E+04  0.16004786826E+04  0.00000000000E+00 0. -1.
        -11    1    3    3    0    0  0.23577878072E+03 -0.19503767182E+03  0.39929375611E+03  0.50305748234E+03  0.00000000000E+00 0.  1.
         22    1    1    2    0    0 -0.90325467678E+03  0.70801279293E+03 -0.61005272188E+03  0.12997366847E+04  0.00000000000E+00 0. -1.
<mgrwt>
<rscale>  0 0.32029287E+04</rscale>
<asrwt>0</asrwt>
<pdfrwt beam="1">  1        2 0.17329478E+00 0.32029287E+04</pdfrwt>
<pdfrwt beam="2">  1       -2 0.35028565E+00 0.32029287E+04</pdfrwt>
<totfact> 0.27362300E-01</totfact>
</mgrwt>
</event>
<event>
 6    1  0.1588846E-005  0.4111487E+04  0.7818608E-02  0.7982426E-01
         -2   -1    0    0    0  501 -0.00000000000E+00  0.00000000000E+00  0.25070284333E+04  0.25070284333E+04  0.00000000000E+00 0.  1.
          2   -1    0    0  501    0  0.00000000000E+00 -0.00000000000E+00 -0.16856937814E+04  0.16856937814E+04  0.00000000000E+00 0. -1.
         23    2    1    2    0    0  0.12389102472E+04  0.77010488601E+03  0.18865159579E+04  0.23864632769E+04  0.91128349628E+02 0.  0.
         11    1    3    3    0    0  0.11387245654E+04  0.72782875451E+03  0.17719941082E+04  0.22285402064E+04  0.00000000000E+00 0. -1.
        -11    1    3    3    0    0  0.10018568181E+03  0.42276131499E+02  0.11452184969E+03  0.15792307048E+03  0.00000000000E+00 0.  1.
         22    1    1    2    0    0 -0.12389102472E+04 -0.77010488601E+03 -0.10651813060E+04  0.18062589379E+04  0.00000000000E+00 0. -1.
<mgrwt>
<rscale>  0 0.41114874E+04</rscale>
<asrwt>0</asrwt>
<pdfrwt beam="1">  1        2 0.25933750E+00 0.41114874E+04</pdfrwt>
<pdfrwt beam="2">  1       -2 0.38569668E+00 0.41114874E+04</pdfrwt>
<totfact> 0.71802647E-02</totfact>
</mgrwt>
</event>
<event>
 6    1  0.1588846E-005  0.2573542E+04  0.7818608E-02  0.8377244E-01
          2   -1    0    0  501    0  0.00000000000E+00  0.00000000000E+00  0.35583019333E+04  0.35583019333E+04  0.00000000000E+00 0. -1.
         -2   -1    0    0    0  501 -0.00000000000E+00 -0.00000000000E+00 -0.46532876352E+03  0.46532876352E+03  0.00000000000E+00 0.  1.
         23    2    1    2    0    0 -0.10696808724E+03 -0.11252518601E+04  0.59246908984E+03  0.12795179852E+04  0.92264466060E+02 0.  0.
         13    1    3    3    0    0 -0.17241708643E+02 -0.65850548516E+03  0.33763510083E+03  0.74021902962E+03  0.00000000000E+00 0. -1.
        -13    1    3    3    0    0 -0.89726378600E+02 -0.46674637493E+03  0.25483398901E+03  0.53929895558E+03  0.00000000000E+00 0.  1.
         22    1    1    2    0    0  0.10696808724E+03  0.11252518601E+04  0.25005040799E+04  0.27441127116E+04  0.00000000000E+00 0. -1.
<mgrwt>
<rscale>  0 0.25735425E+04</rscale>
<asrwt>0</asrwt>
<pdfrwt beam="1">  1        2 0.54743105E+00 0.25735425E+04</pdfrwt>
<pdfrwt beam="2">  1       -2 0.71589043E-01 0.25735425E+04</pdfrwt>
<totfact> 0.11612775E+00</totfact>
</mgrwt>
</event>
<event>
 6    1  0.1588846E-005  0.3119188E+04  0.7818608E-02  0.8210492E-01
          2   -1    0    0  501    0  0.00000000000E+00  0.00000000000E+00  0.24625266871E+04  0.24625266871E+04  0.00000000000E+00 0. -1.
         -2   -1    0    0    0  501 -0.00000000000E+00 -0.00000000000E+00 -0.98773909744E+03  0.98773909744E+03  0.00000000000E+00 0.  1.
         23    2    1    2    0    0  0.57791159555E+03  0.76977939284E+03  0.20934943827E+04  0.23060017321E+04  0.91559445904E+02 0.  0.
         11    1    3    3    0    0  0.23771522493E+03  0.26838311238E+03  0.85938564970E+03  0.93117222794E+03  0.00000000000E+00 0.  1.
        -11    1    3    3    0    0  0.34019637063E+03  0.50139628046E+03  0.12341087330E+04  0.13748295042E+04  0.00000000000E+00 0. -1.
         22    1    1    2    0    0 -0.57791159555E+03 -0.76977939284E+03 -0.61870679305E+03  0.11442640524E+04  0.00000000000E+00 0.  1.
<mgrwt>
<rscale>  0 0.31191883E+04</rscale>
<asrwt>0</asrwt>
<pdfrwt beam="1">  1        2 0.37885026E+00 0.31191883E+04</pdfrwt>
<pdfrwt beam="2">  1       -2 0.15195986E+00 0.31191883E+04</pdfrwt>
<totfact> 0.89772135E-01</totfact>
</mgrwt>
</event>
<event>
 6    1  0.1588846E-005  0.4467915E+03  0.7818608E-02  0.1028683E+00
         -1   -1    0    0    0  501 -0.00000000000E+00  0.00000000000E+00  0.13919985644E+03  0.13919985644E+03  0.00000000000E+00 0.  1.
          1   -1    0    0  501    0  0.00000000000E+00 -0.00000000000E+00 -0.35851812337E+03  0.35851812337E+03  0.00000000000E+00 0. -1.
         23    2    1    2    0    0  0.83782500729E+02  0.17263094196E+03 -0.21999910917E+03  0.30582891526E+03  0.91163412754E+02 0.  0.
         11    1    3    3    0    0  0.41043398550E+02  0.94027581331E+02 -0.50920286140E+02  0.11453655380E+03  0.00000000000E+00 0.  1.
        -11    1    3    3    0    0  0.42739102180E+02  0.78603360627E+02 -0.16907882303E+03  0.19129236146E+03  0.00000000000E+00 0. -1.
         22    1    1    2    0    0 -0.83782500729E+02 -0.17263094196E+03  0.68084224145E+00  0.19188906456E+03  0.00000000000E+00 0.  1.
<mgrwt>
<rscale>  0 0.44679155E+03</rscale>
<asrwt>0</asrwt>
<pdfrwt beam="1">  1        1 0.55156635E-01 0.44679155E+03</pdfrwt>
<pdfrwt beam="2">  1       -1 0.21415362E-01 0.44679155E+03</pdfrwt>
<totfact> 0.12626110E+03</totfact>
</mgrwt>
</event>
<event>
 6    1  0.1588846E-005  0.2081623E+04  0.7818608E-02  0.8569382E-01
          1   -1    0    0  501    0  0.00000000000E+00  0.00000000000E+00  0.27219477353E+04  0.27219477353E+04  0.00000000000E+00 0. -1.
         -1   -1    0    0    0  501 -0.00000000000E+00 -0.00000000000E+00 -0.39798297170E+03  0.39798297170E+03  0.00000000000E+00 0.  1.
         23    2    1    2    0    0 -0.69797501059E+03 -0.76930588129E+03  0.11681240749E+04  0.15659138628E+04  0.92583567582E+02 0.  0.
         11    1    3    3    0    0 -0.14347453386E+03 -0.16785984635E+03  0.19473393887E+03  0.29442006866E+03  0.00000000000E+00 0.  1.
        -11    1    3    3    0    0 -0.55450047672E+03 -0.60144603494E+03  0.97339013603E+03  0.12714937941E+04  0.00000000000E+00 0. -1.
         22    1    1    2    0    0  0.69797501059E+03  0.76930588129E+03  0.11558406887E+04  0.15540168442E+04  0.00000000000E+00 0. -1.
<mgrwt>
<rscale>  0 0.20816233E+04</rscale>
<asrwt>0</asrwt>
<pdfrwt beam="1">  1        1 0.41876118E+00 0.20816233E+04</pdfrwt>
<pdfrwt beam="2">  1       -1 0.61228151E-01 0.20816233E+04</pdfrwt>
<totfact> 0.23614455E+00</totfact>
</mgrwt>
</event>
<event>
 6    1  0.1588846E-005  0.2726901E+04  0.7818608E-02  0.8326329E-01
          2   -1    0    0  501    0  0.00000000000E+00  0.00000000000E+00  0.16290223005E+04  0.16290223005E+04  0.00000000000E+00 0. -1.
         -2   -1    0    0    0  501 -0.00000000000E+00 -0.00000000000E+00 -0.11411740080E+04  0.11411740080E+04  0.00000000000E+00 0.  1.
         23    2    1    2    0    0  0.56880174892E+03 -0.71623383042E+03  0.12693139419E+04  0.15671938602E+04  0.91719043898E+02 0.  0.
         11    1    3    3    0    0  0.30792632934E+03 -0.32663235612E+03  0.57715274156E+03  0.73117207787E+03  0.00000000000E+00 0.  1.
        -11    1    3    3    0    0  0.26087541959E+03 -0.38960147430E+03  0.69216120037E+03  0.83602178238E+03  0.00000000000E+00 0. -1.
         22    1    1    2    0    0 -0.56880174892E+03  0.71623383042E+03 -0.78146564939E+03  0.12030024483E+04  0.00000000000E+00 0.  1.
<mgrwt>
<rscale>  0 0.27269015E+04</rscale>
<asrwt>0</asrwt>
<pdfrwt beam="1">  1        2 0.25061882E+00 0.27269015E+04</pdfrwt>
<pdfrwt beam="2">  1       -2 0.17556523E+00 0.27269015E+04</pdfrwt>
<totfact> 0.18311519E+00</totfact>
</mgrwt>
</event>
<event>
 6    1  0.1588846E-005  0.1620494E+04  0.7818608E-02  0.8808056E-01
          1   -1    0    0  501    0  0.00000000000E+00  0.00000000000E+00  0.10708969318E+04  0.10708969318E+04  0.00000000000E+00 0. -1.
         -1   -1    0    0    0  501 -0.00000000000E+00 -0.00000000000E+00 -0.61303738134E+03  0.61303738134E+03  0.00000000000E+00 0.  1.
         23    2    1    2    0    0  0.44107791646E+03 -0.39620738427E+03  0.79961412763E+03  0.99959067816E+03  0.90932673010E+02 0.  0.
         11    1    3    3    0    0  0.18827398873E+03 -0.15389508754E+03  0.40137325393E+03  0.46928805842E+03  0.00000000000E+00 0. -1.
        -11    1    3    3    0    0  0.25280392773E+03 -0.24231229673E+03  0.39824087370E+03  0.53030261974E+03  0.00000000000E+00 0.  1.
         22    1    1    2    0    0 -0.44107791646E+03  0.39620738427E+03 -0.34175457717E+03  0.68434363499E+03  0.00000000000E+00 0.  1.
<mgrwt>
<rscale>  0 0.16204936E+04</rscale>
<asrwt>0</asrwt>
<pdfrwt beam="1">  1        1 0.16475337E+00 0.16204936E+04</pdfrwt>
<pdfrwt beam="2">  1       -1 0.94313443E-01 0.16204936E+04</pdfrwt>
<totfact> 0.13909524E+01</totfact>
</mgrwt>
</event>
<event>
 6    1  0.1588846E-005  0.1683393E+04  0.7818608E-02  0.8770893E-01
         -1   -1    0    0    0  501 -0.00000000000E+00  0.00000000000E+00  0.98505220986E+03  0.98505220986E+03  0.00000000000E+00 0. -1.
          1   -1    0    0  501    0  0.00000000000E+00 -0.00000000000E+00 -0.71920348391E+03  0.71920348391E+03  0.00000000000E+00 0.  1.
         23    2    1    2    0    0 -0.10931911385E+03 -0.73511337277E+03 -0.26154829839E+03  0.79294347463E+03  0.89495821610E+02 0.  0.
         13    1    3    3    0    0 -0.28101134541E+02 -0.31694602824E+03 -0.15450896527E+03  0.35371949187E+03  0.00000000000E+00 0. -1.
        -13    1    3    3    0    0 -0.81217979313E+02 -0.41816734454E+03 -0.10703933312E+03  0.43922398276E+03  0.00000000000E+00 0.  1.
         22    1    1    2    0    0  0.10931911385E+03  0.73511337277E+03  0.52739702434E+03  0.91131221914E+03  0.00000000000E+00 0. -1.
<mgrwt>
<rscale>  0 0.16833930E+04</rscale>
<asrwt>0</asrwt>
<pdfrwt beam="1">  1        1 0.11064669E+00 0.16833930E+04</pdfrwt>
<pdfrwt beam="2">  1       -1 0.15154649E+00 0.16833930E+04</pdfrwt>
<totfact> 0.84530931E+00</totfact>
</mgrwt>
</event>
<event>
 6    1  0.1588846E-005  0.1566191E+04  0.7818608E-02  0.8841591E-01
         -1   -1    0    0    0  501 -0.00000000000E+00  0.00000000000E+00  0.31980253141E+03  0.31980253141E+03  0.00000000000E+00 0.  1.
          1   -1    0    0  501    0  0.00000000000E+00 -0.00000000000E+00 -0.19175548949E+04  0.19175548949E+04  0.00000000000E+00 0. -1.
         23    2    1    2    0    0  0.42224603350E+03 -0.39877131095E+03 -0.56815787705E+02  0.59060431736E+03  0.90967877319E+02 0.  0.
         11    1    3    3    0    0  0.37645938329E+02 -0.16169219707E+02  0.14455878581E+02  0.43446895909E+02  0.00000000000E+00 0.  1.
        -11    1    3    3    0    0  0.38460009517E+03 -0.38260209124E+03 -0.71271666286E+02  0.54715742145E+03  0.00000000000E+00 0. -1.
         22    1    1    2    0    0 -0.42224603350E+03  0.39877131095E+03 -0.15409365758E+04  0.16467531089E+04  0.00000000000E+00 0. -1.
<mgrwt>
<rscale>  0 0.15661914E+04</rscale>
<asrwt>0</asrwt>
<pdfrwt beam="1">  1        1 0.29500844E+00 0.15661914E+04</pdfrwt>
<pdfrwt beam="2">  1       -1 0.49200390E-01 0.15661914E+04</pdfrwt>
<totfact> 0.13504152E+01</totfact>
</mgrwt>
</event>
<event>
 6    1  0.1588846E-005  0.1308482E+04  0.7818608E-02  0.9022866E-01
          1   -1    0    0  501    0  0.00000000000E+00  0.00000000000E+00  0.59795796798E+03  0.59795796798E+03  0.00000000000E+00 0. -1.
         -1   -1    0    0    0  501 -0.00000000000E+00 -0.00000000000E+00 -0.71582197249E+03  0.71582197249E+03  0.00000000000E+00 0.  1.
         23    2    1    2    0    0  0.45645821822E+03 -0.45867270642E+03  0.12954495948E+02  0.65359190918E+03  0.90993451315E+02 0.  0.
         13    1    3    3    0    0  0.29581019380E+03 -0.27376340057E+03 -0.32892234798E+02  0.40439086211E+03  0.00000000000E+00 0.  1.
        -13    1    3    3    0    0  0.16064802442E+03 -0.18490930585E+03  0.45846730746E+02  0.24920104708E+03  0.00000000000E+00 0. -1.
         22    1    1    2    0    0 -0.45645821822E+03  0.45867270642E+03 -0.13081850045E+03  0.66018803129E+03  0.00000000000E+00 0.  1.
<mgrwt>
<rscale>  0 0.13084823E+04</rscale>
<asrwt>0</asrwt>
<pdfrwt beam="1">  1        1 0.91993534E-01 0.13084823E+04</pdfrwt>
<pdfrwt beam="2">  1       -1 0.11012646E+00 0.13084823E+04</pdfrwt>
<totfact> 0.25733795E+01</totfact>
</mgrwt>
</event>
<event>
 6    1  0.1588846E-005  0.3044755E+04  0.7818608E-02  0.8231065E-01
          2   -1    0    0  501    0  0.00000000000E+00  0.00000000000E+00  0.35994314353E+04  0.35994314353E+04  0.00000000000E+00 0. -1.
         -2   -1    0    0    0  501 -0.00000000000E+00 -0.00000000000E+00 -0.64388853048E+03  0.64388853048E+03  0.00000000000E+00 0.  1.
         23    2    1    2    0    0  0.75678027441E+03  0.12700044143E+04  0.19770909930E+04  0.24704703557E+04  0.93313384971E+02 0.  0.
         13    1    3    3    0    0  0.24973664302E+03  0.33796014187E+03  0.57182574754E+03  0.70962675676E+03  0.00000000000E+00 0.  1.
        -13    1    3    3    0    0  0.50704363139E+03  0.93204427244E+03  0.14052652455E+04  0.17608435990E+04  0.00000000000E+00 0. -1.
         22    1    1    2    0    0 -0.75678027441E+03 -0.12700044143E+04  0.97845191178E+03  0.17728496100E+04  0.00000000000E+00 0.  1.
<mgrwt>
<rscale>  0 0.30447546E+04</rscale>
<asrwt>0</asrwt>
<pdfrwt beam="1">  1        2 0.55375867E+00 0.30447546E+04</pdfrwt>
<pdfrwt beam="2">  1       -2 0.99059776E-01 0.30447546E+04</pdfrwt>
<totfact> 0.49737633E-01</totfact>
</mgrwt>
</event>
<event>
 6    1  0.1588846E-005  0.3792407E+04  0.7818608E-02  0.8047786E-01
         -1   -1    0    0    0  501 -0.00000000000E+00  0.00000000000E+00  0.12844045432E+04  0.12844045432E+04  0.00000000000E+00 0.  1.
          1   -1    0    0  501    0  0.00000000000E+00 -0.00000000000E+00 -0.27994204209E+04  0.27994204209E+04  0.00000000000E+00 0. -1.
         23    2    1    2    0    0  0.17216242972E+03  0.12464917856E+03 -0.27858016064E+04  0.27953864952E+04  0.91201684925E+02 0.  0.
         13    1    3    3    0    0  0.10341456336E+03  0.10273601696E+03 -0.13667672448E+04  0.13745188113E+04  0.00000000000E+00 0.  1.
        -13    1    3    3    0    0  0.68747866365E+02  0.21913161600E+02 -0.14190343616E+04  0.14208676839E+04  0.00000000000E+00 0. -1.
         22    1    1    2    0    0 -0.17216242972E+03 -0.12464917856E+03  0.12707857287E+04  0.12884384689E+04  0.00000000000E+00 0.  1.
<mgrwt>
<rscale>  0 0.37924073E+04</rscale>
<asrwt>0</asrwt>
<pdfrwt beam="1">  1        1 0.43068006E+00 0.37924073E+04</pdfrwt>
<pdfrwt beam="2">  1       -1 0.19760070E+00 0.37924073E+04</pdfrwt>
<totfact> 0.10381905E-01</totfact>
</mgrwt>
</event>
<event>
 6    1  0.1588846E-005  0.2728450E+04  0.7818608E-02  0.8325833E-01
         -1   -1    0    0    0  501 -0.00000000000E+00  0.00000000000E+00  0.13628506115E+04  0.13628506115E+04  0.00000000000E+00 0.  1.
          1   -1    0    0  501    0  0.00000000000E+00 -0.00000000000E+00 -0.13656007184E+04  0.13656007184E+04  0.00000000000E+00 0. -1.
         23    2    1    2    0    0  0.10391888767E+04 -0.84356328792E+03 -0.25681297891E+03  0.13660782220E+04  0.93296626235E+02 0.  0.
         13    1    3    3    0    0  0.23585595510E+03 -0.15323772635E+03 -0.29892038450E+02  0.28284866324E+03  0.00000000000E+00 0. -1.
        -13    1    3    3    0    0  0.80333292156E+03 -0.69032556157E+03 -0.22692094046E+03  0.10832295588E+04  0.00000000000E+00 0.  1.
         22    1    1    2    0    0 -0.10391888767E+04  0.84356328792E+03  0.25406287207E+03  0.13623731079E+04  0.00000000000E+00 0.  1.
<mgrwt>
<rscale>  0 0.27284499E+04</rscale>
<asrwt>0</asrwt>
<pdfrwt beam="1">  1        1 0.21009242E+00 0.27284499E+04</pdfrwt>
<pdfrwt beam="2">  1       -1 0.20966933E+00 0.27284499E+04</pdfrwt>
<totfact> 0.91449180E-01</totfact>
</mgrwt>
</event>
<event>
 6    1  0.1588846E-005  0.2084252E+04  0.7818608E-02  0.8568212E-01
          1   -1    0    0  501    0  0.00000000000E+00  0.00000000000E+00  0.13756934379E+04  0.13756934379E+04  0.00000000000E+00 0. -1.
         -1   -1    0    0    0  501 -0.00000000000E+00 -0.00000000000E+00 -0.78943939583E+03  0.78943939583E+03  0.00000000000E+00 0.  1.
         23    2    1    2    0    0 -0.20236841975E+03 -0.84265741426E+03  0.89123696281E+03  0.12464168400E+04  0.90703473114E+02 0.  0.
         11    1    3    3    0    0 -0.19086474480E+03 -0.80358484149E+03  0.81706596480E+03  0.11617980630E+04  0.00000000000E+00 0.  1.
        -11    1    3    3    0    0 -0.11503674948E+02 -0.39072572766E+02  0.74170998016E+02  0.84618777033E+02  0.00000000000E+00 0. -1.
         22    1    1    2    0    0  0.20236841975E+03  0.84265741426E+03 -0.30498292077E+03  0.91871599370E+03  0.00000000000E+00 0.  1.
<mgrwt>
<rscale>  0 0.20842520E+04</rscale>
<asrwt>0</asrwt>
<pdfrwt beam="1">  1        1 0.21164514E+00 0.20842520E+04</pdfrwt>
<pdfrwt beam="2">  1       -1 0.12145221E+00 0.20842520E+04</pdfrwt>
<totfact> 0.44237495E+00</totfact>
</mgrwt>
</event>
<event>
 6    1  0.1588846E-005  0.1907523E+04  0.7818608E-02  0.8651121E-01
         -2   -1    0    0    0  501 -0.00000000000E+00  0.00000000000E+00  0.73208311404E+03  0.73208311404E+03  0.00000000000E+00 0. -1.
          2   -1    0    0  501    0  0.00000000000E+00 -0.00000000000E+00 -0.12425645994E+04  0.12425645994E+04  0.00000000000E+00 0.  1.
         23    2    1    2    0    0 -0.13309013411E+03 -0.30946300726E+03  0.66558585710E+03  0.75128565310E+03  0.89136203221E+02 0.  0.
         11    1    3    3    0    0 -0.14269885842E+03 -0.29093027910E+03  0.59303670760E+03  0.67579281444E+03  0.00000000000E+00 0.  1.
        -11    1    3    3    0    0  0.96087243050E+01 -0.18532728162E+02  0.72549149495E+02  0.75492838656E+02  0.00000000000E+00 0. -1.
         22    1    1    2    0    0  0.13309013411E+03  0.30946300726E+03 -0.11760673425E+04  0.12233620603E+04  0.00000000000E+00 0.  1.
<mgrwt>
<rscale>  0 0.19075225E+04</rscale>
<asrwt>0</asrwt>
<pdfrwt beam="1">  1        2 0.19116378E+00 0.19075225E+04</pdfrwt>
<pdfrwt beam="2">  1       -2 0.11262817E+00 0.19075225E+04</pdfrwt>
<totfact> 0.10377419E+01</totfact>
</mgrwt>
</event>
<event>
 6    1  0.1588846E-005  0.2659390E+04  0.7818608E-02  0.8348303E-01
          2   -1    0    0  501    0  0.00000000000E+00  0.00000000000E+00  0.37388492280E+04  0.37388492280E+04  0.00000000000E+00 0. -1.
         -2   -1    0    0    0  501 -0.00000000000E+00 -0.00000000000E+00 -0.47289634466E+03  0.47289634466E+03  0.00000000000E+00 0.  1.
         23    2    1    2    0    0 -0.33961546879E+03  0.65977970866E+03 -0.10957455250E+03  0.75561574282E+03  0.91107835242E+02 0.  0.
         13    1    3    3    0    0 -0.20203186779E+03  0.29358503919E+03 -0.56924860560E+02  0.36090094291E+03  0.00000000000E+00 0. -1.
        -13    1    3    3    0    0 -0.13758360099E+03  0.36619466947E+03 -0.52649691944E+02  0.39471479991E+03  0.00000000000E+00 0.  1.
         22    1    1    2    0    0  0.33961546879E+03 -0.65977970866E+03  0.33755274359E+04  0.34561298299E+04  0.00000000000E+00 0. -1.
<mgrwt>
<rscale>  0 0.26593895E+04</rscale>
<asrwt>0</asrwt>
<pdfrwt beam="1">  1        2 0.57520755E+00 0.26593895E+04</pdfrwt>
<pdfrwt beam="2">  1       -2 0.72753286E-01 0.26593895E+04</pdfrwt>
<totfact> 0.82187133E-01</totfact>
</mgrwt>
</event>
<event>
 6    1  0.1588846E-005  0.1587535E+04  0.7818608E-02  0.8828243E-01
         -2   -1    0    0    0  501 -0.00000000000E+00  0.00000000000E+00  0.52287698741E+03  0.52287698741E+03  0.00000000000E+00 0.  1.
          2   -1    0    0  501    0  0.00000000000E+00 -0.00000000000E+00 -0.12049994006E+04  0.12049994006E+04  0.00000000000E+00 0. -1.
         23    2    1    2    0    0 -0.14198479235E+03 -0.54378176291E+03  0.26374874328E+03  0.62763526374E+03  0.92218966463E+02 0.  0.
         13    1    3    3    0    0 -0.10078523552E+03 -0.22299536744E+03  0.13542570489E+03  0.27968682333E+03  0.00000000000E+00 0. -1.
        -13    1    3    3    0    0 -0.41199556821E+02 -0.32078639547E+03  0.12832303838E+03  0.34794844041E+03  0.00000000000E+00 0.  1.
         22    1    1    2    0    0  0.14198479235E+03  0.54378176291E+03 -0.94587115648E+03  0.11002411243E+04  0.00000000000E+00 0. -1.
<mgrwt>
<rscale>  0 0.15875345E+04</rscale>
<asrwt>0</asrwt>
<pdfrwt beam="1">  1        2 0.18538452E+00 0.15875345E+04</pdfrwt>
<pdfrwt beam="2">  1       -2 0.80442613E-01 0.15875345E+04</pdfrwt>
<totfact> 0.24653018E+01</totfact>
</mgrwt>
</event>
<event>
 6    1  0.1588846E-005  0.7921391E+03  0.7818608E-02  0.9571466E-01
          3   -1    0    0  501    0  0.00000000000E+00  0.00000000000E+00  0.93930648415E+03  0.93930648415E+03  0.00000000000E+00 0. -1.
         -3   -1    0    0    0  501 -0.00000000000E+00 -0.00000000000E+00 -0.16700733209E+03  0.16700733209E+03  0.00000000000E+00 0.  1.
         23    2    1    2    0    0 -0.12611194201E+03  0.33025236695E+03  0.15882410254E+03  0.39827251507E+03  0.91788086993E+02 0.  0.
         13    1    3    3    0    0  0.92329797215E-01  0.11703831552E+03  0.41999819138E+02  0.12434613236E+03  0.00000000000E+00 0.  1.
        -13    1    3    3    0    0 -0.12620427181E+03  0.21321405143E+03  0.11682428341E+03  0.27392638271E+03  0.00000000000E+00 0. -1.
         22    1    1    2    0    0  0.12611194201E+03 -0.33025236695E+03  0.61347504951E+03  0.70804130118E+03  0.00000000000E+00 0.  1.
<mgrwt>
<rscale>  0 0.79213905E+03</rscale>
<asrwt>0</asrwt>
<pdfrwt beam="1">  1        3 0.14450869E+00 0.79213905E+03</pdfrwt>
<pdfrwt beam="2">  1       -3 0.25693436E-01 0.79213905E+03</pdfrwt>
<totfact> 0.13641377E+01</totfact>
</mgrwt>
</event>
<event>
 6    1  0.1588846E-005  0.2120114E+04  0.7818608E-02  0.8552434E-01
          2   -1    0    0  501    0  0.00000000000E+00  0.00000000000E+00  0.89602522828E+03  0.89602522828E+03  0.00000000000E+00 0. -1.
         -2   -1    0    0    0  501 -0.00000000000E+00 -0.00000000000E+00 -0.12541174389E+04  0.12541174389E+04  0.00000000000E+00 0.  1.
         23    2    1    2    0    0 -0.63168993423E+03 -0.81917828508E+03 -0.40508655048E+03  0.11146265139E+04  0.90619624614E+02 0.  0.
         11    1    3    3    0    0 -0.20089020399E+03 -0.19517464332E+03 -0.10421028865E+03  0.29884745225E+03  0.00000000000E+00 0. -1.
        -11    1    3    3    0    0 -0.43079973024E+03 -0.62400364177E+03 -0.30087626183E+03  0.81577906166E+03  0.00000000000E+00 0.  1.
         22    1    1    2    0    0  0.63168993423E+03  0.81917828508E+03  0.46994339836E+02  0.10355161533E+04  0.00000000000E+00 0. -1.
<mgrwt>
<rscale>  0 0.21201140E+04</rscale>
<asrwt>0</asrwt>
<pdfrwt beam="1">  1        2 0.13785004E+00 0.21201140E+04</pdfrwt>
<pdfrwt beam="2">  1       -2 0.19294114E+00 0.21201140E+04</pdfrwt>
<totfact> 0.40194316E+00</totfact>
</mgrwt>
</event>
<event>
 6    1  0.1588846E-005  0.2260429E+04  0.7818608E-02  0.8493689E-01
         -2   -1    0    0    0  501 -0.00000000000E+00  0.00000000000E+00  0.96263080223E+03  0.96263080223E+03  0.00000000000E+00 0.  1.
          2   -1    0    0  501    0  0.00000000000E+00 -0.00000000000E+00 -0.13269721859E+04  0.13269721859E+04  0.00000000000E+00 0. -1.
         23    2    1    2    0    0 -0.32803368682E+03  0.47419127892E+03 -0.11649926840E+04  0.13029389250E+04  0.89322001288E+02 0.  0.
         11    1    3    3    0    0 -0.28067145962E+03  0.44255465228E+03 -0.10109924718E+04  0.11387435473E+04  0.00000000000E+00 0. -1.
        -11    1    3    3    0    0 -0.47362227201E+02  0.31636626637E+02 -0.15400021217E+03  0.16419537771E+03  0.00000000000E+00 0.  1.
         22    1    1    2    0    0  0.32803368682E+03 -0.47419127892E+03  0.80065130032E+03  0.98666406309E+03  0.00000000000E+00 0.  1.
<mgrwt>
<rscale>  0 0.22604285E+04</rscale>
<asrwt>0</asrwt>
<pdfrwt beam="1">  1        2 0.20414957E+00 0.22604285E+04</pdfrwt>
<pdfrwt beam="2">  1       -2 0.14809705E+00 0.22604285E+04</pdfrwt>
<totfact> 0.44951768E+00</totfact>
</mgrwt>
</event>
<event>
 6    1  0.1588846E-005  0.2385474E+04  0.7818608E-02  0.8444962E-01
         -1   -1    0    0    0  501 -0.00000000000E+00  0.00000000000E+00  0.14675782366E+04  0.14675782366E+04  0.00000000000E+00 0.  1.
          1   -1    0    0  501    0  0.00000000000E+00 -0.00000000000E+00 -0.96936672704E+03  0.96936672704E+03  0.00000000000E+00 0. -1.
         23    2    1    2    0    0  0.69537234551E+03 -0.96695126925E+03  0.24217792403E+03  0.12187123697E+04  0.89845629795E+02 0.  0.
         13    1    3    3    0    0  0.32857681321E+03 -0.47844723232E+03  0.16199570266E+03  0.60259197139E+03  0.00000000000E+00 0. -1.
        -13    1    3    3    0    0  0.36679553230E+03 -0.48850403693E+03  0.80182221367E+02  0.61612039833E+03  0.00000000000E+00 0.  1.
         22    1    1    2    0    0 -0.69537234551E+03  0.96695126925E+03  0.25603358555E+03  0.12182325939E+04  0.00000000000E+00 0. -1.
<mgrwt>
<rscale>  0 0.23854740E+04</rscale>
<asrwt>0</asrwt>
<pdfrwt beam="1">  1        1 0.14913334E+00 0.23854740E+04</pdfrwt>
<pdfrwt beam="2">  1       -1 0.22578127E+00 0.23854740E+04</pdfrwt>
<totfact> 0.14450023E+00</totfact>
</mgrwt>
</event>
<event>
 6    1  0.1588846E-005  0.3902487E+04  0.7818608E-02  0.8024512E-01
         -2   -1    0    0    0  501 -0.00000000000E+00  0.00000000000E+00  0.15547227775E+04  0.15547227775E+04  0.00000000000E+00 0.  1.
          2   -1    0    0  501    0  0.00000000000E+00 -0.00000000000E+00 -0.24488939959E+04  0.24488939959E+04  0.00000000000E+00 0. -1.
         23    2    1    2    0    0  0.18551635075E+03 -0.17490073021E+03 -0.24308490103E+04  0.24459309200E+04  0.92436858476E+02 0.  0.
         11    1    3    3    0    0  0.10573271716E+03 -0.12339761494E+03 -0.18749820768E+04  0.18820106713E+04  0.00000000000E+00 0.  1.
        -11    1    3    3    0    0  0.79783633592E+02 -0.51503115266E+02 -0.55586693351E+03  0.56392024865E+03  0.00000000000E+00 0. -1.
         22    1    1    2    0    0 -0.18551635075E+03  0.17490073021E+03  0.15366777919E+04  0.15576858534E+04  0.00000000000E+00 0.  1.
<mgrwt>
<rscale>  0 0.39024870E+04</rscale>
<asrwt>0</asrwt>
<pdfrwt beam="1">  1        2 0.37675292E+00 0.39024870E+04</pdfrwt>
<pdfrwt beam="2">  1       -2 0.23918812E+00 0.39024870E+04</pdfrwt>
<totfact> 0.22203340E-01</totfact>
</mgrwt>
</event>
<event>
 6    1  0.1588846E-005  0.2942479E+04  0.7818608E-02  0.8260350E-01
          2   -1    0    0  501    0  0.00000000000E+00  0.00000000000E+00  0.88276239528E+03  0.88276239528E+03  0.00000000000E+00 0. -1.
         -2   -1    0    0    0  501 -0.00000000000E+00 -0.00000000000E+00 -0.24520135668E+04  0.24520135668E+04  0.00000000000E+00 0.  1.
         23    2    1    2    0    0  0.13850957522E+04 -0.22713631166E+03 -0.12798143624E+04  0.19016483288E+04  0.90886839528E+02 0.  0.
         13    1    3    3    0    0  0.95876125054E+03 -0.11803385682E+03 -0.90171357377E+03  0.13214546894E+04  0.00000000000E+00 0. -1.
        -13    1    3    3    0    0  0.42633450162E+03 -0.10910245484E+03 -0.37810078864E+03  0.58019363948E+03  0.00000000000E+00 0.  1.
         22    1    1    2    0    0 -0.13850957522E+04  0.22713631166E+03 -0.28943680913E+03  0.14331276333E+04  0.00000000000E+00 0. -1.
<mgrwt>
<rscale>  0 0.29424788E+04</rscale>
<asrwt>0</asrwt>
<pdfrwt beam="1">  1        2 0.13580960E+00 0.29424788E+04</pdfrwt>
<pdfrwt beam="2">  1       -2 0.37723286E+00 0.29424788E+04</pdfrwt>
<totfact> 0.27018568E-01</totfact>
</mgrwt>
</event>
<event>
 6    1  0.1588846E-005  0.1564644E+04  0.7818608E-02  0.8842568E-01
          2   -1    0    0  501    0  0.00000000000E+00  0.00000000000E+00  0.21843337483E+04  0.21843337483E+04  0.00000000000E+00 0. -1.
         -2   -1    0    0    0  501 -0.00000000000E+00 -0.00000000000E+00 -0.28018976727E+03  0.28018976727E+03  0.00000000000E+00 0.  1.
         23    2    1    2    0    0 -0.90631805828E+02  0.48060690373E+03 -0.11860335409E+01  0.49742423374E+03  0.90732251679E+02 0.  0.
         11    1    3    3    0    0 -0.98667153449E+01  0.29075433277E+03  0.59611204556E+01  0.29098276419E+03  0.00000000000E+00 0. -1.
        -11    1    3    3    0    0 -0.80765090483E+02  0.18985257095E+03 -0.71471539965E+01  0.20644146955E+03  0.00000000000E+00 0.  1.
         22    1    1    2    0    0  0.90631805828E+02 -0.48060690373E+03  0.19053300146E+04  0.19670992818E+04  0.00000000000E+00 0. -1.
<mgrwt>
<rscale>  0 0.15646443E+04</rscale>
<asrwt>0</asrwt>
<pdfrwt beam="1">  1        2 0.33605133E+00 0.15646443E+04</pdfrwt>
<pdfrwt beam="2">  1       -2 0.43106119E-01 0.15646443E+04</pdfrwt>
<totfact> 0.25875373E+01</totfact>
</mgrwt>
</event>
<event>
 6    1  0.1588846E-005  0.5680819E+04  0.7818608E-02  0.7731287E-01
         -2   -1    0    0    0  501 -0.00000000000E+00  0.00000000000E+00  0.30728446128E+04  0.30728446128E+04  0.00000000000E+00 0.  1.
          2   -1    0    0  501    0  0.00000000000E+00 -0.00000000000E+00 -0.26255563805E+04  0.26255563805E+04  0.00000000000E+00 0. -1.
         23    2    1    2    0    0  0.23128395507E+03 -0.22857504884E+04  0.18978847973E+04  0.29813478180E+04  0.91217021168E+02 0.  0.
         13    1    3    3    0    0  0.16254703543E+03 -0.17118812047E+04  0.13703114981E+04  0.21987979443E+04  0.00000000000E+00 0.  1.
        -13    1    3    3    0    0  0.68736919644E+02 -0.57386928366E+03  0.52757329921E+03  0.78254987374E+03  0.00000000000E+00 0. -1.
         22    1    1    2    0    0 -0.23128395507E+03  0.22857504884E+04 -0.14505965650E+04  0.27170531753E+04  0.00000000000E+00 0. -1.
<mgrwt>
<rscale>  0 0.56808192E+04</rscale>
<asrwt>0</asrwt>
<pdfrwt beam="1">  1        2 0.40393175E+00 0.56808192E+04</pdfrwt>
<pdfrwt beam="2">  1       -2 0.47274532E+00 0.56808192E+04</pdfrwt>
<totfact> 0.50232858E-03</totfact>
</mgrwt>
</event>
<event>
 6    1  0.1588846E-005  0.3189733E+04  0.7818608E-02  0.8191534E-01
         -2   -1    0    0    0  501 -0.00000000000E+00  0.00000000000E+00  0.12105451563E+04  0.12105451563E+04  0.00000000000E+00 0.  1.
          2   -1    0    0  501    0  0.00000000000E+00 -0.00000000000E+00 -0.21012007778E+04  0.21012007778E+04  0.00000000000E+00 0. -1.
         23    2    1    2    0    0 -0.14725920510E+04 -0.29575323051E+03 -0.99841971073E+03  0.18058872353E+04  0.91594025787E+02 0.  0.
         11    1    3    3    0    0 -0.58977988993E+03 -0.14576297327E+03 -0.36047441205E+03  0.70641982183E+03  0.00000000000E+00 0. -1.
        -11    1    3    3    0    0 -0.88281216111E+03 -0.14999025724E+03 -0.63794529868E+03  0.10994674134E+04  0.00000000000E+00 0.  1.
         22    1    1    2    0    0  0.14725920510E+04  0.29575323051E+03  0.10776408927E+03  0.15058586989E+04  0.00000000000E+00 0.  1.
<mgrwt>
<rscale>  0 0.31897325E+04</rscale>
<asrwt>0</asrwt>
<pdfrwt beam="1">  1        2 0.32326166E+00 0.31897325E+04</pdfrwt>
<pdfrwt beam="2">  1       -2 0.18623772E+00 0.31897325E+04</pdfrwt>
<totfact> 0.81257844E-01</totfact>
</mgrwt>
</event>
<event>
 6    1  0.1588846E-005  0.2983705E+04  0.7818608E-02  0.8248399E-01
          3   -1    0    0  501    0  0.00000000000E+00  0.00000000000E+00  0.23957590766E+04  0.23957590766E+04  0.00000000000E+00 0. -1.
         -3   -1    0    0    0  501 -0.00000000000E+00 -0.00000000000E+00 -0.92898459231E+03  0.92898459231E+03  0.00000000000E+00 0.  1.
         23    2    1    2    0    0  0.50092392590E+03  0.37800513879E+03 -0.77233518845E+03  0.99935664928E+03  0.91648266012E+02 0.  0.
         13    1    3    3    0    0  0.30598837629E+03  0.17407206839E+03 -0.43501178385E+03  0.55961167206E+03  0.00000000000E+00 0. -1.
        -13    1    3    3    0    0  0.19493554961E+03  0.20393307040E+03 -0.33732340460E+03  0.43974497722E+03  0.00000000000E+00 0.  1.
         22    1    1    2    0    0 -0.50092392590E+03 -0.37800513879E+03  0.22391096728E+04  0.23253870197E+04  0.00000000000E+00 0. -1.
<mgrwt>
<rscale>  0 0.29837046E+04</rscale>
<asrwt>0</asrwt>
<pdfrwt beam="1">  1        3 0.36857832E+00 0.29837046E+04</pdfrwt>
<pdfrwt beam="2">  1       -3 0.14292071E+00 0.29837046E+04</pdfrwt>
<totfact> 0.13311438E-02</totfact>
</mgrwt>
</event>
<event>
 6    1  0.2001453E-005  0.2492632E+04  0.7818608E-02  0.8405615E-01
          1   -1    0    0  501    0  0.00000000000E+00  0.00000000000E+00  0.21015763478E+04  0.21015763478E+04  0.00000000000E+00 0. -1.
         -1   -1    0    0    0  501 -0.00000000000E+00 -0.00000000000E+00 -0.73911374828E+03  0.73911374828E+03  0.00000000000E+00 0.  1.
         23    2    1    2    0    0  0.10791288833E+04 -0.59533473631E+03  0.48395005974E+03  0.13271753530E+04  0.90797369301E+02 0.  0.
         11    1    3    3    0    0  0.60451701924E+03 -0.38394932134E+03  0.28859946907E+03  0.77210592632E+03  0.00000000000E+00 0.  1.
        -11    1    3    3    0    0  0.47461186404E+03 -0.21138541497E+03  0.19535059067E+03  0.55506942667E+03  0.00000000000E+00 0. -1.
         22    1    1    2    0    0 -0.10791288833E+04  0.59533473631E+03  0.87851253974E+03  0.15135147431E+04  0.00000000000E+00 0. -1.
<mgrwt>
<rscale>  0 0.24926323E+04</rscale>
<asrwt>0</asrwt>
<pdfrwt beam="1">  1        1 0.32331944E+00 0.24926323E+04</pdfrwt>
<pdfrwt beam="2">  1       -1 0.11370981E+00 0.24926323E+04</pdfrwt>
<totfact> 0.15933976E+00</totfact>
</mgrwt>
</event>
<event>
 6    1  0.1588846E-005  0.1718044E+04  0.7818608E-02  0.8751139E-01
          2   -1    0    0  501    0  0.00000000000E+00  0.00000000000E+00  0.66610177806E+03  0.66610177806E+03  0.00000000000E+00 0.  1.
         -2   -1    0    0    0  501 -0.00000000000E+00 -0.00000000000E+00 -0.11078174447E+04  0.11078174447E+04  0.00000000000E+00 0. -1.
         23    2    1    2    0    0  0.58672655834E+03 -0.36017293598E+03 -0.74785015189E+03  0.10204665559E+04  0.89997466562E+02 0.  0.
         11    1    3    3    0    0  0.17636137508E+03 -0.15816628748E+03 -0.25945040690E+03  0.35133235370E+03  0.00000000000E+00 0.  1.
        -11    1    3    3    0    0  0.41036518326E+03 -0.20200664850E+03 -0.48839974499E+03  0.66913420222E+03  0.00000000000E+00 0. -1.
         22    1    1    2    0    0 -0.58672655834E+03  0.36017293598E+03  0.30613448528E+03  0.75345266682E+03  0.00000000000E+00 0.  1.
<mgrwt>
<rscale>  0 0.17180444E+04</rscale>
<asrwt>0</asrwt>
<pdfrwt beam="1">  1        2 0.10247720E+00 0.17180444E+04</pdfrwt>
<pdfrwt beam="2">  1       -2 0.17043345E+00 0.17180444E+04</pdfrwt>
<totfact> 0.87635692E+00</totfact>
</mgrwt>
</event>
<event>
 6    1  0.1588846E-005  0.4590979E+04  0.7818608E-02  0.7894900E-01
          2   -1    0    0  501    0  0.00000000000E+00  0.00000000000E+00  0.18610900974E+04  0.18610900974E+04  0.00000000000E+00 0. -1.
         -2   -1    0    0    0  501 -0.00000000000E+00 -0.00000000000E+00 -0.28312827948E+04  0.28312827948E+04  0.00000000000E+00 0.  1.
         23    2    1    2    0    0  0.14173653985E+04  0.16536809274E+04  0.25280910662E+03  0.21945100667E+04  0.91524347655E+02 0.  0.
         13    1    3    3    0    0  0.31877253982E+03  0.33250905605E+03  0.26151182156E+02  0.46136979618E+03  0.00000000000E+00 0.  1.
        -13    1    3    3    0    0  0.10985928586E+04  0.13211718713E+04  0.22665792446E+03  0.17331402705E+04  0.00000000000E+00 0. -1.
         22    1    1    2    0    0 -0.14173653985E+04 -0.16536809274E+04 -0.12230018040E+04  0.24978628255E+04  0.00000000000E+00 0. -1.
<mgrwt>
<rscale>  0 0.45909791E+04</rscale>
<asrwt>0</asrwt>
<pdfrwt beam="1">  1        2 0.28632155E+00 0.45909791E+04</pdfrwt>
<pdfrwt beam="2">  1       -2 0.43558197E+00 0.45909791E+04</pdfrwt>
<totfact> 0.25983678E-02</totfact>
</mgrwt>
</event>
<event>
 6    1  0.1588846E-005  0.2014404E+04  0.7818608E-02  0.8599916E-01
          1   -1    0    0  501    0  0.00000000000E+00  0.00000000000E+00  0.12658610157E+04  0.12658610157E+04  0.00000000000E+00 0. -1.
         -1   -1    0    0    0  501 -0.00000000000E+00 -0.00000000000E+00 -0.80139586416E+03  0.80139586416E+03  0.00000000000E+00 0.  1.
         23    2    1    2    0    0  0.10691198404E+03  0.18163630362E+03  0.12413701664E+04  0.12622703450E+04  0.88907900336E+02 0.  0.
         13    1    3    3    0    0  0.74481099437E+02  0.42243651791E+02  0.45976295057E+03  0.46766861238E+03  0.00000000000E+00 0.  1.
        -13    1    3    3    0    0  0.32430884600E+02  0.13939265183E+03  0.78160721582E+03  0.79460173262E+03  0.00000000000E+00 0. -1.
         22    1    1    2    0    0 -0.10691198404E+03 -0.18163630362E+03 -0.77690501488E+03  0.80498653484E+03  0.00000000000E+00 0.  1.
<mgrwt>
<rscale>  0 0.20144039E+04</rscale>
<asrwt>0</asrwt>
<pdfrwt beam="1">  1        1 0.19474785E+00 0.20144039E+04</pdfrwt>
<pdfrwt beam="2">  1       -1 0.12329167E+00 0.20144039E+04</pdfrwt>
<totfact> 0.51356351E+00</totfact>
</mgrwt>
</event>
<event>
 6    1  0.1588846E-005  0.3056322E+04  0.7818608E-02  0.8227828E-01
          2   -1    0    0  501    0  0.00000000000E+00  0.00000000000E+00  0.21296268992E+04  0.21296268992E+04  0.00000000000E+00 0. -1.
         -2   -1    0    0    0  501 -0.00000000000E+00 -0.00000000000E+00 -0.10965660936E+04  0.10965660936E+04  0.00000000000E+00 0.  1.
         23    2    1    2    0    0 -0.82877160745E+03  0.54113583904E+03  0.17441086423E+04  0.20074725983E+04  0.91328546001E+02 0.  0.
         13    1    3    3    0    0 -0.26917093351E+03  0.12878294878E+03  0.55300769682E+03  0.62837532740E+03  0.00000000000E+00 0. -1.
        -13    1    3    3    0    0 -0.55960067393E+03  0.41235289025E+03  0.11911009455E+04  0.13790972709E+04  0.00000000000E+00 0.  1.
         22    1    1    2    0    0  0.82877160745E+03 -0.54113583904E+03 -0.71104783670E+03  0.12187203944E+04  0.00000000000E+00 0.  1.
<mgrwt>
<rscale>  0 0.30563224E+04</rscale>
<asrwt>0</asrwt>
<pdfrwt beam="1">  1        2 0.32763491E+00 0.30563224E+04</pdfrwt>
<pdfrwt beam="2">  1       -2 0.16870248E+00 0.30563224E+04</pdfrwt>
<totfact> 0.10492722E+00</totfact>
</mgrwt>
</event>
<event>
 6    1  0.1588846E-005  0.3796377E+03  0.7818608E-02  0.1051068E+00
         -2   -1    0    0    0  501 -0.00000000000E+00  0.00000000000E+00  0.40534249568E+02  0.40534249568E+02  0.00000000000E+00 0.  1.
          2   -1    0    0  501    0  0.00000000000E+00 -0.00000000000E+00 -0.88890761540E+03  0.88890761540E+03  0.00000000000E+00 0. -1.
         23    2    1    2    0    0  0.86249997786E+02  0.59285554272E+02 -0.80296732539E+03  0.81535616222E+03  0.95369316651E+02 0.  0.
         13    1    3    3    0    0 -0.48832770704E+01  0.49383766700E+02 -0.25716097127E+03  0.26190526522E+03  0.00000000000E+00 0. -1.
        -13    1    3    3    0    0  0.91133274856E+02  0.99017875723E+01 -0.54580635412E+03  0.55345089700E+03  0.00000000000E+00 0.  1.
         22    1    1    2    0    0 -0.86249997786E+02 -0.59285554272E+02 -0.45406040442E+02  0.11408570275E+03  0.00000000000E+00 0.  1.
<mgrwt>
<rscale>  0 0.37963774E+03</rscale>
<asrwt>0</asrwt>
<pdfrwt beam="1">  1        2 0.13675502E+00 0.37963774E+03</pdfrwt>
<pdfrwt beam="2">  1       -2 0.62360385E-02 0.37963774E+03</pdfrwt>
<totfact> 0.43280291E+03</totfact>
</mgrwt>
</event>
<event>
 6    1  0.1588846E-005  0.3280377E+04  0.7818608E-02  0.8167907E-01
          2   -1    0    0  501    0  0.00000000000E+00  0.00000000000E+00  0.16882785501E+04  0.16882785501E+04  0.00000000000E+00 0. -1.
         -2   -1    0    0    0  501 -0.00000000000E+00 -0.00000000000E+00 -0.15934678657E+04  0.15934678657E+04  0.00000000000E+00 0.  1.
         23    2    1    2    0    0 -0.11520411297E+04 -0.56336554080E+03 -0.97359902685E+03  0.16125912978E+04  0.89309191972E+02 0.  0.
         13    1    3    3    0    0 -0.17393862394E+03 -0.10678132085E+03 -0.12296482961E+03  0.23827976142E+03  0.00000000000E+00 0.  1.
        -13    1    3    3    0    0 -0.97810250571E+03 -0.45658421995E+03 -0.85063419725E+03  0.13743115364E+04  0.00000000000E+00 0. -1.
         22    1    1    2    0    0  0.11520411297E+04  0.56336554080E+03  0.10684097112E+04  0.16691551180E+04  0.00000000000E+00 0. -1.
<mgrwt>
<rscale>  0 0.32803766E+04</rscale>
<asrwt>0</asrwt>
<pdfrwt beam="1">  1        2 0.25973516E+00 0.32803766E+04</pdfrwt>
<pdfrwt beam="2">  1       -2 0.24514890E+00 0.32803766E+04</pdfrwt>
<totfact> 0.57334513E-01</totfact>
</mgrwt>
</event>
<event>
 6    1  0.1588846E-005  0.3387717E+04  0.7818608E-02  0.8140928E-01
          2   -1    0    0  501    0  0.00000000000E+00  0.00000000000E+00  0.19932584392E+04  0.19932584392E+04  0.00000000000E+00 0. -1.
         -2   -1    0    0    0  501 -0.00000000000E+00 -0.00000000000E+00 -0.14394301516E+04  0.14394301516E+04  0.00000000000E+00 0.  1.
         23    2    1    2    0    0  0.10005902331E+04  0.28778603546E+03  0.16294236977E+04  0.19357226249E+04  0.89436442344E+02 0.  0.
         11    1    3    3    0    0  0.42470926796E+03  0.89880186597E+02  0.73670141003E+03  0.85509378303E+03  0.00000000000E+00 0. -1.
        -11    1    3    3    0    0  0.57588096515E+03  0.19790584886E+03  0.89272228768E+03  0.10806288419E+04  0.00000000000E+00 0.  1.
         22    1    1    2    0    0 -0.10005902331E+04 -0.28778603546E+03 -0.10755954101E+04  0.14969659659E+04  0.00000000000E+00 0.  1.
<mgrwt>
<rscale>  0 0.33877168E+04</rscale>
<asrwt>0</asrwt>
<pdfrwt beam="1">  1        2 0.30665515E+00 0.33877168E+04</pdfrwt>
<pdfrwt beam="2">  1       -2 0.22145079E+00 0.33877168E+04</pdfrwt>
<totfact> 0.54082440E-01</totfact>
</mgrwt>
</event>
<event>
 6    1  0.1588846E-005  0.1369516E+04  0.7818608E-02  0.8976185E-01
          1   -1    0    0  501    0  0.00000000000E+00  0.00000000000E+00  0.15438187915E+04  0.15438187915E+04  0.00000000000E+00 0. -1.
         -1   -1    0    0    0  501 -0.00000000000E+00 -0.00000000000E+00 -0.30372325715E+03  0.30372325715E+03  0.00000000000E+00 0.  1.
         23    2    1    2    0    0  0.46320651351E+03 -0.49051660776E+03  0.49120221083E+03  0.83956981360E+03  0.91820712986E+02 0.  0.
         13    1    3    3    0    0  0.99053203802E+02 -0.16416104937E+03  0.14647680156E+03  0.24127959032E+03  0.00000000000E+00 0. -1.
        -13    1    3    3    0    0  0.36415330971E+03 -0.32635555839E+03  0.34472540927E+03  0.59829022327E+03  0.00000000000E+00 0.  1.
         22    1    1    2    0    0 -0.46320651351E+03  0.49051660776E+03  0.74889332356E+03  0.10079722351E+04  0.00000000000E+00 0.  1.
<mgrwt>
<rscale>  0 0.13695162E+04</rscale>
<asrwt>0</asrwt>
<pdfrwt beam="1">  1        1 0.23751058E+00 0.13695162E+04</pdfrwt>
<pdfrwt beam="2">  1       -1 0.46726656E-01 0.13695162E+04</pdfrwt>
<totfact> 0.27205905E+01</totfact>
</mgrwt>
</event>
<event>
 6    1  0.1588846E-005  0.1274845E+04  0.7818608E-02  0.9049755E-01
          1   -1    0    0  501    0  0.00000000000E+00  0.00000000000E+00  0.12767661762E+04  0.12767661762E+04  0.00000000000E+00 0. -1.
         -1   -1    0    0    0  501 -0.00000000000E+00 -0.00000000000E+00 -0.31823166628E+03  0.31823166628E+03  0.00000000000E+00 0.  1.
         23    2    1    2    0    0  0.12683931898E+02 -0.45923493072E+03 -0.65858535175E+02  0.47230522446E+03  0.87620058636E+02 0.  0.
         13    1    3    3    0    0  0.30974779266E+02 -0.20097581970E+03  0.65841737114E+01  0.20345532285E+03  0.00000000000E+00 0. -1.
        -13    1    3    3    0    0 -0.18290847368E+02 -0.25825911102E+03 -0.72442708887E+02  0.26884990161E+03  0.00000000000E+00 0.  1.
         22    1    1    2    0    0 -0.12683931898E+02  0.45923493072E+03  0.10243930451E+04  0.11226926180E+04  0.00000000000E+00 0. -1.
<mgrwt>
<rscale>  0 0.12748450E+04</rscale>
<asrwt>0</asrwt>
<pdfrwt beam="1">  1        1 0.19642556E+00 0.12748450E+04</pdfrwt>
<pdfrwt beam="2">  1       -1 0.48958719E-01 0.12748450E+04</pdfrwt>
<totfact> 0.38646566E+01</totfact>
</mgrwt>
</event>
<event>
 6    1  0.1588846E-005  0.1926398E+04  0.7818608E-02  0.8641827E-01
         -4   -1    0    0    0  501 -0.00000000000E+00  0.00000000000E+00  0.20382824547E+04  0.20382824547E+04  0.00000000000E+00 0.  1.
          4   -1    0    0  501    0  0.00000000000E+00 -0.00000000000E+00 -0.45516378737E+03  0.45516378737E+03  0.00000000000E+00 0. -1.
         23    2    1    2    0    0  0.73503125394E+03  0.18795534992E+03  0.29294100539E+02  0.76429357610E+03  0.87683341102E+02 0.  0.
         13    1    3    3    0    0  0.48380691899E+03  0.85373099712E+02  0.38397472085E+02  0.49277993758E+03  0.00000000000E+00 0.  1.
        -13    1    3    3    0    0  0.25122433496E+03  0.10258225021E+03 -0.91033715467E+01  0.27151363853E+03  0.00000000000E+00 0. -1.
         22    1    1    2    0    0 -0.73503125394E+03 -0.18795534992E+03  0.15538245668E+04  0.17291526659E+04  0.00000000000E+00 0.  1.
<mgrwt>
<rscale>  0 0.19263981E+04</rscale>
<asrwt>0</asrwt>
<pdfrwt beam="1">  1        4 0.70025199E-01 0.19263981E+04</pdfrwt>
<pdfrwt beam="2">  1       -4 0.31358191E+00 0.19263981E+04</pdfrwt>
<totfact> 0.89027547E-02</totfact>
</mgrwt>
</event>
<event>
 6    1  0.1588846E-005  0.3614736E+04  0.7818608E-02  0.8087125E-01
         -1   -1    0    0    0  501 -0.00000000000E+00  0.00000000000E+00  0.34949025697E+04  0.34949025697E+04  0.00000000000E+00 0.  1.
          1   -1    0    0  501    0  0.00000000000E+00 -0.00000000000E+00 -0.93466944213E+03  0.93466944213E+03  0.00000000000E+00 0. -1.
         23    2    1    2    0    0  0.15829957751E+04 -0.99078146022E+02  0.22193358633E+03  0.16040920796E+04  0.90359172701E+02 0.  0.
         13    1    3    3    0    0  0.84456306154E+03 -0.31861955106E+02  0.15850298881E+03  0.85989833501E+03  0.00000000000E+00 0.  1.
        -13    1    3    3    0    0  0.73843271355E+03 -0.67216190917E+02  0.63430597520E+02  0.74419374458E+03  0.00000000000E+00 0. -1.
         22    1    1    2    0    0 -0.15829957751E+04  0.99078146022E+02  0.23382995412E+04  0.28254799323E+04  0.00000000000E+00 0.  1.
<mgrwt>
<rscale>  0 0.36147357E+04</rscale>
<asrwt>0</asrwt>
<pdfrwt beam="1">  1        1 0.14379530E+00 0.36147357E+04</pdfrwt>
<pdfrwt beam="2">  1       -1 0.53767731E+00 0.36147357E+04</pdfrwt>
<totfact> 0.12079872E-02</totfact>
</mgrwt>
</event>
<event>
 6    1  0.1588846E-005  0.2286798E+04  0.7818608E-02  0.8483145E-01
          1   -1    0    0  501    0  0.00000000000E+00  0.00000000000E+00  0.22512945198E+04  0.22512945198E+04  0.00000000000E+00 0. -1.
         -1   -1    0    0    0  501 -0.00000000000E+00 -0.00000000000E+00 -0.58071533944E+03  0.58071533944E+03  0.00000000000E+00 0.  1.
         23    2    1    2    0    0  0.44022810803E+03  0.10236198920E+04  0.52916523873E+03  0.12368847054E+04  0.90936539397E+02 0.  0.
         11    1    3    3    0    0  0.11004746080E+03  0.32384885303E+03  0.12697922325E+03  0.36484551029E+03  0.00000000000E+00 0.  1.
        -11    1    3    3    0    0  0.33018064723E+03  0.69977103893E+03  0.40218601548E+03  0.87203919509E+03  0.00000000000E+00 0. -1.
         22    1    1    2    0    0 -0.44022810803E+03 -0.10236198920E+04  0.11414139416E+04  0.15951251538E+04  0.00000000000E+00 0. -1.
<mgrwt>
<rscale>  0 0.22867980E+04</rscale>
<asrwt>0</asrwt>
<pdfrwt beam="1">  1        1 0.34635300E+00 0.22867980E+04</pdfrwt>
<pdfrwt beam="2">  1       -1 0.89340823E-01 0.22867980E+04</pdfrwt>
<totfact> 0.22322603E+00</totfact>
</mgrwt>
</event>
<event>
 6    1  0.1588846E-005  0.2369986E+04  0.7818608E-02  0.8450827E-01
          2   -1    0    0  501    0  0.00000000000E+00  0.00000000000E+00  0.23971448634E+04  0.23971448634E+04  0.00000000000E+00 0. -1.
         -2   -1    0    0    0  501 -0.00000000000E+00 -0.00000000000E+00 -0.58578372324E+03  0.58578372324E+03  0.00000000000E+00 0.  1.
         23    2    1    2    0    0 -0.56458681808E+03 -0.95179648977E+03  0.14361523375E+04  0.18144011036E+04  0.69591631264E+02 0.  0.
         11    1    3    3    0    0 -0.54670028514E+03 -0.90084780447E+03  0.13821997459E+04  0.17380690741E+04  0.00000000000E+00 0.  1.
        -11    1    3    3    0    0 -0.17886532935E+02 -0.50948685299E+02  0.53952591553E+02  0.76332029512E+02  0.00000000000E+00 0. -1.
         22    1    1    2    0    0  0.56458681808E+03  0.95179648977E+03  0.37520880268E+03  0.11685274831E+04  0.00000000000E+00 0. -1.
<mgrwt>
<rscale>  0 0.23699860E+04</rscale>
<asrwt>0</asrwt>
<pdfrwt beam="1">  1        2 0.36879151E+00 0.23699860E+04</pdfrwt>
<pdfrwt beam="2">  1       -2 0.90120574E-01 0.23699860E+04</pdfrwt>
<totfact> 0.37893491E+00</totfact>
</mgrwt>
</event>
<event>
 6    1  0.1588846E-005  0.1365712E+04  0.7818608E-02  0.8979018E-01
         -1   -1    0    0    0  501 -0.00000000000E+00  0.00000000000E+00  0.38928348297E+03  0.38928348297E+03  0.00000000000E+00 0.  1.
          1   -1    0    0  501    0  0.00000000000E+00 -0.00000000000E+00 -0.11978227945E+04  0.11978227945E+04  0.00000000000E+00 0. -1.
         23    2    1    2    0    0 -0.58513271726E+03  0.29755291113E+03 -0.60696221576E+03  0.90041030600E+03  0.10685296462E+03 0.  0.
         11    1    3    3    0    0 -0.31498612228E+03  0.17588584874E+03 -0.40199904061E+03  0.54014379351E+03  0.00000000000E+00 0.  1.
        -11    1    3    3    0    0 -0.27014659498E+03  0.12166706240E+03 -0.20496317516E+03  0.36026651249E+03  0.00000000000E+00 0. -1.
         22    1    1    2    0    0  0.58513271726E+03 -0.29755291113E+03 -0.20157709579E+03  0.68669597151E+03  0.00000000000E+00 0.  1.
<mgrwt>
<rscale>  0 0.13657125E+04</rscale>
<asrwt>0</asrwt>
<pdfrwt beam="1">  1        1 0.18428043E+00 0.13657125E+04</pdfrwt>
<pdfrwt beam="2">  1       -1 0.59889767E-01 0.13657125E+04</pdfrwt>
<totfact> 0.29638640E+01</totfact>
</mgrwt>
</event>
<event>
 6    1  0.1588846E-005  0.3151932E+04  0.7818608E-02  0.8201628E-01
          2   -1    0    0  501    0  0.00000000000E+00  0.00000000000E+00  0.11151593375E+04  0.11151593375E+04  0.00000000000E+00 0. -1.
         -2   -1    0    0    0  501 -0.00000000000E+00 -0.00000000000E+00 -0.22271878727E+04  0.22271878727E+04  0.00000000000E+00 0.  1.
         23    2    1    2    0    0 -0.20607115852E+03 -0.83877056959E+03  0.83965286752E+03  0.12080881611E+04  0.91971062616E+02 0.  0.
         11    1    3    3    0    0 -0.68923789592E+02 -0.39022435281E+03  0.33246420341E+03  0.51726007080E+03  0.00000000000E+00 0. -1.
        -11    1    3    3    0    0 -0.13714736893E+03 -0.44854621678E+03  0.50718866411E+03  0.69082809034E+03  0.00000000000E+00 0.  1.
         22    1    1    2    0    0  0.20607115852E+03  0.83877056959E+03 -0.19516814028E+04  0.21342590491E+04  0.00000000000E+00 0.  1.
<mgrwt>
<rscale>  0 0.31519323E+04</rscale>
<asrwt>0</asrwt>
<pdfrwt beam="1">  1        2 0.17156298E+00 0.31519323E+04</pdfrwt>
<pdfrwt beam="2">  1       -2 0.34264428E+00 0.31519323E+04</pdfrwt>
<totfact> 0.31188524E-01</totfact>
</mgrwt>
</event>
<event>
 6    1  0.1588846E-005  0.1997684E+04  0.7818608E-02  0.8607704E-01
          1   -1    0    0  501    0  0.00000000000E+00  0.00000000000E+00  0.65410594546E+03  0.65410594546E+03  0.00000000000E+00 0. -1.
         -1   -1    0    0    0  501 -0.00000000000E+00 -0.00000000000E+00 -0.15252663348E+04  0.15252663348E+04  0.00000000000E+00 0.  1.
         23    2    1    2    0    0 -0.68929010232E+03 -0.50143192808E+03 -0.10000184094E+04  0.13173054540E+04  0.93284598182E+02 0.  0.
         13    1    3    3    0    0 -0.77469250133E+02 -0.76124748657E+02 -0.17160850590E+03  0.20309096821E+03  0.00000000000E+00 0.  1.
        -13    1    3    3    0    0 -0.61182085219E+03 -0.42530717942E+03 -0.82840990354E+03  0.11142144858E+04  0.00000000000E+00 0. -1.
         22    1    1    2    0    0  0.68929010232E+03  0.50143192808E+03  0.12885802007E+03  0.86206682629E+03  0.00000000000E+00 0. -1.
<mgrwt>
<rscale>  0 0.19976844E+04</rscale>
<asrwt>0</asrwt>
<pdfrwt beam="1">  1        1 0.10063168E+00 0.19976844E+04</pdfrwt>
<pdfrwt beam="2">  1       -1 0.23465636E+00 0.19976844E+04</pdfrwt>
<totfact> 0.24611754E+00</totfact>
</mgrwt>
</event>
<event>
 6    1  0.1588846E-005  0.4056632E+04  0.7818608E-02  0.7993218E-01
          1   -1    0    0  501    0  0.00000000000E+00  0.00000000000E+00  0.32151512267E+04  0.32151512267E+04  0.00000000000E+00 0. -1.
         -1   -1    0    0    0  501 -0.00000000000E+00 -0.00000000000E+00 -0.12795873075E+04  0.12795873075E+04  0.00000000000E+00 0.  1.
         23    2    1    2    0    0 -0.96072242543E+03 -0.91004999112E+03  0.26699573472E+04  0.29812946891E+04  0.90924266186E+02 0.  0.
         11    1    3    3    0    0 -0.23773393500E+03 -0.26290471105E+03  0.78225954358E+03  0.85881680495E+03  0.00000000000E+00 0.  1.
        -11    1    3    3    0    0 -0.72298849043E+03 -0.64714528007E+03  0.18876978037E+04  0.21224778842E+04  0.00000000000E+00 0. -1.
         22    1    1    2    0    0  0.96072242543E+03  0.91004999112E+03 -0.73439342808E+03  0.15134438451E+04  0.00000000000E+00 0.  1.
<mgrwt>
<rscale>  0 0.40566324E+04</rscale>
<asrwt>0</asrwt>
<pdfrwt beam="1">  1        1 0.49463865E+00 0.40566324E+04</pdfrwt>
<pdfrwt beam="2">  1       -1 0.19685959E+00 0.40566324E+04</pdfrwt>
<totfact> 0.50998005E-02</totfact>
</mgrwt>
</event>
<event>
 6    1  0.1588846E-005  0.9847566E+03  0.7818608E-02  0.9325423E-01
         -2   -1    0    0    0  501 -0.00000000000E+00  0.00000000000E+00  0.55001590310E+03  0.55001590310E+03  0.00000000000E+00 0. -1.
          2   -1    0    0  501    0  0.00000000000E+00 -0.00000000000E+00 -0.44078064731E+03  0.44078064731E+03  0.00000000000E+00 0.  1.
         23    2    1    2    0    0  0.24003410072E+03 -0.18089599489E+03 -0.33194778476E+03  0.45695930392E+03  0.91009577305E+02 0.  0.
         13    1    3    3    0    0  0.22538683818E+03 -0.13025955008E+03 -0.26161089609E+03  0.36906237706E+03  0.00000000000E+00 0. -1.
        -13    1    3    3    0    0  0.14647262532E+02 -0.50636444817E+02 -0.70336888672E+02  0.87896926860E+02  0.00000000000E+00 0.  1.
         22    1    1    2    0    0 -0.24003410072E+03  0.18089599489E+03  0.44118304054E+03  0.53383724649E+03  0.00000000000E+00 0. -1.
<mgrwt>
<rscale>  0 0.98475655E+03</rscale>
<asrwt>0</asrwt>
<pdfrwt beam="1">  1        2 0.67812407E-01 0.98475655E+03</pdfrwt>
<pdfrwt beam="2">  1       -2 0.84617831E-01 0.98475655E+03</pdfrwt>
<totfact> 0.86679291E+01</totfact>
</mgrwt>
</event>
<event>
 6    1  0.1588846E-005  0.3348698E+04  0.7818608E-02  0.8150614E-01
          2   -1    0    0  501    0  0.00000000000E+00  0.00000000000E+00  0.12783674930E+04  0.12783674930E+04  0.00000000000E+00 0. -1.
         -2   -1    0    0    0  501 -0.00000000000E+00 -0.00000000000E+00 -0.21929877250E+04  0.21929877250E+04  0.00000000000E+00 0.  1.
         23    2    1    2    0    0  0.14591440952E+04 -0.49442029516E+03 -0.11340854948E+04  0.19151682369E+04  0.90368950561E+02 0.  0.
         13    1    3    3    0    0  0.33772861064E+03 -0.93309379221E+02 -0.21863957080E+03  0.41300183609E+03  0.00000000000E+00 0.  1.
        -13    1    3    3    0    0  0.11214154845E+04 -0.40111091594E+03 -0.91544592402E+03  0.15021664008E+04  0.00000000000E+00 0. -1.
         22    1    1    2    0    0 -0.14591440952E+04  0.49442029516E+03  0.21946526284E+03  0.15561869812E+04  0.00000000000E+00 0. -1.
<mgrwt>
<rscale>  0 0.33486978E+04</rscale>
<asrwt>0</asrwt>
<pdfrwt beam="1">  1        2 0.19667193E+00 0.33486978E+04</pdfrwt>
<pdfrwt beam="2">  1       -2 0.33738272E+00 0.33486978E+04</pdfrwt>
<totfact> 0.26429195E-01</totfact>
</mgrwt>
</event>
<event>
 6    1  0.1588846E-005  0.2806791E+04  0.7818608E-02  0.8301163E-01
         -2   -1    0    0    0  501 -0.00000000000E+00  0.00000000000E+00  0.54798396761E+03  0.54798396761E+03  0.00000000000E+00 0.  1.
          2   -1    0    0  501    0  0.00000000000E+00 -0.00000000000E+00 -0.35941178258E+04  0.35941178258E+04  0.00000000000E+00 0. -1.
         23    2    1    2    0    0  0.12912243440E+04  0.43009881391E+03 -0.20216768886E+04  0.24386472508E+04  0.87049845214E+02 0.  0.
         11    1    3    3    0    0  0.66326103927E+03  0.26643147106E+03 -0.10687895115E+04  0.12857729017E+04  0.00000000000E+00 0. -1.
        -11    1    3    3    0    0  0.62796330474E+03  0.16366734285E+03 -0.95288737714E+03  0.11528743491E+04  0.00000000000E+00 0.  1.
         22    1    1    2    0    0 -0.12912243440E+04 -0.43009881391E+03 -0.10244569696E+04  0.17034545427E+04  0.00000000000E+00 0.  1.
<mgrwt>
<rscale>  0 0.28067910E+04</rscale>
<asrwt>0</asrwt>
<pdfrwt beam="1">  1        2 0.55294120E+00 0.28067910E+04</pdfrwt>
<pdfrwt beam="2">  1       -2 0.84305226E-01 0.28067910E+04</pdfrwt>
<totfact> 0.74425063E-01</totfact>
</mgrwt>
</event>
<event>
 6    1  0.1588846E-005  0.1310265E+04  0.7818608E-02  0.9021464E-01
         -1   -1    0    0    0  501 -0.00000000000E+00  0.00000000000E+00  0.28553148681E+03  0.28553148681E+03  0.00000000000E+00 0.  1.
          1   -1    0    0  501    0  0.00000000000E+00 -0.00000000000E+00 -0.15031577465E+04  0.15031577465E+04  0.00000000000E+00 0. -1.
         23    2    1    2    0    0 -0.49245889337E+03 -0.28765833485E+03 -0.10429514039E+04  0.11922209739E+04  0.91543106812E+02 0.  0.
         13    1    3    3    0    0 -0.95642171041E+02 -0.75484915313E+02 -0.29754030690E+03  0.32152081045E+03  0.00000000000E+00 0. -1.
        -13    1    3    3    0    0 -0.39681672233E+03 -0.21217341954E+03 -0.74541109704E+03  0.87070016347E+03  0.00000000000E+00 0.  1.
         22    1    1    2    0    0  0.49245889337E+03  0.28765833485E+03 -0.17467485580E+03  0.59646825944E+03  0.00000000000E+00 0.  1.
<mgrwt>
<rscale>  0 0.13102654E+04</rscale>
<asrwt>0</asrwt>
<pdfrwt beam="1">  1        1 0.23125503E+00 0.13102654E+04</pdfrwt>
<pdfrwt beam="2">  1       -1 0.43927922E-01 0.13102654E+04</pdfrwt>
<totfact> 0.32731228E+01</totfact>
</mgrwt>
</event>
<event>
 6    1  0.1606213E-005  0.3490952E+04  0.7818608E-02  0.8115937E-01
          2   -1    0    0  501    0  0.00000000000E+00  0.00000000000E+00  0.16901144704E+04  0.16901144704E+04  0.00000000000E+00 0.  1.
         -2   -1    0    0    0  501 -0.00000000000E+00 -0.00000000000E+00 -0.18026512132E+04  0.18026512132E+04  0.00000000000E+00 0. -1.
         23    2    1    2    0    0 -0.17249836390E+04 -0.19549501614E+03 -0.22615757029E+03  0.17530253154E+04  0.90352939341E+02 0.  0.
         11    1    3    3    0    0 -0.69070773909E+03 -0.10162402348E+03 -0.12902002816E+03  0.70996534468E+03  0.00000000000E+00 0. -1.
        -11    1    3    3    0    0 -0.10342758999E+04 -0.93870992665E+02 -0.97137542128E+02  0.10430599707E+04  0.00000000000E+00 0.  1.
         22    1    1    2    0    0  0.17249836390E+04  0.19549501614E+03  0.11362082744E+03  0.17397403682E+04  0.00000000000E+00 0. -1.
<mgrwt>
<rscale>  0 0.34909522E+04</rscale>
<asrwt>0</asrwt>
<pdfrwt beam="1">  1        2 0.26001761E+00 0.34909522E+04</pdfrwt>
<pdfrwt beam="2">  1       -2 0.27733096E+00 0.34909522E+04</pdfrwt>
<totfact> 0.35708157E-01</totfact>
</mgrwt>
</event>
<event>
 6    1  0.1588846E-005  0.2573693E+04  0.7818608E-02  0.8377192E-01
         -1   -1    0    0    0  501 -0.00000000000E+00  0.00000000000E+00  0.10527101571E+04  0.10527101571E+04  0.00000000000E+00 0.  1.
          1   -1    0    0  501    0  0.00000000000E+00 -0.00000000000E+00 -0.15730578625E+04  0.15730578625E+04  0.00000000000E+00 0. -1.
         23    2    1    2    0    0  0.37573389522E+03 -0.87786204835E+03  0.61702590131E+03  0.11406968236E+04  0.93008303488E+02 0.  0.
         11    1    3    3    0    0  0.26527288795E+03 -0.62982447204E+03  0.39062853389E+03  0.78717165990E+03  0.00000000000E+00 0. -1.
        -11    1    3    3    0    0  0.11046100727E+03 -0.24803757631E+03  0.22639736742E+03  0.35352516369E+03  0.00000000000E+00 0.  1.
         22    1    1    2    0    0 -0.37573389522E+03  0.87786204835E+03 -0.11373736067E+04  0.14850711960E+04  0.00000000000E+00 0. -1.
<mgrwt>
<rscale>  0 0.25736931E+04</rscale>
<asrwt>0</asrwt>
<pdfrwt beam="1">  1        1 0.24200890E+00 0.25736931E+04</pdfrwt>
<pdfrwt beam="2">  1       -1 0.16195541E+00 0.25736931E+04</pdfrwt>
<totfact> 0.14520861E+00</totfact>
</mgrwt>
</event>
<event>
 6    1  0.1588846E-005  0.2016301E+04  0.7818608E-02  0.8599037E-01
         -2   -1    0    0    0  501 -0.00000000000E+00  0.00000000000E+00  0.53048736383E+03  0.53048736383E+03  0.00000000000E+00 0.  1.
          2   -1    0    0  501    0  0.00000000000E+00 -0.00000000000E+00 -0.19159124277E+04  0.19159124277E+04  0.00000000000E+00 0. -1.
         23    2    1    2    0    0 -0.66725112456E+03  0.69090096416E+03 -0.10577946146E+04  0.14315550168E+04  0.88612155362E+02 0.  0.
         11    1    3    3    0    0 -0.15427537892E+03  0.18408403848E+03 -0.31725201938E+03  0.39791540503E+03  0.00000000000E+00 0. -1.
        -11    1    3    3    0    0 -0.51297574563E+03  0.50681692568E+03 -0.74054259521E+03  0.10336396118E+04  0.00000000000E+00 0.  1.
         22    1    1    2    0    0  0.66725112456E+03 -0.69090096416E+03 -0.32763044933E+03  0.10148447747E+04  0.00000000000E+00 0. -1.
<mgrwt>
<rscale>  0 0.20163009E+04</rscale>
<asrwt>0</asrwt>
<pdfrwt beam="1">  1        2 0.29475577E+00 0.20163009E+04</pdfrwt>
<pdfrwt beam="2">  1       -2 0.81613438E-01 0.20163009E+04</pdfrwt>
<totfact> 0.91216947E+00</totfact>
</mgrwt>
</event>
<event>
 6    1  0.1588846E-005  0.3151350E+04  0.7818608E-02  0.8201785E-01
         -2   -1    0    0    0  501 -0.00000000000E+00  0.00000000000E+00  0.13057576118E+04  0.13057576118E+04  0.00000000000E+00 0.  1.
          2   -1    0    0  501    0  0.00000000000E+00 -0.00000000000E+00 -0.19013875112E+04  0.19013875112E+04  0.00000000000E+00 0. -1.
         23    2    1    2    0    0  0.12867137950E+04 -0.88504608413E+03 -0.95462496775E+02  0.15672956202E+04  0.91452236653E+02 0.  0.
         13    1    3    3    0    0  0.32249919578E+03 -0.20448073975E+03  0.13290650026E+02  0.38209258771E+03  0.00000000000E+00 0.  1.
        -13    1    3    3    0    0  0.96421459922E+03 -0.68056534438E+03 -0.10875314680E+03  0.11852030325E+04  0.00000000000E+00 0. -1.
         22    1    1    2    0    0 -0.12867137950E+04  0.88504608413E+03 -0.50016740266E+03  0.16398495028E+04  0.00000000000E+00 0. -1.
<mgrwt>
<rscale>  0 0.31513497E+04</rscale>
<asrwt>0</asrwt>
<pdfrwt beam="1">  1        2 0.29252116E+00 0.31513497E+04</pdfrwt>
<pdfrwt beam="2">  1       -2 0.20088579E+00 0.31513497E+04</pdfrwt>
<totfact> 0.84106185E-01</totfact>
</mgrwt>
</event>
<event>
 6    1  0.1588846E-005  0.4470786E+04  0.7818608E-02  0.7915771E-01
          1   -1    0    0  501    0  0.00000000000E+00  0.00000000000E+00  0.34397812675E+04  0.34397812675E+04  0.00000000000E+00 0. -1.
         -1   -1    0    0    0  501 -0.00000000000E+00 -0.00000000000E+00 -0.14527032743E+04  0.14527032743E+04  0.00000000000E+00 0.  1.
         23    2    1    2    0    0 -0.16513805170E+03 -0.38579017951E+03  0.33956705187E+04  0.34227098850E+04  0.90884799002E+02 0.  0.
         13    1    3    3    0    0 -0.96428173246E+02 -0.16347220883E+03  0.12271014167E+04  0.12416921690E+04  0.00000000000E+00 0. -1.
        -13    1    3    3    0    0 -0.68709878449E+02 -0.22231797068E+03  0.21685691020E+04  0.21810177160E+04  0.00000000000E+00 0.  1.
         22    1    1    2    0    0  0.16513805170E+03  0.38579017951E+03 -0.14085925255E+04  0.14697746568E+04  0.00000000000E+00 0.  1.
<mgrwt>
<rscale>  0 0.44707858E+04</rscale>
<asrwt>0</asrwt>
<pdfrwt beam="1">  1        1 0.52919712E+00 0.44707858E+04</pdfrwt>
<pdfrwt beam="2">  1       -1 0.22349281E+00 0.44707858E+04</pdfrwt>
<totfact> 0.21859429E-02</totfact>
</mgrwt>
</event>
<event>
 6    1  0.1588846E-005  0.3069108E+04  0.7818608E-02  0.8224267E-01
         -1   -1    0    0    0  501 -0.00000000000E+00  0.00000000000E+00  0.18988114889E+04  0.18988114889E+04  0.00000000000E+00 0.  1.
          1   -1    0    0  501    0  0.00000000000E+00 -0.00000000000E+00 -0.12401737072E+04  0.12401737072E+04  0.00000000000E+00 0. -1.
         23    2    1    2    0    0  0.91114004460E+03 -0.12133627731E+04  0.55453627810E+03  0.16180438681E+04  0.90166931326E+02 0.  0.
         13    1    3    3    0    0  0.43727398377E+03 -0.52892797860E+03  0.28404883822E+03  0.74273621557E+03  0.00000000000E+00 0.  1.
        -13    1    3    3    0    0  0.47386606083E+03 -0.68443479446E+03  0.27048743988E+03  0.87530765255E+03  0.00000000000E+00 0. -1.
         22    1    1    2    0    0 -0.91114004460E+03  0.12133627731E+04  0.10410150363E+03  0.15209413279E+04  0.00000000000E+00 0.  1.
<mgrwt>
<rscale>  0 0.30691081E+04</rscale>
<asrwt>0</asrwt>
<pdfrwt beam="1">  1        1 0.19079595E+00 0.30691081E+04</pdfrwt>
<pdfrwt beam="2">  1       -1 0.29212484E+00 0.30691081E+04</pdfrwt>
<totfact> 0.31388233E-01</totfact>
</mgrwt>
</event>
<event>
 6    1  0.1588846E-005  0.3001833E+04  0.7818608E-02  0.8243208E-01
         -1   -1    0    0    0  501 -0.00000000000E+00  0.00000000000E+00  0.15971179851E+04  0.15971179851E+04  0.00000000000E+00 0.  1.
          1   -1    0    0  501    0  0.00000000000E+00 -0.00000000000E+00 -0.14105096498E+04  0.14105096498E+04  0.00000000000E+00 0. -1.
         23    2    1    2    0    0  0.54889844514E+02 -0.50997408621E+03  0.15051048376E+04  0.15928769537E+04  0.93967833233E+02 0.  0.
         13    1    3    3    0    0 -0.57229495492E+01 -0.31853901783E+03  0.99083152252E+03  0.10407915084E+04  0.00000000000E+00 0. -1.
        -13    1    3    3    0    0  0.60612794063E+02 -0.19143506838E+03  0.51427331508E+03  0.55208544521E+03  0.00000000000E+00 0.  1.
         22    1    1    2    0    0 -0.54889844514E+02  0.50997408621E+03 -0.13184965022E+04  0.14147506812E+04  0.00000000000E+00 0. -1.
<mgrwt>
<rscale>  0 0.30018330E+04</rscale>
<asrwt>0</asrwt>
<pdfrwt beam="1">  1        1 0.21700148E+00 0.30018330E+04</pdfrwt>
<pdfrwt beam="2">  1       -1 0.24571046E+00 0.30018330E+04</pdfrwt>
<totfact> 0.47802071E-01</totfact>
</mgrwt>
</event>
<event>
 6    1  0.1588846E-005  0.5161250E+04  0.7818608E-02  0.7804103E-01
          2   -1    0    0  501    0  0.00000000000E+00  0.00000000000E+00  0.25811436815E+04  0.25811436815E+04  0.00000000000E+00 0. -1.
         -2   -1    0    0    0  501 -0.00000000000E+00 -0.00000000000E+00 -0.25801059741E+04  0.25801059741E+04  0.00000000000E+00 0.  1.
         23    2    1    2    0    0  0.12324330192E+04  0.18303573109E+04 -0.13360705122E+04  0.25811416302E+04  0.90048148697E+02 0.  0.
         11    1    3    3    0    0  0.55324100194E+03  0.90184631759E+03 -0.64495851450E+03  0.12391020427E+04  0.00000000000E+00 0.  1.
        -11    1    3    3    0    0  0.67919201730E+03  0.92851099328E+03 -0.69111199769E+03  0.13420395875E+04  0.00000000000E+00 0. -1.
         22    1    1    2    0    0 -0.12324330192E+04 -0.18303573109E+04  0.13371082195E+04  0.25801080255E+04  0.00000000000E+00 0. -1.
<mgrwt>
<rscale>  0 0.51612496E+04</rscale>
<asrwt>0</asrwt>
<pdfrwt beam="1">  1        2 0.39709903E+00 0.51612496E+04</pdfrwt>
<pdfrwt beam="2">  1       -2 0.39693938E+00 0.51612496E+04</pdfrwt>
<totfact> 0.17453168E-02</totfact>
</mgrwt>
</event>
<event>
 6    1  0.1588846E-005  0.7428774E+03  0.7818608E-02  0.9646591E-01
         -1   -1    0    0    0  501 -0.00000000000E+00  0.00000000000E+00  0.44439288857E+03  0.44439288857E+03  0.00000000000E+00 0.  1.
          1   -1    0    0  501    0  0.00000000000E+00 -0.00000000000E+00 -0.31046113120E+03  0.31046113120E+03  0.00000000000E+00 0. -1.
         23    2    1    2    0    0  0.25442751549E+03  0.21992651833E+03 -0.79647911193E+02  0.35646061003E+03  0.87288846046E+02 0.  0.
         11    1    3    3    0    0  0.19556768441E+03  0.19757640819E+03 -0.37080229536E+02  0.28046051359E+03  0.00000000000E+00 0.  1.
        -11    1    3    3    0    0  0.58859831081E+02  0.22350110138E+02 -0.42567681657E+02  0.76000096445E+02  0.00000000000E+00 0. -1.
         22    1    1    2    0    0 -0.25442751549E+03 -0.21992651833E+03  0.21357966856E+03  0.39839340974E+03  0.00000000000E+00 0.  1.
<mgrwt>
<rscale>  0 0.74287743E+03</rscale>
<asrwt>0</asrwt>
<pdfrwt beam="1">  1        1 0.47763251E-01 0.74287743E+03</pdfrwt>
<pdfrwt beam="2">  1       -1 0.68368137E-01 0.74287743E+03</pdfrwt>
<totfact> 0.18405818E+02</totfact>
</mgrwt>
</event>
<event>
 6    1  0.1588846E-005  0.4387561E+04  0.7818608E-02  0.7930623E-01
         -1   -1    0    0    0  501 -0.00000000000E+00  0.00000000000E+00  0.16071967293E+04  0.16071967293E+04  0.00000000000E+00 0.  1.
          1   -1    0    0  501    0  0.00000000000E+00 -0.00000000000E+00 -0.29944519415E+04  0.29944519415E+04  0.00000000000E+00 0. -1.
         23    2    1    2    0    0  0.15402853373E+04  0.10049892560E+04  0.55850681873E+03  0.19242484007E+04  0.91212478337E+02 0.  0.
         13    1    3    3    0    0  0.65814521914E+03  0.40831711218E+03  0.19196393218E+03  0.79795247028E+03  0.00000000000E+00 0. -1.
        -13    1    3    3    0    0  0.88214011816E+03  0.59667214383E+03  0.36654288655E+03  0.11262959305E+04  0.00000000000E+00 0.  1.
         22    1    1    2    0    0 -0.15402853373E+04 -0.10049892560E+04 -0.19457620309E+04  0.26774002700E+04  0.00000000000E+00 0. -1.
<mgrwt>
<rscale>  0 0.43875612E+04</rscale>
<asrwt>0</asrwt>
<pdfrwt beam="1">  1        1 0.46068491E+00 0.43875612E+04</pdfrwt>
<pdfrwt beam="2">  1       -1 0.24726104E+00 0.43875612E+04</pdfrwt>
<totfact> 0.33232290E-02</totfact>
</mgrwt>
</event>
<event>
 6    1  0.3513684E-005  0.3222266E+04  0.7818608E-02  0.8182961E-01
          2   -1    0    0  501    0  0.00000000000E+00  0.00000000000E+00  0.15778056640E+04  0.15778056640E+04  0.00000000000E+00 0. -1.
         -2   -1    0    0    0  501 -0.00000000000E+00 -0.00000000000E+00 -0.16451647058E+04  0.16451647058E+04  0.00000000000E+00 0.  1.
         23    2    1    2    0    0  0.79510692017E+03 -0.13776892215E+04 -0.28169805963E+03  0.16179271242E+04  0.90065402438E+02 0.  0.
         11    1    3    3    0    0  0.57354691804E+03 -0.98891006833E+03 -0.24332224801E+03  0.11688049054E+04  0.00000000000E+00 0. -1.
        -11    1    3    3    0    0  0.22156000213E+03 -0.38877915322E+03 -0.38375811621E+02  0.44912221882E+03  0.00000000000E+00 0.  1.
         22    1    1    2    0    0 -0.79510692017E+03  0.13776892215E+04  0.21433901788E+03  0.16050432456E+04  0.00000000000E+00 0.  1.
<mgrwt>
<rscale>  0 0.32222664E+04</rscale>
<asrwt>0</asrwt>
<pdfrwt beam="1">  1        2 0.24273933E+00 0.32222664E+04</pdfrwt>
<pdfrwt beam="2">  1       -2 0.25310226E+00 0.32222664E+04</pdfrwt>
<totfact> 0.59322769E-01</totfact>
</mgrwt>
</event>
<event>
 6    1  0.1588846E-005  0.2199927E+04  0.7818608E-02  0.8518458E-01
          2   -1    0    0  501    0  0.00000000000E+00  0.00000000000E+00  0.27691217051E+04  0.27691217051E+04  0.00000000000E+00 0. -1.
         -2   -1    0    0    0  501 -0.00000000000E+00 -0.00000000000E+00 -0.43693284295E+03  0.43693284295E+03  0.00000000000E+00 0.  1.
         23    2    1    2    0    0 -0.31835378734E+03  0.57738409946E+03  0.24480648485E+04  0.25366153973E+04  0.81698467387E+02 0.  0.
         11    1    3    3    0    0 -0.27323896182E+03  0.45676563898E+03  0.18626886902E+04  0.19372412177E+04  0.00000000000E+00 0.  1.
        -11    1    3    3    0    0 -0.45114825520E+02  0.12061846048E+03  0.58537615830E+03  0.59937417962E+03  0.00000000000E+00 0. -1.
         22    1    1    2    0    0  0.31835378734E+03 -0.57738409946E+03 -0.11587598635E+03  0.66943915066E+03  0.00000000000E+00 0.  1.
<mgrwt>
<rscale>  0 0.21999275E+04</rscale>
<asrwt>0</asrwt>
<pdfrwt beam="1">  1        2 0.42601871E+00 0.21999275E+04</pdfrwt>
<pdfrwt beam="2">  1       -2 0.67220439E-01 0.21999275E+04</pdfrwt>
<totfact> 0.44824084E+00</totfact>
</mgrwt>
</event>
<event>
 6    1  0.1588846E-005  0.3356372E+04  0.7818608E-02  0.8148698E-01
          1   -1    0    0  501    0  0.00000000000E+00  0.00000000000E+00  0.31998836433E+04  0.31998836433E+04  0.00000000000E+00 0. -1.
         -1   -1    0    0    0  501 -0.00000000000E+00 -0.00000000000E+00 -0.88012829057E+03  0.88012829057E+03  0.00000000000E+00 0.  1.
         23    2    1    2    0    0  0.27676599324E+03  0.95392967770E+03  0.28031854001E+04  0.29753464389E+04  0.90866932589E+02 0.  0.
         13    1    3    3    0    0  0.23057186465E+02  0.20957336621E+03  0.57038590284E+03  0.60810583604E+03  0.00000000000E+00 0.  1.
        -13    1    3    3    0    0  0.25370880678E+03  0.74435631149E+03  0.22327994972E+04  0.23672406029E+04  0.00000000000E+00 0. -1.
         22    1    1    2    0    0 -0.27676599324E+03 -0.95392967770E+03 -0.48343004735E+03  0.11046654949E+04  0.00000000000E+00 0.  1.
<mgrwt>
<rscale>  0 0.33563719E+04</rscale>
<asrwt>0</asrwt>
<pdfrwt beam="1">  1        1 0.49228979E+00 0.33563719E+04</pdfrwt>
<pdfrwt beam="2">  1       -1 0.13540435E+00 0.33563719E+04</pdfrwt>
<totfact> 0.16030567E-01</totfact>
</mgrwt>
</event>
<event>
 6    1  0.1588846E-005  0.2502634E+04  0.7818608E-02  0.8402048E-01
          1   -1    0    0  501    0  0.00000000000E+00  0.00000000000E+00  0.74766952736E+03  0.74766952736E+03  0.00000000000E+00 0. -1.
         -1   -1    0    0    0  501 -0.00000000000E+00 -0.00000000000E+00 -0.20942323119E+04  0.20942323119E+04  0.00000000000E+00 0.  1.
         23    2    1    2    0    0 -0.33688340582E+03 -0.80499429377E+03  0.34195750917E+03  0.94121590403E+03  0.86291354108E+02 0.  0.
         11    1    3    3    0    0 -0.28684127509E+03 -0.59986598320E+03  0.27695539751E+03  0.72029258438E+03  0.00000000000E+00 0. -1.
        -11    1    3    3    0    0 -0.50042130734E+02 -0.20512831057E+03  0.65002111656E+02  0.22092331965E+03  0.00000000000E+00 0.  1.
         22    1    1    2    0    0  0.33688340582E+03  0.80499429377E+03 -0.16885202937E+04  0.19006859352E+04  0.00000000000E+00 0.  1.
<mgrwt>
<rscale>  0 0.25026336E+04</rscale>
<asrwt>0</asrwt>
<pdfrwt beam="1">  1        1 0.11502608E+00 0.25026336E+04</pdfrwt>
<pdfrwt beam="2">  1       -1 0.32218958E+00 0.25026336E+04</pdfrwt>
<totfact> 0.51780533E-01</totfact>
</mgrwt>
</event>
<event>
 6    1  0.1588846E-005  0.3411761E+04  0.7818608E-02  0.8135026E-01
          1   -1    0    0  501    0  0.00000000000E+00  0.00000000000E+00  0.21908325695E+04  0.21908325695E+04  0.00000000000E+00 0. -1.
         -1   -1    0    0    0  501 -0.00000000000E+00 -0.00000000000E+00 -0.13282747170E+04  0.13282747170E+04  0.00000000000E+00 0.  1.
         23    2    1    2    0    0 -0.64566313436E+03 -0.12121817900E+04  0.14727893169E+04  0.20162273795E+04  0.98989387701E+02 0.  0.
         11    1    3    3    0    0 -0.48347777774E+03 -0.94442353347E+03  0.11908631932E+04  0.15949425435E+04  0.00000000000E+00 0. -1.
        -11    1    3    3    0    0 -0.16218535663E+03 -0.26775825650E+03  0.28192612374E+03  0.42128483603E+03  0.00000000000E+00 0.  1.
         22    1    1    2    0    0  0.64566313436E+03  0.12121817900E+04 -0.61023146437E+03  0.15028799071E+04  0.00000000000E+00 0.  1.
<mgrwt>
<rscale>  0 0.34117605E+04</rscale>
<asrwt>0</asrwt>
<pdfrwt beam="1">  1        1 0.33705116E+00 0.34117605E+04</pdfrwt>
<pdfrwt beam="2">  1       -1 0.20434996E+00 0.34117605E+04</pdfrwt>
<totfact> 0.25519385E-01</totfact>
</mgrwt>
</event>
<event>
 6    1  0.1588846E-005  0.1570721E+04  0.7818608E-02  0.8838740E-01
         -1   -1    0    0    0  501 -0.00000000000E+00  0.00000000000E+00  0.31865945617E+03  0.31865945617E+03  0.00000000000E+00 0.  1.
          1   -1    0    0  501    0  0.00000000000E+00 -0.00000000000E+00 -0.19355808660E+04  0.19355808660E+04  0.00000000000E+00 0. -1.
         23    2    1    2    0    0  0.27127253901E+03  0.59921758457E+03 -0.14200890917E+04  0.15676593251E+04  0.90841770418E+02 0.  0.
         11    1    3    3    0    0  0.35763901952E+02  0.11624620825E+03 -0.19365688404E+03  0.22868149542E+03  0.00000000000E+00 0. -1.
        -11    1    3    3    0    0  0.23550863706E+03  0.48297137633E+03 -0.12264322076E+04  0.13389778297E+04  0.00000000000E+00 0.  1.
         22    1    1    2    0    0 -0.27127253901E+03 -0.59921758457E+03 -0.19683231819E+03  0.68658099709E+03  0.00000000000E+00 0.  1.
<mgrwt>
<rscale>  0 0.15707210E+04</rscale>
<asrwt>0</asrwt>
<pdfrwt beam="1">  1        1 0.29778167E+00 0.15707210E+04</pdfrwt>
<pdfrwt beam="2">  1       -1 0.49024533E-01 0.15707210E+04</pdfrwt>
<totfact> 0.13214169E+01</totfact>
</mgrwt>
</event>
<event>
 6    1  0.1588846E-005  0.5407206E+03  0.7818608E-02  0.1003665E+00
         -2   -1    0    0    0  501 -0.00000000000E+00  0.00000000000E+00  0.71021952849E+03  0.71021952849E+03  0.00000000000E+00 0.  1.
          2   -1    0    0  501    0  0.00000000000E+00 -0.00000000000E+00 -0.10291844372E+03  0.10291844372E+03  0.00000000000E+00 0. -1.
         23    2    1    2    0    0 -0.53870659638E+02  0.10930125570E+03 -0.37559712051E+02  0.15686496519E+03  0.91362316446E+02 0.  0.
         11    1    3    3    0    0 -0.58981604691E+02  0.12333514333E+03 -0.29372249897E+02  0.13983245809E+03  0.00000000000E+00 0. -1.
        -11    1    3    3    0    0  0.51109450530E+01 -0.14033887631E+02 -0.81874621548E+01  0.17032507094E+02  0.00000000000E+00 0.  1.
         22    1    1    2    0    0  0.53870659638E+02 -0.10930125570E+03  0.64486079682E+03  0.65627300702E+03  0.00000000000E+00 0.  1.
<mgrwt>
<rscale>  0 0.54072059E+03</rscale>
<asrwt>0</asrwt>
<pdfrwt beam="1">  1        2 0.15833607E-01 0.54072059E+03</pdfrwt>
<pdfrwt beam="2">  1       -2 0.10926454E+00 0.54072059E+03</pdfrwt>
<totfact> 0.25402973E+02</totfact>
</mgrwt>
</event>
<event>
 6    1  0.1588846E-005  0.1942890E+04  0.7818608E-02  0.8633797E-01
          2   -1    0    0  501    0  0.00000000000E+00  0.00000000000E+00  0.11393765327E+04  0.11393765327E+04  0.00000000000E+00 0. -1.
         -2   -1    0    0    0  501 -0.00000000000E+00 -0.00000000000E+00 -0.82826472833E+03  0.82826472833E+03  0.00000000000E+00 0.  1.
         23    2    1    2    0    0  0.58870310896E+03  0.32742434620E+02  0.93416735115E+03  0.11098291418E+04  0.10681135926E+03 0.  0.
         13    1    3    3    0    0  0.49773812083E+03  0.63625461535E+02  0.75516419170E+03  0.90667766748E+03  0.00000000000E+00 0. -1.
        -13    1    3    3    0    0  0.90964988124E+02 -0.30883026915E+02  0.17900315945E+03  0.20315147430E+03  0.00000000000E+00 0.  1.
         22    1    1    2    0    0 -0.58870310896E+03 -0.32742434620E+02 -0.62305554680E+03  0.85781211924E+03  0.00000000000E+00 0.  1.
<mgrwt>
<rscale>  0 0.19428900E+04</rscale>
<asrwt>0</asrwt>
<pdfrwt beam="1">  1        2 0.17528870E+00 0.19428900E+04</pdfrwt>
<pdfrwt beam="2">  1       -2 0.12742534E+00 0.19428900E+04</pdfrwt>
<totfact> 0.87875462E+00</totfact>
</mgrwt>
</event>
<event>
 6    1  0.1588846E-005  0.3506982E+04  0.7818608E-02  0.8112137E-01
         -2   -1    0    0    0  501 -0.00000000000E+00  0.00000000000E+00  0.22218072741E+04  0.22218072741E+04  0.00000000000E+00 0.  1.
          2   -1    0    0  501    0  0.00000000000E+00 -0.00000000000E+00 -0.13838875802E+04  0.13838875802E+04  0.00000000000E+00 0. -1.
         23    2    1    2    0    0  0.71149011928E+03  0.47754054039E+03  0.19907417048E+04  0.21692890111E+04  0.92190676444E+02 0.  0.
         11    1    3    3    0    0  0.88820633567E+02  0.99559025163E+02  0.30670270159E+03  0.33446621892E+03  0.00000000000E+00 0.  1.
        -11    1    3    3    0    0  0.62266948571E+03  0.37798151523E+03  0.16840390032E+04  0.18348227921E+04  0.00000000000E+00 0. -1.
         22    1    1    2    0    0 -0.71149011928E+03 -0.47754054039E+03 -0.11528220109E+04  0.14364058432E+04  0.00000000000E+00 0. -1.
<mgrwt>
<rscale>  0 0.35069825E+04</rscale>
<asrwt>0</asrwt>
<pdfrwt beam="1">  1        2 0.21290578E+00 0.35069825E+04</pdfrwt>
<pdfrwt beam="2">  1       -2 0.34181651E+00 0.35069825E+04</pdfrwt>
<totfact> 0.21255669E-01</totfact>
</mgrwt>
</event>
<event>
 6    1  0.1588846E-005  0.2342317E+04  0.7818608E-02  0.8461420E-01
         -1   -1    0    0    0  501 -0.00000000000E+00  0.00000000000E+00  0.22450951809E+04  0.22450951809E+04  0.00000000000E+00 0.  1.
          1   -1    0    0  501    0  0.00000000000E+00 -0.00000000000E+00 -0.61093734037E+03  0.61093734037E+03  0.00000000000E+00 0. -1.
         23    2    1    2    0    0  0.73555390825E+02  0.61588393122E+03  0.20270367162E+04  0.21218137370E+04  0.92153533418E+02 0.  0.
         11    1    3    3    0    0  0.84026377969E+02  0.41106915764E+03  0.14463100238E+04  0.15059385677E+04  0.00000000000E+00 0. -1.
        -11    1    3    3    0    0 -0.10470987143E+02  0.20481477359E+03  0.58072669231E+03  0.61587516935E+03  0.00000000000E+00 0.  1.
         22    1    1    2    0    0 -0.73555390825E+02 -0.61588393122E+03 -0.39287887561E+03  0.73421878426E+03  0.00000000000E+00 0. -1.
<mgrwt>
<rscale>  0 0.23423172E+04</rscale>
<asrwt>0</asrwt>
<pdfrwt beam="1">  1        1 0.93990361E-01 0.23423172E+04</pdfrwt>
<pdfrwt beam="2">  1       -1 0.34539926E+00 0.23423172E+04</pdfrwt>
<totfact> 0.50104970E-01</totfact>
</mgrwt>
</event>
<event>
 6    1  0.1588846E-005  0.2318360E+04  0.7818608E-02  0.8470717E-01
         -2   -1    0    0    0  501 -0.00000000000E+00  0.00000000000E+00  0.11927253363E+04  0.11927253363E+04  0.00000000000E+00 0.  1.
          2   -1    0    0  501    0  0.00000000000E+00 -0.00000000000E+00 -0.11265778728E+04  0.11265778728E+04  0.00000000000E+00 0. -1.
         23    2    1    2    0    0  0.52569644026E+03  0.91284863485E+03  0.51270481762E+03  0.11751603649E+04  0.92120985039E+02 0.  0.
         11    1    3    3    0    0  0.16699795161E+03  0.27974023969E+03  0.11228655050E+03  0.34460294103E+03  0.00000000000E+00 0.  1.
        -11    1    3    3    0    0  0.35869848865E+03  0.63310839516E+03  0.40041826712E+03  0.83055742392E+03  0.00000000000E+00 0. -1.
         22    1    1    2    0    0 -0.52569644026E+03 -0.91284863485E+03 -0.44655735410E+03  0.11441428442E+04  0.00000000000E+00 0. -1.
<mgrwt>
<rscale>  0 0.23183597E+04</rscale>
<asrwt>0</asrwt>
<pdfrwt beam="1">  1        2 0.17331967E+00 0.23183597E+04</pdfrwt>
<pdfrwt beam="2">  1       -2 0.18349621E+00 0.23183597E+04</pdfrwt>
<totfact> 0.32582841E+00</totfact>
</mgrwt>
</event>
<event>
 6    1  0.1588846E-005  0.2646501E+04  0.7818608E-02  0.8352575E-01
         -1   -1    0    0    0  501 -0.00000000000E+00  0.00000000000E+00  0.21518070103E+04  0.21518070103E+04  0.00000000000E+00 0.  1.
          1   -1    0    0  501    0  0.00000000000E+00 -0.00000000000E+00 -0.81373079425E+03  0.81373079425E+03  0.00000000000E+00 0. -1.
         23    2    1    2    0    0  0.81665823867E+03  0.70693857878E+03  0.15228279947E+04  0.18697157147E+04  0.10069220103E+03 0.  0.
         13    1    3    3    0    0  0.54854531569E+03  0.49919759266E+03  0.96884022628E+03  0.12201440833E+04  0.00000000000E+00 0. -1.
        -13    1    3    3    0    0  0.26811292298E+03  0.20774098613E+03  0.55398776839E+03  0.64957163140E+03  0.00000000000E+00 0.  1.
         22    1    1    2    0    0 -0.81665823867E+03 -0.70693857878E+03 -0.18475177862E+03  0.10958220899E+04  0.00000000000E+00 0. -1.
<mgrwt>
<rscale>  0 0.26465008E+04</rscale>
<asrwt>0</asrwt>
<pdfrwt beam="1">  1        1 0.12518935E+00 0.26465008E+04</pdfrwt>
<pdfrwt beam="2">  1       -1 0.33104723E+00 0.26465008E+04</pdfrwt>
<totfact> 0.39099472E-01</totfact>
</mgrwt>
</event>
<event>
 6    1  0.1588846E-005  0.2349569E+04  0.7818608E-02  0.8458629E-01
          2   -1    0    0  501    0  0.00000000000E+00  0.00000000000E+00  0.44077446452E+04  0.44077446452E+04  0.00000000000E+00 0. -1.
         -2   -1    0    0    0  501 -0.00000000000E+00 -0.00000000000E+00 -0.31311221448E+03  0.31311221448E+03  0.00000000000E+00 0.  1.
         23    2    1    2    0    0 -0.97154242619E+03  0.57572473762E+03  0.26885838920E+04  0.29174361787E+04  0.87159927989E+02 0.  0.
         13    1    3    3    0    0 -0.38345662948E+03  0.21422764226E+03  0.11527345982E+04  0.12335840155E+04  0.00000000000E+00 0. -1.
        -13    1    3    3    0    0 -0.58808579671E+03  0.36149709536E+03  0.15358492938E+04  0.16838521632E+04  0.00000000000E+00 0.  1.
         22    1    1    2    0    0  0.97154242619E+03 -0.57572473762E+03  0.14060485387E+04  0.18034206810E+04  0.00000000000E+00 0.  1.
<mgrwt>
<rscale>  0 0.23495691E+04</rscale>
<asrwt>0</asrwt>
<pdfrwt beam="1">  1        2 0.67811452E+00 0.23495691E+04</pdfrwt>
<pdfrwt beam="2">  1       -2 0.48171113E-01 0.23495691E+04</pdfrwt>
<totfact> 0.56078035E-01</totfact>
</mgrwt>
</event>
<event>
 6    1  0.1588846E-005  0.2431044E+04  0.7818608E-02  0.8427972E-01
          1   -1    0    0  501    0  0.00000000000E+00  0.00000000000E+00  0.99380159469E+03  0.99380159469E+03  0.00000000000E+00 0. -1.
         -1   -1    0    0    0  501 -0.00000000000E+00 -0.00000000000E+00 -0.14867085930E+04  0.14867085930E+04  0.00000000000E+00 0.  1.
         23    2    1    2    0    0 -0.46356173872E+03  0.11218259270E+04 -0.25716199047E+03  0.12439995307E+04  0.89552481960E+02 0.  0.
         11    1    3    3    0    0 -0.15524211535E+03  0.39416376335E+03 -0.13298729718E+03  0.44401667528E+03  0.00000000000E+00 0. -1.
        -11    1    3    3    0    0 -0.30831962337E+03  0.72766216362E+03 -0.12417469329E+03  0.79998285543E+03  0.00000000000E+00 0.  1.
         22    1    1    2    0    0  0.46356173872E+03 -0.11218259270E+04 -0.23574500782E+03  0.12365106570E+04  0.00000000000E+00 0. -1.
<mgrwt>
<rscale>  0 0.24310437E+04</rscale>
<asrwt>0</asrwt>
<pdfrwt beam="1">  1        1 0.15289255E+00 0.24310437E+04</pdfrwt>
<pdfrwt beam="2">  1       -1 0.22872440E+00 0.24310437E+04</pdfrwt>
<totfact> 0.13161820E+00</totfact>
</mgrwt>
</event>
<event>
 6    1  0.1588846E-005  0.2351976E+04  0.7818608E-02  0.8457705E-01
         -2   -1    0    0    0  501 -0.00000000000E+00  0.00000000000E+00  0.67397513044E+03  0.67397513044E+03  0.00000000000E+00 0. -1.
          2   -1    0    0  501    0  0.00000000000E+00 -0.00000000000E+00 -0.20519276700E+04  0.20519276700E+04  0.00000000000E+00 0.  1.
         23    2    1    2    0    0  0.10611506338E+03 -0.58141355245E+03  0.48600636472E+03  0.77048854189E+03  0.90267829167E+02 0.  0.
         13    1    3    3    0    0 -0.60251587836E+01 -0.14926770921E+03  0.95185971448E+02  0.17713701113E+03  0.00000000000E+00 0. -1.
        -13    1    3    3    0    0  0.11214022216E+03 -0.43214584325E+03  0.39082039327E+03  0.59335153077E+03  0.00000000000E+00 0.  1.
         22    1    1    2    0    0 -0.10611506338E+03  0.58141355245E+03 -0.18639589042E+04  0.19554142585E+04  0.00000000000E+00 0.  1.
<mgrwt>
<rscale>  0 0.23519764E+04</rscale>
<asrwt>0</asrwt>
<pdfrwt beam="1">  1        2 0.31568118E+00 0.23519764E+04</pdfrwt>
<pdfrwt beam="2">  1       -2 0.10368848E+00 0.23519764E+04</pdfrwt>
<totfact> 0.42746781E+00</totfact>
</mgrwt>
</event>
<event>
 6    1  0.1588846E-005  0.2640328E+04  0.7818608E-02  0.8354630E-01
         -2   -1    0    0    0  501 -0.00000000000E+00  0.00000000000E+00  0.82711929644E+03  0.82711929644E+03  0.00000000000E+00 0.  1.
          2   -1    0    0  501    0  0.00000000000E+00 -0.00000000000E+00 -0.21071126191E+04  0.21071126191E+04  0.00000000000E+00 0. -1.
         23    2    1    2    0    0  0.17166087376E+03  0.54448012851E+03 -0.19615783389E+04  0.20451401316E+04  0.94247081377E+02 0.  0.
         13    1    3    3    0    0  0.16354273751E+03  0.41978082652E+03 -0.14415127244E+04  0.15102718643E+04  0.00000000000E+00 0. -1.
        -13    1    3    3    0    0  0.81181362460E+01  0.12469930199E+03 -0.52006561444E+03  0.53486826732E+03  0.00000000000E+00 0.  1.
         22    1    1    2    0    0 -0.17166087376E+03 -0.54448012851E+03  0.68158501623E+03  0.88909178395E+03  0.00000000000E+00 0.  1.
<mgrwt>
<rscale>  0 0.26403284E+04</rscale>
<asrwt>0</asrwt>
<pdfrwt beam="1">  1        2 0.32417118E+00 0.26403284E+04</pdfrwt>
<pdfrwt beam="2">  1       -2 0.12724912E+00 0.26403284E+04</pdfrwt>
<totfact> 0.23530929E+00</totfact>
</mgrwt>
</event>
<event>
 6    1  0.1588846E-005  0.1873953E+04  0.7818608E-02  0.8667932E-01
         -2   -1    0    0    0  501 -0.00000000000E+00  0.00000000000E+00  0.89287842414E+03  0.89287842414E+03  0.00000000000E+00 0.  1.
          2   -1    0    0  501    0  0.00000000000E+00 -0.00000000000E+00 -0.98325205164E+03  0.98325205164E+03  0.00000000000E+00 0. -1.
         23    2    1    2    0    0 -0.37535780102E+03  0.21127018046E+03  0.78521916942E+03  0.90032756845E+03  0.92152148880E+02 0.  0.
         13    1    3    3    0    0 -0.33810051768E+03  0.16326641676E+03  0.62671671228E+03  0.73057629331E+03  0.00000000000E+00 0.  1.
        -13    1    3    3    0    0 -0.37257283346E+02  0.48003763707E+02  0.15850245714E+03  0.16975127514E+03  0.00000000000E+00 0. -1.
         22    1    1    2    0    0  0.37535780102E+03 -0.21127018046E+03 -0.87559279692E+03  0.97580290733E+03  0.00000000000E+00 0. -1.
<mgrwt>
<rscale>  0 0.18739526E+04</rscale>
<asrwt>0</asrwt>
<pdfrwt beam="1">  1        2 0.15126955E+00 0.18739526E+04</pdfrwt>
<pdfrwt beam="2">  1       -2 0.13736591E+00 0.18739526E+04</pdfrwt>
<totfact> 0.91437629E+00</totfact>
</mgrwt>
</event>
<event>
 6    1  0.1588846E-005  0.1973656E+04  0.7818608E-02  0.8619037E-01
          2   -1    0    0  501    0  0.00000000000E+00  0.00000000000E+00  0.11211633858E+04  0.11211633858E+04  0.00000000000E+00 0. -1.
         -2   -1    0    0    0  501 -0.00000000000E+00 -0.00000000000E+00 -0.86858851029E+03  0.86858851029E+03  0.00000000000E+00 0.  1.
         23    2    1    2    0    0 -0.35880347616E+03 -0.21990110729E+03 -0.77089163024E+03  0.88314441378E+03  0.92594376321E+02 0.  0.
         11    1    3    3    0    0 -0.17449863620E+03 -0.15733973775E+03 -0.45556502216E+03  0.51258663320E+03  0.00000000000E+00 0. -1.
        -11    1    3    3    0    0 -0.18430483997E+03 -0.62561369541E+02 -0.31532660808E+03  0.37055778059E+03  0.00000000000E+00 0.  1.
         22    1    1    2    0    0  0.35880347616E+03  0.21990110729E+03  0.10234665058E+04  0.11066074823E+04  0.00000000000E+00 0. -1.
<mgrwt>
<rscale>  0 0.19736561E+04</rscale>
<asrwt>0</asrwt>
<pdfrwt beam="1">  1        2 0.17248667E+00 0.19736561E+04</pdfrwt>
<pdfrwt beam="2">  1       -2 0.13362900E+00 0.19736561E+04</pdfrwt>
<totfact> 0.79715084E+00</totfact>
</mgrwt>
</event>
<event>
 6    1  0.1588846E-005  0.1194836E+04  0.7818608E-02  0.9117388E-01
          2   -1    0    0  501    0  0.00000000000E+00  0.00000000000E+00  0.12550512694E+04  0.12550512694E+04  0.00000000000E+00 0. -1.
         -2   -1    0    0    0  501 -0.00000000000E+00 -0.00000000000E+00 -0.28437755686E+03  0.28437755686E+03  0.00000000000E+00 0.  1.
         23    2    1    2    0    0 -0.44283749394E+03 -0.39199081645E+03  0.56221530320E+03  0.82067983087E+03  0.87564213148E+02 0.  0.
         11    1    3    3    0    0 -0.30896364594E+03 -0.31776400809E+03  0.39116415006E+03  0.59113610247E+03  0.00000000000E+00 0. -1.
        -11    1    3    3    0    0 -0.13387384800E+03 -0.74226808362E+02  0.17105115314E+03  0.22954372841E+03  0.00000000000E+00 0.  1.
         22    1    1    2    0    0  0.44283749394E+03  0.39199081645E+03  0.40845840936E+03  0.71874899541E+03  0.00000000000E+00 0.  1.
<mgrwt>
<rscale>  0 0.11948362E+04</rscale>
<asrwt>0</asrwt>
<pdfrwt beam="1">  1        2 0.19308481E+00 0.11948362E+04</pdfrwt>
<pdfrwt beam="2">  1       -2 0.43750394E-01 0.11948362E+04</pdfrwt>
<totfact> 0.85858906E+01</totfact>
</mgrwt>
</event>
<event>
 6    1  0.1588846E-005  0.1222434E+04  0.7818608E-02  0.9093444E-01
          1   -1    0    0  501    0  0.00000000000E+00  0.00000000000E+00  0.42079614511E+03  0.42079614511E+03  0.00000000000E+00 0. -1.
         -1   -1    0    0    0  501 -0.00000000000E+00 -0.00000000000E+00 -0.88780787191E+03  0.88780787191E+03  0.00000000000E+00 0.  1.
         23    2    1    2    0    0 -0.25287652301E+03  0.20111229021E+03 -0.78592674405E+03  0.85462221409E+03  0.91135024178E+02 0.  0.
         11    1    3    3    0    0 -0.23717943237E+03  0.17838837485E+03 -0.63168404205E+03  0.69792637463E+03  0.00000000000E+00 0. -1.
        -11    1    3    3    0    0 -0.15697090648E+02  0.22723915368E+02 -0.15424270199E+03  0.15669583946E+03  0.00000000000E+00 0.  1.
         22    1    1    2    0    0  0.25287652301E+03 -0.20111229021E+03  0.31891501724E+03  0.45398180293E+03  0.00000000000E+00 0. -1.
<mgrwt>
<rscale>  0 0.12224339E+04</rscale>
<asrwt>0</asrwt>
<pdfrwt beam="1">  1        1 0.64737869E-01 0.12224339E+04</pdfrwt>
<pdfrwt beam="2">  1       -1 0.13658582E+00 0.12224339E+04</pdfrwt>
<totfact> 0.24766261E+01</totfact>
</mgrwt>
</event>
<event>
 6    1  0.1588846E-005  0.3321153E+04  0.7818608E-02  0.8157534E-01
         -2   -1    0    0    0  501 -0.00000000000E+00  0.00000000000E+00  0.16752982473E+04  0.16752982473E+04  0.00000000000E+00 0. -1.
          2   -1    0    0  501    0  0.00000000000E+00 -0.00000000000E+00 -0.16459839300E+04  0.16459839300E+04  0.00000000000E+00 0.  1.
         23    2    1    2    0    0  0.11919602452E+04 -0.10887414426E+04 -0.36948847362E+03  0.16584018986E+04  0.87452673881E+02 0.  0.
         11    1    3    3    0    0  0.31464639988E+02 -0.15884905390E+02  0.44577340256E+00  0.35249858194E+02  0.00000000000E+00 0. -1.
        -11    1    3    3    0    0  0.11604956053E+04 -0.10728565372E+04 -0.36993424703E+03  0.16231520404E+04  0.00000000000E+00 0.  1.
         22    1    1    2    0    0 -0.11919602452E+04  0.10887414426E+04  0.39880279096E+03  0.16628802787E+04  0.00000000000E+00 0. -1.
<mgrwt>
<rscale>  0 0.33211528E+04</rscale>
<asrwt>0</asrwt>
<pdfrwt beam="1">  1        2 0.25322830E+00 0.33211528E+04</pdfrwt>
<pdfrwt beam="2">  1       -2 0.25773819E+00 0.33211528E+04</pdfrwt>
<totfact> 0.50481316E-01</totfact>
</mgrwt>
</event>
<event>
 6    1  0.1588846E-005  0.3392911E+04  0.7818608E-02  0.8139648E-01
          1   -1    0    0  501    0  0.00000000000E+00  0.00000000000E+00  0.18181747332E+04  0.18181747332E+04  0.00000000000E+00 0. -1.
         -1   -1    0    0    0  501 -0.00000000000E+00 -0.00000000000E+00 -0.15828849807E+04  0.15828849807E+04  0.00000000000E+00 0.  1.
         23    2    1    2    0    0  0.11146556629E+04  0.68895977116E+03 -0.96032844597E+03  0.16271866380E+04  0.91557727767E+02 0.  0.
         13    1    3    3    0    0  0.35433943030E+03  0.26991233038E+03 -0.32345095392E+03  0.55048125994E+03  0.00000000000E+00 0. -1.
        -13    1    3    3    0    0  0.76031623258E+03  0.41904744079E+03 -0.63687749205E+03  0.10767053780E+04  0.00000000000E+00 0.  1.
         22    1    1    2    0    0 -0.11146556629E+04 -0.68895977116E+03  0.11956181985E+04  0.17738730759E+04  0.00000000000E+00 0. -1.
<mgrwt>
<rscale>  0 0.33929111E+04</rscale>
<asrwt>0</asrwt>
<pdfrwt beam="1">  1        1 0.27971919E+00 0.33929111E+04</pdfrwt>
<pdfrwt beam="2">  1       -1 0.24352077E+00 0.33929111E+04</pdfrwt>
<totfact> 0.25058405E-01</totfact>
</mgrwt>
</event>
<event>
 6    1  0.1588846E-005  0.1080726E+04  0.7818608E-02  0.9224184E-01
         -2   -1    0    0    0  501 -0.00000000000E+00  0.00000000000E+00  0.17959895147E+03  0.17959895147E+03  0.00000000000E+00 0.  1.
          2   -1    0    0  501    0  0.00000000000E+00 -0.00000000000E+00 -0.16258019898E+04  0.16258019898E+04  0.00000000000E+00 0. -1.
         23    2    1    2    0    0 -0.61458814781E+02  0.19941455751E+02 -0.16188613993E+04  0.16210486775E+04  0.53960511931E+02 0.  0.
         11    1    3    3    0    0 -0.56434921926E+02  0.14764104576E+02 -0.78810334388E+03  0.79025929911E+03  0.00000000000E+00 0. -1.
        -11    1    3    3    0    0 -0.50238928549E+01  0.51773511752E+01 -0.83075805546E+03  0.83078937835E+03  0.00000000000E+00 0.  1.
         22    1    1    2    0    0  0.61458814781E+02 -0.19941455751E+02  0.17265836097E+03  0.18435226384E+03  0.00000000000E+00 0.  1.
<mgrwt>
<rscale>  0 0.10807263E+04</rscale>
<asrwt>0</asrwt>
<pdfrwt beam="1">  1        2 0.25012338E+00 0.10807263E+04</pdfrwt>
<pdfrwt beam="2">  1       -2 0.27630608E-01 0.10807263E+04</pdfrwt>
<totfact> 0.12804876E+02</totfact>
</mgrwt>
</event>
<event>
 6    1  0.1588846E-005  0.1088805E+04  0.7818608E-02  0.9216172E-01
          1   -1    0    0  501    0  0.00000000000E+00  0.00000000000E+00  0.81325628670E+03  0.81325628670E+03  0.00000000000E+00 0. -1.
         -1   -1    0    0    0  501 -0.00000000000E+00 -0.00000000000E+00 -0.36442906235E+03  0.36442906235E+03  0.00000000000E+00 0.  1.
         23    2    1    2    0    0  0.15764344173E+03  0.16955219151E+02  0.78498519005E+03  0.80601195468E+03  0.91184364422E+02 0.  0.
         11    1    3    3    0    0  0.69372570293E+02  0.30314849724E+02  0.53971918901E+03  0.54500307027E+03  0.00000000000E+00 0. -1.
        -11    1    3    3    0    0  0.88270871438E+02 -0.13359630573E+02  0.24526600104E+03  0.26100888441E+03  0.00000000000E+00 0.  1.
         22    1    1    2    0    0 -0.15764344173E+03 -0.16955219151E+02 -0.33615796571E+03  0.37167339437E+03  0.00000000000E+00 0.  1.
<mgrwt>
<rscale>  0 0.10888053E+04</rscale>
<asrwt>0</asrwt>
<pdfrwt beam="1">  1        1 0.12511635E+00 0.10888053E+04</pdfrwt>
<pdfrwt beam="2">  1       -1 0.56066010E-01 0.10888053E+04</pdfrwt>
<totfact> 0.69096875E+01</totfact>
</mgrwt>
</event>
<event>
 6    1  0.1588846E-005  0.9651132E+03  0.7818608E-02  0.9347658E-01
         -2   -1    0    0    0  501 -0.00000000000E+00  0.00000000000E+00  0.87464032699E+02  0.87464032699E+02  0.00000000000E+00 0.  1.
          2   -1    0    0  501    0  0.00000000000E+00 -0.00000000000E+00 -0.26623617148E+04  0.26623617148E+04  0.00000000000E+00 0. -1.
         23    2    1    2    0    0  0.24901955247E+03  0.15885321627E+03 -0.23707304873E+04  0.23907584484E+04  0.90099020176E+02 0.  0.
         11    1    3    3    0    0  0.11081154460E+03  0.96583662640E+02 -0.14733512460E+04  0.14806658962E+04  0.00000000000E+00 0.  1.
        -11    1    3    3    0    0  0.13820800787E+03  0.62269553633E+02 -0.89737924134E+03  0.91009255218E+03  0.00000000000E+00 0. -1.
         22    1    1    2    0    0 -0.24901955247E+03 -0.15885321627E+03 -0.20416719479E+03  0.35906729907E+03  0.00000000000E+00 0.  1.
<mgrwt>
<rscale>  0 0.96511324E+03</rscale>
<asrwt>0</asrwt>
<pdfrwt beam="1">  1        2 0.40959406E+00 0.96511324E+03</pdfrwt>
<pdfrwt beam="2">  1       -2 0.13456007E-01 0.96511324E+03</pdfrwt>
<totfact> 0.12001495E+02</totfact>
</mgrwt>
</event>
<event>
 6    1  0.1588846E-005  0.1392691E+04  0.7818608E-02  0.8959126E-01
         -2   -1    0    0    0  501 -0.00000000000E+00  0.00000000000E+00  0.13551902634E+03  0.13551902634E+03  0.00000000000E+00 0. -1.
          2   -1    0    0  501    0  0.00000000000E+00 -0.00000000000E+00 -0.35780733443E+04  0.35780733443E+04  0.00000000000E+00 0.  1.
         23    2    1    2    0    0 -0.60355599023E+02  0.66991292431E+03 -0.21791683786E+04  0.22823096745E+04  0.87957396388E+02 0.  0.
         13    1    3    3    0    0 -0.22438788954E+02  0.24289926369E+03 -0.65296373668E+03  0.69704030943E+03  0.00000000000E+00 0. -1.
        -13    1    3    3    0    0 -0.37916810069E+02  0.42701366062E+03 -0.15262046420E+04  0.15852693651E+04  0.00000000000E+00 0.  1.
         22    1    1    2    0    0  0.60355599023E+02 -0.66991292431E+03 -0.12633859394E+04  0.14312826961E+04  0.00000000000E+00 0. -1.
<mgrwt>
<rscale>  0 0.13926909E+04</rscale>
<asrwt>0</asrwt>
<pdfrwt beam="1">  1        2 0.55047271E+00 0.13926909E+04</pdfrwt>
<pdfrwt beam="2">  1       -2 0.20849085E-01 0.13926909E+04</pdfrwt>
<totfact> 0.14112523E+01</totfact>
</mgrwt>
</event>
<event>
 6    1  0.1588846E-005  0.3819784E+04  0.7818608E-02  0.8041923E-01
          2   -1    0    0  501    0  0.00000000000E+00  0.00000000000E+00  0.40424460137E+04  0.40424460137E+04  0.00000000000E+00 0. -1.
         -2   -1    0    0    0  501 -0.00000000000E+00 -0.00000000000E+00 -0.90234654566E+03  0.90234654566E+03  0.00000000000E+00 0.  1.
         23    2    1    2    0    0 -0.18481547396E+04  0.44193523106E+03  0.18053441377E+04  0.26226051247E+04  0.88360028433E+02 0.  0.
         11    1    3    3    0    0 -0.65940844932E+03  0.11432376831E+03  0.63708422558E+03  0.92399444669E+03  0.00000000000E+00 0. -1.
        -11    1    3    3    0    0 -0.11887462903E+04  0.32761146275E+03  0.11682599121E+04  0.16986106780E+04  0.00000000000E+00 0.  1.
         22    1    1    2    0    0  0.18481547396E+04 -0.44193523106E+03  0.13347553303E+04  0.23221874347E+04  0.00000000000E+00 0. -1.
<mgrwt>
<rscale>  0 0.38197839E+04</rscale>
<asrwt>0</asrwt>
<pdfrwt beam="1">  1        2 0.62191476E+00 0.38197839E+04</pdfrwt>
<pdfrwt beam="2">  1       -2 0.13882255E+00 0.38197839E+04</pdfrwt>
<totfact> 0.92507179E-02</totfact>
</mgrwt>
</event>
<event>
 6    1  0.1588846E-005  0.5118469E+03  0.7818608E-02  0.1010732E+00
          1   -1    0    0  501    0  0.00000000000E+00  0.00000000000E+00  0.38032179379E+03  0.38032179379E+03  0.00000000000E+00 0. -1.
         -1   -1    0    0    0  501 -0.00000000000E+00 -0.00000000000E+00 -0.17221418790E+03  0.17221418790E+03  0.00000000000E+00 0.  1.
         23    2    1    2    0    0  0.13601878441E+03 -0.58446611058E+02 -0.10692939582E+03  0.20444773354E+03  0.91912262523E+02 0.  0.
         13    1    3    3    0    0  0.49896394859E+02 -0.32709931909E+02  0.61694900160E+01  0.59980434080E+02  0.00000000000E+00 0. -1.
        -13    1    3    3    0    0  0.86122389551E+02 -0.25736679148E+02 -0.11309888583E+03  0.14446729946E+03  0.00000000000E+00 0.  1.
         22    1    1    2    0    0 -0.13601878441E+03  0.58446611058E+02  0.31503700171E+03  0.34808824815E+03  0.00000000000E+00 0. -1.
<mgrwt>
<rscale>  0 0.51184689E+03</rscale>
<asrwt>0</asrwt>
<pdfrwt beam="1">  1        1 0.58511045E-01 0.51184689E+03</pdfrwt>
<pdfrwt beam="2">  1       -1 0.26494490E-01 0.51184689E+03</pdfrwt>
<totfact> 0.81754018E+02</totfact>
</mgrwt>
</event>
<event>
 6    1  0.1588846E-005  0.1931101E+04  0.7818608E-02  0.8639529E-01
          2   -1    0    0  501    0  0.00000000000E+00  0.00000000000E+00  0.29852887298E+04  0.29852887298E+04  0.00000000000E+00 0. -1.
         -2   -1    0    0    0  501 -0.00000000000E+00 -0.00000000000E+00 -0.31229392150E+03  0.31229392150E+03  0.00000000000E+00 0.  1.
         23    2    1    2    0    0  0.14300331953E+03  0.90543487063E+03  0.83244180797E+03  0.12413974453E+04  0.88577644878E+02 0.  0.
         11    1    3    3    0    0  0.10338211273E+03  0.46648766092E+03  0.47758739159E+03  0.67556518237E+03  0.00000000000E+00 0.  1.
        -11    1    3    3    0    0  0.39621206798E+02  0.43894720971E+03  0.35485441638E+03  0.56583226292E+03  0.00000000000E+00 0. -1.
         22    1    1    2    0    0 -0.14300331953E+03 -0.90543487063E+03  0.18405530003E+04  0.20561852060E+04  0.00000000000E+00 0.  1.
<mgrwt>
<rscale>  0 0.19311007E+04</rscale>
<asrwt>0</asrwt>
<pdfrwt beam="1">  1        2 0.45927517E+00 0.19311007E+04</pdfrwt>
<pdfrwt beam="2">  1       -2 0.48045221E-01 0.19311007E+04</pdfrwt>
<totfact> 0.68382155E+00</totfact>
</mgrwt>
</event>
<event>
 6    1  0.1902232E-005  0.2936484E+04  0.7818608E-02  0.8262104E-01
          2   -1    0    0  501    0  0.00000000000E+00  0.00000000000E+00  0.27162035705E+04  0.27162035705E+04  0.00000000000E+00 0. -1.
         -2   -1    0    0    0  501 -0.00000000000E+00 -0.00000000000E+00 -0.79365721628E+03  0.79365721628E+03  0.00000000000E+00 0.  1.
         23    2    1    2    0    0 -0.63620509626E+03 -0.56368136907E+03 -0.46673999067E+03  0.97388309598E+03  0.90046962192E+02 0.  0.
         11    1    3    3    0    0 -0.23324940301E+03 -0.21748600154E+03 -0.22453305992E+03  0.39002633228E+03  0.00000000000E+00 0.  1.
        -11    1    3    3    0    0 -0.40295569324E+03 -0.34619536752E+03 -0.24220693075E+03  0.58385676370E+03  0.00000000000E+00 0. -1.
         22    1    1    2    0    0  0.63620509626E+03  0.56368136907E+03  0.23892863449E+04  0.25359776908E+04  0.00000000000E+00 0. -1.
<mgrwt>
<rscale>  0 0.29364840E+04</rscale>
<asrwt>0</asrwt>
<pdfrwt beam="1">  1        2 0.41787747E+00 0.29364840E+04</pdfrwt>
<pdfrwt beam="2">  1       -2 0.12210111E+00 0.29364840E+04</pdfrwt>
<totfact> 0.11359532E+00</totfact>
</mgrwt>
</event>
<event>
 6    1  0.1588846E-005  0.1584686E+04  0.7818608E-02  0.8830012E-01
         -4   -1    0    0    0  501 -0.00000000000E+00  0.00000000000E+00  0.90174988107E+03  0.90174988107E+03  0.00000000000E+00 0. -1.
          4   -1    0    0  501    0  0.00000000000E+00 -0.00000000000E+00 -0.69621022066E+03  0.69621022066E+03  0.00000000000E+00 0.  1.
         23    2    1    2    0    0 -0.15727040969E+03 -0.58387164364E+03  0.61528855073E+03  0.86752582602E+03  0.91547693235E+02 0.  0.
         13    1    3    3    0    0 -0.27303346650E+02 -0.17462093391E+03  0.12912178405E+03  0.21888439509E+03  0.00000000000E+00 0.  1.
        -13    1    3    3    0    0 -0.12996706304E+03 -0.40925070973E+03  0.48616676669E+03  0.64864143093E+03  0.00000000000E+00 0. -1.
         22    1    1    2    0    0  0.15727040969E+03  0.58387164364E+03 -0.40974889032E+03  0.73043427571E+03  0.00000000000E+00 0.  1.
<mgrwt>
<rscale>  0 0.15846861E+04</rscale>
<asrwt>0</asrwt>
<pdfrwt beam="1">  1        4 0.10710926E+00 0.15846861E+04</pdfrwt>
<pdfrwt beam="2">  1       -4 0.13873075E+00 0.15846861E+04</pdfrwt>
<totfact> 0.49174490E-01</totfact>
</mgrwt>
</event>
<event>
 6    1  0.1588846E-005  0.1043729E+04  0.7818608E-02  0.9261842E-01
          2   -1    0    0  501    0  0.00000000000E+00  0.00000000000E+00  0.95006073045E+03  0.95006073045E+03  0.00000000000E+00 0. -1.
         -2   -1    0    0    0  501 -0.00000000000E+00 -0.00000000000E+00 -0.28665816980E+03  0.28665816980E+03  0.00000000000E+00 0.  1.
         23    2    1    2    0    0 -0.13014123161E+03  0.30146056416E+03  0.80870946382E+03  0.87765162520E+03  0.91903027280E+02 0.  0.
         13    1    3    3    0    0 -0.87383001205E+02  0.13509144842E+03  0.48797674357E+03  0.51381591120E+03  0.00000000000E+00 0. -1.
        -13    1    3    3    0    0 -0.42758230407E+02  0.16636911573E+03  0.32073272025E+03  0.36383571400E+03  0.00000000000E+00 0.  1.
         22    1    1    2    0    0  0.13014123161E+03 -0.30146056416E+03 -0.14530690317E+03  0.35906727505E+03  0.00000000000E+00 0.  1.
<mgrwt>
<rscale>  0 0.10437292E+04</rscale>
<asrwt>0</asrwt>
<pdfrwt beam="1">  1        2 0.14616319E+00 0.10437292E+04</pdfrwt>
<pdfrwt beam="2">  1       -2 0.44101258E-01 0.10437292E+04</pdfrwt>
<totfact> 0.13177916E+02</totfact>
</mgrwt>
</event>
<event>
 6    1  0.1588846E-005  0.3083812E+04  0.7818608E-02  0.8220195E-01
          1   -1    0    0  501    0  0.00000000000E+00  0.00000000000E+00  0.18355950583E+04  0.18355950583E+04  0.00000000000E+00 0. -1.
         -1   -1    0    0    0  501 -0.00000000000E+00 -0.00000000000E+00 -0.12952058112E+04  0.12952058112E+04  0.00000000000E+00 0.  1.
         23    2    1    2    0    0  0.27237012164E+03 -0.52327397138E+03  0.17153245078E+04  0.18160864522E+04  0.88491257645E+02 0.  0.
         13    1    3    3    0    0  0.98335436040E+02 -0.27536228367E+03  0.78448886400E+03  0.83720787322E+03  0.00000000000E+00 0. -1.
        -13    1    3    3    0    0  0.17403468560E+03 -0.24791168771E+03  0.93083564379E+03  0.97887857901E+03  0.00000000000E+00 0.  1.
         22    1    1    2    0    0 -0.27237012164E+03  0.52327397138E+03 -0.11749352607E+04  0.13147144173E+04  0.00000000000E+00 0.  1.
<mgrwt>
<rscale>  0 0.30838115E+04</rscale>
<asrwt>0</asrwt>
<pdfrwt beam="1">  1        1 0.28239924E+00 0.30838115E+04</pdfrwt>
<pdfrwt beam="2">  1       -1 0.19926243E+00 0.30838115E+04</pdfrwt>
<totfact> 0.49584672E-01</totfact>
</mgrwt>
</event>
<event>
 6    1  0.1588846E-005  0.2043639E+04  0.7818608E-02  0.8586486E-01
         -1   -1    0    0    0  501 -0.00000000000E+00  0.00000000000E+00  0.12041711034E+04  0.12041711034E+04  0.00000000000E+00 0.  1.
          1   -1    0    0  501    0  0.00000000000E+00 -0.00000000000E+00 -0.86708174109E+03  0.86708174109E+03  0.00000000000E+00 0. -1.
         23    2    1    2    0    0 -0.47944817638E+03 -0.48881218080E+03 -0.59712538717E+03  0.91299333122E+03  0.90499684590E+02 0.  0.
         11    1    3    3    0    0 -0.58774254514E+02 -0.23450068151E+02 -0.51508317574E+02  0.81593047922E+02  0.00000000000E+00 0. -1.
        -11    1    3    3    0    0 -0.42067392187E+03 -0.46536211265E+03 -0.54561706960E+03  0.83140028330E+03  0.00000000000E+00 0.  1.
         22    1    1    2    0    0  0.47944817638E+03  0.48881218080E+03  0.93421474947E+03  0.11582595133E+04  0.00000000000E+00 0.  1.
<mgrwt>
<rscale>  0 0.20436387E+04</rscale>
<asrwt>0</asrwt>
<pdfrwt beam="1">  1        1 0.13339719E+00 0.20436387E+04</pdfrwt>
<pdfrwt beam="2">  1       -1 0.18525709E+00 0.20436387E+04</pdfrwt>
<totfact> 0.34177071E+00</totfact>
</mgrwt>
</event>
<event>
 6    1  0.1588846E-005  0.2057460E+04  0.7818608E-02  0.8580217E-01
          1   -1    0    0  501    0  0.00000000000E+00  0.00000000000E+00  0.35943448835E+03  0.35943448835E+03  0.00000000000E+00 0. -1.
         -1   -1    0    0    0  501 -0.00000000000E+00 -0.00000000000E+00 -0.29443077170E+04  0.29443077170E+04  0.00000000000E+00 0.  1.
         23    2    1    2    0    0  0.61111302992E+03 -0.50727597443E+03 -0.23396650521E+04  0.24725291764E+04  0.92627872278E+02 0.  0.
         11    1    3    3    0    0  0.22554545629E+03 -0.19407823948E+03 -0.74261263171E+03  0.80000664789E+03  0.00000000000E+00 0.  1.
        -11    1    3    3    0    0  0.38556757363E+03 -0.31319773495E+03 -0.15970524204E+04  0.16725225285E+04  0.00000000000E+00 0. -1.
         22    1    1    2    0    0 -0.61111302992E+03  0.50727597443E+03 -0.24520817652E+03  0.83121302889E+03  0.00000000000E+00 0. -1.
<mgrwt>
<rscale>  0 0.20574603E+04</rscale>
<asrwt>0</asrwt>
<pdfrwt beam="1">  1        1 0.55297614E-01 0.20574603E+04</pdfrwt>
<pdfrwt beam="2">  1       -1 0.45297041E+00 0.20574603E+04</pdfrwt>
<totfact> 0.19707610E-01</totfact>
</mgrwt>
</event>
<event>
 6    1  0.1588846E-005  0.5307092E+04  0.7818608E-02  0.7782806E-01
         -2   -1    0    0    0  501 -0.00000000000E+00  0.00000000000E+00  0.37942623417E+04  0.37942623417E+04  0.00000000000E+00 0.  1.
          2   -1    0    0  501    0  0.00000000000E+00 -0.00000000000E+00 -0.18557771421E+04  0.18557771421E+04  0.00000000000E+00 0. -1.
         23    2    1    2    0    0  0.14435681957E+04  0.20188071673E+04  0.19670491675E+04  0.31680468539E+04  0.88130170886E+02 0.  0.
         11    1    3    3    0    0  0.96545968674E+03  0.13869003817E+04  0.13835646392E+04  0.21840000426E+04  0.00000000000E+00 0.  1.
        -11    1    3    3    0    0  0.47810850899E+03  0.63190678565E+03  0.58348452826E+03  0.98404681130E+03  0.00000000000E+00 0. -1.
         22    1    1    2    0    0 -0.14435681957E+04 -0.20188071673E+04 -0.28563967885E+02  0.24819926299E+04  0.00000000000E+00 0. -1.
<mgrwt>
<rscale>  0 0.53070916E+04</rscale>
<asrwt>0</asrwt>
<pdfrwt beam="1">  1        2 0.28550418E+00 0.53070916E+04</pdfrwt>
<pdfrwt beam="2">  1       -2 0.58373267E+00 0.53070916E+04</pdfrwt>
<totfact> 0.34275154E-03</totfact>
</mgrwt>
</event>
<event>
 6    1  0.1588846E-005  0.1565479E+04  0.7818608E-02  0.8842041E-01
          1   -1    0    0  501    0  0.00000000000E+00  0.00000000000E+00  0.19495056315E+04  0.19495056315E+04  0.00000000000E+00 0. -1.
         -1   -1    0    0    0  501 -0.00000000000E+00 -0.00000000000E+00 -0.31427511940E+03  0.31427511940E+03  0.00000000000E+00 0.  1.
         23    2    1    2    0    0 -0.46943787802E+03 -0.22858713584E+03  0.16579783368E+04  0.17411513760E+04  0.10045869241E+03 0.  0.
         13    1    3    3    0    0 -0.24743079586E+03 -0.14778091277E+03  0.76627550091E+03  0.81868146444E+03  0.00000000000E+00 0.  1.
        -13    1    3    3    0    0 -0.22200708216E+03 -0.80806223064E+02  0.89170283585E+03  0.92246991153E+03  0.00000000000E+00 0. -1.
         22    1    1    2    0    0  0.46943787802E+03  0.22858713584E+03 -0.22747824672E+02  0.52262937491E+03  0.00000000000E+00 0.  1.
<mgrwt>
<rscale>  0 0.15654790E+04</rscale>
<asrwt>0</asrwt>
<pdfrwt beam="1">  1        1 0.29992394E+00 0.15654790E+04</pdfrwt>
<pdfrwt beam="2">  1       -1 0.48350020E-01 0.15654790E+04</pdfrwt>
<totfact> 0.13280199E+01</totfact>
</mgrwt>
</event>
<event>
 6    1  0.1588846E-005  0.1736389E+04  0.7818608E-02  0.8740878E-01
         -2   -1    0    0    0  501 -0.00000000000E+00  0.00000000000E+00  0.29451451802E+04  0.29451451802E+04  0.00000000000E+00 0.  1.
          2   -1    0    0  501    0  0.00000000000E+00 -0.00000000000E+00 -0.25593366327E+03  0.25593366327E+03  0.00000000000E+00 0. -1.
         23    2    1    2    0    0  0.85361535305E+02  0.68826384715E+03  0.39313794041E+03  0.80254854686E+03  0.92374319330E+02 0.  0.
         13    1    3    3    0    0  0.98537799832E+02  0.43923802314E+03  0.24548785931E+03  0.51274167768E+03  0.00000000000E+00 0. -1.
        -13    1    3    3    0    0 -0.13176264527E+02  0.24902582401E+03  0.14765008110E+03  0.28980686918E+03  0.00000000000E+00 0.  1.
         22    1    1    2    0    0 -0.85361535305E+02 -0.68826384715E+03  0.22960735765E+04  0.23985302966E+04  0.00000000000E+00 0.  1.
<mgrwt>
<rscale>  0 0.17363891E+04</rscale>
<asrwt>0</asrwt>
<pdfrwt beam="1">  1        2 0.39374412E-01 0.17363891E+04</pdfrwt>
<pdfrwt beam="2">  1       -2 0.45309923E+00 0.17363891E+04</pdfrwt>
<totfact> 0.41359369E-01</totfact>
</mgrwt>
</event>
<event>
 6    1  0.1588846E-005  0.2391303E+04  0.7818608E-02  0.8442767E-01
         -1   -1    0    0    0  501 -0.00000000000E+00  0.00000000000E+00  0.76334819256E+03  0.76334819256E+03  0.00000000000E+00 0.  1.
          1   -1    0    0  501    0  0.00000000000E+00 -0.00000000000E+00 -0.18727788995E+04  0.18727788995E+04  0.00000000000E+00 0. -1.
         23    2    1    2    0    0  0.19571779786E+03 -0.10412098994E+04  0.51256529884E+02  0.10646251440E+04  0.91520239999E+02 0.  0.
         11    1    3    3    0    0 -0.16813484155E+01 -0.34701529762E+02 -0.12599587812E+02  0.36956362285E+02  0.00000000000E+00 0.  1.
        -11    1    3    3    0    0  0.19739914628E+03 -0.10065083697E+04  0.63856117696E+02  0.10276687817E+04  0.00000000000E+00 0. -1.
         22    1    1    2    0    0 -0.19571779786E+03  0.10412098994E+04 -0.11606872368E+04  0.15715019481E+04  0.00000000000E+00 0. -1.
<mgrwt>
<rscale>  0 0.23913029E+04</rscale>
<asrwt>0</asrwt>
<pdfrwt beam="1">  1        1 0.28811983E+00 0.23913029E+04</pdfrwt>
<pdfrwt beam="2">  1       -1 0.11743818E+00 0.23913029E+04</pdfrwt>
<totfact> 0.21272317E+00</totfact>
</mgrwt>
</event>
<event>
 6    1  0.1588846E-005  0.3200623E+04  0.7818608E-02  0.8188653E-01
          2   -1    0    0  501    0  0.00000000000E+00  0.00000000000E+00  0.26079052895E+04  0.26079052895E+04  0.00000000000E+00 0.  1.
         -2   -1    0    0    0  501 -0.00000000000E+00 -0.00000000000E+00 -0.98201317968E+03  0.98201317968E+03  0.00000000000E+00 0. -1.
         23    2    1    2    0    0  0.60300963280E+03  0.24013404683E+03  0.24527390011E+04  0.25387473321E+04  0.89579188405E+02 0.  0.
         11    1    3    3    0    0  0.15584205837E+03  0.25538672936E+02  0.52633259487E+03  0.54951339510E+03  0.00000000000E+00 0. -1.
        -11    1    3    3    0    0  0.44716757443E+03  0.21459537390E+03  0.19264064063E+04  0.19892339370E+04  0.00000000000E+00 0.  1.
         22    1    1    2    0    0 -0.60300963280E+03 -0.24013404683E+03 -0.82684689131E+03  0.10511711371E+04  0.00000000000E+00 0. -1.
<mgrwt>
<rscale>  0 0.32006233E+04</rscale>
<asrwt>0</asrwt>
<pdfrwt beam="1">  1        2 0.40121620E+00 0.32006233E+04</pdfrwt>
<pdfrwt beam="2">  1       -2 0.15107895E+00 0.32006233E+04</pdfrwt>
<totfact> 0.74504305E-01</totfact>
</mgrwt>
</event>
<event>
 6    1  0.1760126E-005  0.2924359E+04  0.7818608E-02  0.8265667E-01
         -2   -1    0    0    0  501 -0.00000000000E+00  0.00000000000E+00  0.10973077740E+04  0.10973077740E+04  0.00000000000E+00 0.  1.
          2   -1    0    0  501    0  0.00000000000E+00 -0.00000000000E+00 -0.19483763534E+04  0.19483763534E+04  0.00000000000E+00 0. -1.
         23    2    1    2    0    0  0.80337165700E+03  0.11307468645E+04  0.51149349287E+02  0.13909963377E+04  0.90884897961E+02 0.  0.
         11    1    3    3    0    0  0.52394665967E+03  0.79859375046E+03  0.12334545995E+02  0.95520899361E+03  0.00000000000E+00 0.  1.
        -11    1    3    3    0    0  0.27942499733E+03  0.33215311401E+03  0.38814803292E+02  0.43578734405E+03  0.00000000000E+00 0. -1.
         22    1    1    2    0    0 -0.80337165700E+03 -0.11307468645E+04 -0.90221792873E+03  0.16546877898E+04  0.00000000000E+00 0. -1.
<mgrwt>
<rscale>  0 0.29243587E+04</rscale>
<asrwt>0</asrwt>
<pdfrwt beam="1">  1        2 0.29975021E+00 0.29243587E+04</pdfrwt>
<pdfrwt beam="2">  1       -2 0.16881658E+00 0.29243587E+04</pdfrwt>
<totfact> 0.13362342E+00</totfact>
</mgrwt>
</event>
<event>
 6    1  0.1588846E-005  0.1908515E+04  0.7818608E-02  0.8650630E-01
         -1   -1    0    0    0  501 -0.00000000000E+00  0.00000000000E+00  0.83504994629E+03  0.83504994629E+03  0.00000000000E+00 0.  1.
          1   -1    0    0  501    0  0.00000000000E+00 -0.00000000000E+00 -0.10904824064E+04  0.10904824064E+04  0.00000000000E+00 0. -1.
         23    2    1    2    0    0 -0.92157037150E+03 -0.22649690597E+03 -0.50056386773E+02  0.95456781699E+03  0.90007095979E+02 0.  0.
         11    1    3    3    0    0 -0.42818638312E+03 -0.97145051176E+02 -0.67418551203E+02  0.44421391323E+03  0.00000000000E+00 0. -1.
        -11    1    3    3    0    0 -0.49338398838E+03 -0.12935185480E+03  0.17362164430E+02  0.51035390376E+03  0.00000000000E+00 0.  1.
         22    1    1    2    0    0  0.92157037150E+03  0.22649690597E+03 -0.20537607332E+03  0.97096453568E+03  0.00000000000E+00 0. -1.
<mgrwt>
<rscale>  0 0.19085149E+04</rscale>
<asrwt>0</asrwt>
<pdfrwt beam="1">  1        1 0.16776652E+00 0.19085149E+04</pdfrwt>
<pdfrwt beam="2">  1       -1 0.12846922E+00 0.19085149E+04</pdfrwt>
<totfact> 0.62982088E+00</totfact>
</mgrwt>
</event>
<event>
 6    1  0.1588846E-005  0.1140440E+04  0.7818608E-02  0.9166648E-01
         -2   -1    0    0    0  501 -0.00000000000E+00  0.00000000000E+00  0.92702589115E+03  0.92702589115E+03  0.00000000000E+00 0.  1.
          2   -1    0    0  501    0  0.00000000000E+00 -0.00000000000E+00 -0.35074641468E+03  0.35074641468E+03  0.00000000000E+00 0. -1.
         23    2    1    2    0    0 -0.26647016703E+03  0.93002939539E+02 -0.26043052149E+03  0.39474370077E+03  0.91338032049E+02 0.  0.
         13    1    3    3    0    0 -0.97794753817E+02  0.76067249353E+02 -0.13909067904E+03  0.18626931388E+03  0.00000000000E+00 0. -1.
        -13    1    3    3    0    0 -0.16867541321E+03  0.16935690186E+02 -0.12133984244E+03  0.20847438689E+03  0.00000000000E+00 0.  1.
         22    1    1    2    0    0  0.26647016703E+03 -0.93002939539E+02  0.83670999796E+03  0.88302860507E+03  0.00000000000E+00 0.  1.
<mgrwt>
<rscale>  0 0.11404403E+04</rscale>
<asrwt>0</asrwt>
<pdfrwt beam="1">  1        2 0.53960987E-01 0.11404403E+04</pdfrwt>
<pdfrwt beam="2">  1       -2 0.14261937E+00 0.11404403E+04</pdfrwt>
<totfact> 0.31216464E+01</totfact>
</mgrwt>
</event>
<event>
 6    1  0.1588846E-005  0.1594957E+04  0.7818608E-02  0.8823652E-01
         -2   -1    0    0    0  501 -0.00000000000E+00  0.00000000000E+00  0.24957049627E+03  0.24957049627E+03  0.00000000000E+00 0.  1.
          2   -1    0    0  501    0  0.00000000000E+00 -0.00000000000E+00 -0.25482652844E+04  0.25482652844E+04  0.00000000000E+00 0. -1.
         23    2    1    2    0    0  0.42852771594E+03 -0.59181349534E+03 -0.17010819602E+04  0.18538970598E+04  0.96825908174E+02 0.  0.
         13    1    3    3    0    0  0.26457468846E+03 -0.36893168841E+03 -0.11714549322E+04  0.12563506734E+04  0.00000000000E+00 0. -1.
        -13    1    3    3    0    0  0.16395302748E+03 -0.22288180694E+03 -0.52962702795E+03  0.59754638633E+03  0.00000000000E+00 0.  1.
         22    1    1    2    0    0 -0.42852771594E+03  0.59181349534E+03 -0.59761282794E+03  0.94393872085E+03  0.00000000000E+00 0.  1.
<mgrwt>
<rscale>  0 0.15949568E+04</rscale>
<asrwt>0</asrwt>
<pdfrwt beam="1">  1        2 0.39204080E+00 0.15949568E+04</pdfrwt>
<pdfrwt beam="2">  1       -2 0.38395462E-01 0.15949568E+04</pdfrwt>
<totfact> 0.20104465E+01</totfact>
</mgrwt>
</event>
<event>
 6    1  0.1588846E-005  0.2340534E+04  0.7818608E-02  0.8462108E-01
         -1   -1    0    0    0  501 -0.00000000000E+00  0.00000000000E+00  0.15341293697E+04  0.15341293697E+04  0.00000000000E+00 0.  1.
          1   -1    0    0  501    0  0.00000000000E+00 -0.00000000000E+00 -0.89270504787E+03  0.89270504787E+03  0.00000000000E+00 0. -1.
         23    2    1    2    0    0 -0.72872414517E+03  0.69500063534E+03 -0.29340947867E+03  0.10527969372E+04  0.90705600347E+02 0.  0.
         13    1    3    3    0    0 -0.25654931126E+03  0.25158417014E+03 -0.14998406215E+03  0.38936790144E+03  0.00000000000E+00 0. -1.
        -13    1    3    3    0    0 -0.47217483392E+03  0.44341646520E+03 -0.14342541652E+03  0.66342903576E+03  0.00000000000E+00 0.  1.
         22    1    1    2    0    0  0.72872414517E+03 -0.69500063534E+03  0.93483380051E+03  0.13740374804E+04  0.00000000000E+00 0. -1.
<mgrwt>
<rscale>  0 0.23405342E+04</rscale>
<asrwt>0</asrwt>
<pdfrwt beam="1">  1        1 0.13733924E+00 0.23405342E+04</pdfrwt>
<pdfrwt beam="2">  1       -1 0.23601990E+00 0.23405342E+04</pdfrwt>
<totfact> 0.14310689E+00</totfact>
</mgrwt>
</event>
<event>
 6    1  0.1588846E-005  0.1222271E+04  0.7818608E-02  0.9093583E-01
          2   -1    0    0  501    0  0.00000000000E+00  0.00000000000E+00  0.12890127424E+04  0.12890127424E+04  0.00000000000E+00 0. -1.
         -2   -1    0    0    0  501 -0.00000000000E+00 -0.00000000000E+00 -0.28974624993E+03  0.28974624993E+03  0.00000000000E+00 0.  1.
         23    2    1    2    0    0 -0.72310056450E+02 -0.33976804792E+02  0.12805758740E+04  0.12863241524E+04  0.91499117965E+02 0.  0.
         11    1    3    3    0    0 -0.65902743700E+01  0.29420231622E+02  0.32417533693E+03  0.32557430921E+03  0.00000000000E+00 0. -1.
        -11    1    3    3    0    0 -0.65719782080E+02 -0.63397036414E+02  0.95640053703E+03  0.96074984320E+03  0.00000000000E+00 0.  1.
         22    1    1    2    0    0  0.72310056450E+02  0.33976804792E+02 -0.28130938145E+03  0.29243483996E+03  0.00000000000E+00 0.  1.
<mgrwt>
<rscale>  0 0.12222710E+04</rscale>
<asrwt>0</asrwt>
<pdfrwt beam="1">  1        2 0.19830965E+00 0.12222710E+04</pdfrwt>
<pdfrwt beam="2">  1       -2 0.44576347E-01 0.12222710E+04</pdfrwt>
<totfact> 0.78861400E+01</totfact>
</mgrwt>
</event>
<event>
 6    1  0.1588846E-005  0.9780075E+03  0.7818608E-02  0.9333000E-01
         -2   -1    0    0    0  501 -0.00000000000E+00  0.00000000000E+00  0.15103900599E+03  0.15103900599E+03  0.00000000000E+00 0.  1.
          2   -1    0    0  501    0  0.00000000000E+00 -0.00000000000E+00 -0.15831982472E+04  0.15831982472E+04  0.00000000000E+00 0. -1.
         23    2    1    2    0    0 -0.18960775160E+03  0.18391967345E+03 -0.15924446816E+01  0.27948679174E+03  0.91284090216E+02 0.  0.
         11    1    3    3    0    0 -0.57273069440E+02  0.14725481767E+02  0.22645289731E+02  0.63323403599E+02  0.00000000000E+00 0. -1.
        -11    1    3    3    0    0 -0.13233468216E+03  0.16919419169E+03 -0.24237734413E+02  0.21616338814E+03  0.00000000000E+00 0.  1.
         22    1    1    2    0    0  0.18960775160E+03 -0.18391967345E+03 -0.14305667965E+04  0.14547504614E+04  0.00000000000E+00 0. -1.
<mgrwt>
<rscale>  0 0.97800755E+03</rscale>
<asrwt>0</asrwt>
<pdfrwt beam="1">  1        2 0.24356897E+00 0.97800755E+03</pdfrwt>
<pdfrwt beam="2">  1       -2 0.23236769E-01 0.97800755E+03</pdfrwt>
<totfact> 0.18643129E+02</totfact>
</mgrwt>
</event>
<event>
 6    1  0.1588846E-005  0.1127580E+04  0.7818608E-02  0.9178720E-01
          2   -1    0    0  501    0  0.00000000000E+00  0.00000000000E+00  0.32045191340E+03  0.32045191340E+03  0.00000000000E+00 0. -1.
         -2   -1    0    0    0  501 -0.00000000000E+00 -0.00000000000E+00 -0.99190871328E+03  0.99190871328E+03  0.00000000000E+00 0.  1.
         23    2    1    2    0    0 -0.24718937246E+03  0.44376811089E+03 -0.61346569378E+03  0.80109191995E+03  0.85880059754E+02 0.  0.
         13    1    3    3    0    0 -0.10663966872E+03  0.20754231762E+03 -0.21690554452E+03  0.31858099095E+03  0.00000000000E+00 0.  1.
        -13    1    3    3    0    0 -0.14054970374E+03  0.23622579327E+03 -0.39656014926E+03  0.48251092900E+03  0.00000000000E+00 0. -1.
         22    1    1    2    0    0  0.24718937246E+03 -0.44376811089E+03 -0.57991106098E+02  0.51126870674E+03  0.00000000000E+00 0. -1.
<mgrwt>
<rscale>  0 0.11275798E+04</rscale>
<asrwt>0</asrwt>
<pdfrwt beam="1">  1        2 0.49300296E-01 0.11275798E+04</pdfrwt>
<pdfrwt beam="2">  1       -2 0.15260134E+00 0.11275798E+04</pdfrwt>
<totfact> 0.28904915E+01</totfact>
</mgrwt>
</event>
<event>
 6    1  0.1588846E-005  0.2321493E+04  0.7818608E-02  0.8469495E-01
         -1   -1    0    0    0  501 -0.00000000000E+00  0.00000000000E+00  0.74892494623E+03  0.74892494623E+03  0.00000000000E+00 0.  1.
          1   -1    0    0  501    0  0.00000000000E+00 -0.00000000000E+00 -0.17990216291E+04  0.17990216291E+04  0.00000000000E+00 0. -1.
         23    2    1    2    0    0 -0.33627746429E+02 -0.97285116377E+03 -0.12166327040E+04  0.15603715358E+04  0.83630025712E+02 0.  0.
         11    1    3    3    0    0 -0.55722171264E+02 -0.42479655633E+03 -0.54363618534E+03  0.69216860421E+03  0.00000000000E+00 0. -1.
        -11    1    3    3    0    0  0.22094424835E+02 -0.54805460744E+03 -0.67299651868E+03  0.86820293163E+03  0.00000000000E+00 0.  1.
         22    1    1    2    0    0  0.33627746429E+02  0.97285116377E+03  0.16653602118E+03  0.98757503944E+03  0.00000000000E+00 0. -1.
<mgrwt>
<rscale>  0 0.23214928E+04</rscale>
<asrwt>0</asrwt>
<pdfrwt beam="1">  1        1 0.27677256E+00 0.23214928E+04</pdfrwt>
<pdfrwt beam="2">  1       -1 0.11521922E+00 0.23214928E+04</pdfrwt>
<totfact> 0.25150140E+00</totfact>
</mgrwt>
</event>
<event>
 6    1  0.1588846E-005  0.1299691E+04  0.7818608E-02  0.9029810E-01
          2   -1    0    0  501    0  0.00000000000E+00  0.00000000000E+00  0.75000924686E+03  0.75000924686E+03  0.00000000000E+00 0. -1.
         -2   -1    0    0    0  501 -0.00000000000E+00 -0.00000000000E+00 -0.56305833894E+03  0.56305833894E+03  0.00000000000E+00 0.  1.
         23    2    1    2    0    0  0.57783730213E+02 -0.19573168455E+03  0.71358417942E+03  0.74827341580E+03  0.95188612035E+02 0.  0.
         11    1    3    3    0    0 -0.12326165363E+02 -0.12371847500E+03  0.37362391480E+03  0.39376772991E+03  0.00000000000E+00 0. -1.
        -11    1    3    3    0    0  0.70109895576E+02 -0.72013209551E+02  0.33996026462E+03  0.35450568589E+03  0.00000000000E+00 0.  1.
         22    1    1    2    0    0 -0.57783730213E+02  0.19573168455E+03 -0.52663327150E+03  0.56479417000E+03  0.00000000000E+00 0.  1.
<mgrwt>
<rscale>  0 0.12996907E+04</rscale>
<asrwt>0</asrwt>
<pdfrwt beam="1">  1        2 0.11538604E+00 0.12996907E+04</pdfrwt>
<pdfrwt beam="2">  1       -2 0.86624360E-01 0.12996907E+04</pdfrwt>
<totfact> 0.42431307E+01</totfact>
</mgrwt>
</event>
<event>
 6    1  0.1588846E-005  0.2700316E+04  0.7818608E-02  0.8334903E-01
         -1   -1    0    0    0  501 -0.00000000000E+00  0.00000000000E+00  0.16613070894E+04  0.16613070894E+04  0.00000000000E+00 0.  1.
          1   -1    0    0  501    0  0.00000000000E+00 -0.00000000000E+00 -0.10972843984E+04  0.10972843984E+04  0.00000000000E+00 0. -1.
         23    2    1    2    0    0  0.66380366298E+03 -0.10770677870E+03  0.14765267175E+04  0.16250573456E+04  0.91892198032E+02 0.  0.
         13    1    3    3    0    0  0.23736157513E+03 -0.82667078896E+02  0.56671071676E+03  0.61994790085E+03  0.00000000000E+00 0.  1.
        -13    1    3    3    0    0  0.42644208785E+03 -0.25039699801E+02  0.90981600072E+03  0.10051094448E+04  0.00000000000E+00 0. -1.
         22    1    1    2    0    0 -0.66380366298E+03  0.10770677870E+03 -0.91250402646E+03  0.11335341422E+04  0.00000000000E+00 0. -1.
<mgrwt>
<rscale>  0 0.27003158E+04</rscale>
<asrwt>0</asrwt>
<pdfrwt beam="1">  1        1 0.16881298E+00 0.27003158E+04</pdfrwt>
<pdfrwt beam="2">  1       -1 0.25558571E+00 0.27003158E+04</pdfrwt>
<totfact> 0.71298079E-01</totfact>
</mgrwt>
</event>
<event>
 6    1  0.1588846E-005  0.2969358E+04  0.7818608E-02  0.8252535E-01
          2   -1    0    0  501    0  0.00000000000E+00  0.00000000000E+00  0.20835197283E+04  0.20835197283E+04  0.00000000000E+00 0. -1.
         -2   -1    0    0    0  501 -0.00000000000E+00 -0.00000000000E+00 -0.10579558692E+04  0.10579558692E+04  0.00000000000E+00 0.  1.
         23    2    1    2    0    0 -0.66625458620E+03  0.96562060445E+03  0.14734412987E+04  0.18857238201E+04  0.92772516654E+02 0.  0.
         11    1    3    3    0    0 -0.32447806765E+03  0.47045859873E+03  0.79220410453E+03  0.97683399446E+03  0.00000000000E+00 0. -1.
        -11    1    3    3    0    0 -0.34177651854E+03  0.49516200572E+03  0.68123719416E+03  0.90888982568E+03  0.00000000000E+00 0.  1.
         22    1    1    2    0    0  0.66625458620E+03 -0.96562060445E+03 -0.44787743962E+03  0.12557517773E+04  0.00000000000E+00 0. -1.
<mgrwt>
<rscale>  0 0.29693581E+04</rscale>
<asrwt>0</asrwt>
<pdfrwt beam="1">  1        2 0.32054150E+00 0.29693581E+04</pdfrwt>
<pdfrwt beam="2">  1       -2 0.16276244E+00 0.29693581E+04</pdfrwt>
<totfact> 0.12381250E+00</totfact>
</mgrwt>
</event>
<event>
 6    1  0.1588846E-005  0.1927002E+04  0.7818608E-02  0.8641531E-01
          2   -1    0    0  501    0  0.00000000000E+00  0.00000000000E+00  0.17383274720E+04  0.17383274720E+04  0.00000000000E+00 0.  1.
         -2   -1    0    0    0  501 -0.00000000000E+00 -0.00000000000E+00 -0.53403892114E+03  0.53403892114E+03  0.00000000000E+00 0. -1.
         23    2    1    2    0    0 -0.29039599538E+03 -0.85380988751E+03  0.21151620225E+03  0.93112886970E+03  0.94555327901E+02 0.  0.
         11    1    3    3    0    0 -0.15536108887E+03 -0.54244172010E+03  0.16943165545E+03  0.58914104721E+03  0.00000000000E+00 0.  1.
        -11    1    3    3    0    0 -0.13503490651E+03 -0.31136816741E+03  0.42084546799E+02  0.34198782249E+03  0.00000000000E+00 0. -1.
         22    1    1    2    0    0  0.29039599538E+03  0.85380988751E+03  0.99277234865E+03  0.13412375235E+04  0.00000000000E+00 0.  1.
<mgrwt>
<rscale>  0 0.19270024E+04</rscale>
<asrwt>0</asrwt>
<pdfrwt beam="1">  1        2 0.26743499E+00 0.19270024E+04</pdfrwt>
<pdfrwt beam="2">  1       -2 0.82159835E-01 0.19270024E+04</pdfrwt>
<totfact> 0.11356965E+01</totfact>
</mgrwt>
</event>
<event>
 6    1  0.1588846E-005  0.2960833E+04  0.7818608E-02  0.8255005E-01
         -2   -1    0    0    0  501 -0.00000000000E+00  0.00000000000E+00  0.17271724654E+04  0.17271724654E+04  0.00000000000E+00 0. -1.
          2   -1    0    0  501    0  0.00000000000E+00 -0.00000000000E+00 -0.12689138122E+04  0.12689138122E+04  0.00000000000E+00 0.  1.
         23    2    1    2    0    0  0.12858920615E+04 -0.58741229941E+03 -0.21025335123E+03  0.14322832519E+04  0.93044284538E+02 0.  0.
         11    1    3    3    0    0  0.38536742554E+03 -0.20744539094E+03 -0.97626484050E+02  0.44841116543E+03  0.00000000000E+00 0. -1.
        -11    1    3    3    0    0  0.90052463591E+03 -0.37996690848E+03 -0.11262686718E+03  0.98387208652E+03  0.00000000000E+00 0.  1.
         22    1    1    2    0    0 -0.12858920615E+04  0.58741229941E+03  0.66851200442E+03  0.15638030257E+04  0.00000000000E+00 0. -1.
<mgrwt>
<rscale>  0 0.29608330E+04</rscale>
<asrwt>0</asrwt>
<pdfrwt beam="1">  1        2 0.19521751E+00 0.29608330E+04</pdfrwt>
<pdfrwt beam="2">  1       -2 0.26571884E+00 0.29608330E+04</pdfrwt>
<totfact> 0.76209068E-01</totfact>
</mgrwt>
</event>
<event>
 6    1  0.1588846E-005  0.4342280E+04  0.7818608E-02  0.7938846E-01
          1   -1    0    0  501    0  0.00000000000E+00  0.00000000000E+00  0.21740172589E+04  0.21740172589E+04  0.00000000000E+00 0. -1.
         -1   -1    0    0    0  501 -0.00000000000E+00 -0.00000000000E+00 -0.21682667209E+04  0.21682667209E+04  0.00000000000E+00 0.  1.
         23    2    1    2    0    0  0.14588117450E+04 -0.16027085954E+04  0.11440735078E+03  0.21723501440E+04  0.95966439164E+02 0.  0.
         11    1    3    3    0    0  0.11510740925E+04 -0.12158930243E+04  0.64940301366E+02  0.16755848697E+04  0.00000000000E+00 0. -1.
        -11    1    3    3    0    0  0.30773765248E+03 -0.38681557103E+03  0.49467049411E+02  0.49676527427E+03  0.00000000000E+00 0.  1.
         22    1    1    2    0    0 -0.14588117450E+04  0.16027085954E+04 -0.10865681272E+03  0.21699338358E+04  0.00000000000E+00 0.  1.
<mgrwt>
<rscale>  0 0.43422802E+04</rscale>
<asrwt>0</asrwt>
<pdfrwt beam="1">  1        1 0.33446419E+00 0.43422802E+04</pdfrwt>
<pdfrwt beam="2">  1       -1 0.33357950E+00 0.43422802E+04</pdfrwt>
<totfact> 0.34442373E-02</totfact>
</mgrwt>
</event>
<event>
 6    1  0.1588846E-005  0.3126182E+04  0.7818608E-02  0.8208589E-01
          2   -1    0    0  501    0  0.00000000000E+00  0.00000000000E+00  0.27370993555E+04  0.27370993555E+04  0.00000000000E+00 0. -1.
         -2   -1    0    0    0  501 -0.00000000000E+00 -0.00000000000E+00 -0.89264329911E+03  0.89264329911E+03  0.00000000000E+00 0.  1.
         23    2    1    2    0    0 -0.77104830609E+03 -0.13100646621E+04  0.50709009822E+03  0.16050617871E+04  0.91093708131E+02 0.  0.
         11    1    3    3    0    0 -0.73664217942E+03 -0.12563353701E+04  0.50425058222E+03  0.15411972335E+04  0.00000000000E+00 0.  1.
        -11    1    3    3    0    0 -0.34406126675E+02 -0.53729291928E+02  0.28395159976E+01  0.63864553666E+02  0.00000000000E+00 0. -1.
         22    1    1    2    0    0  0.77104830609E+03  0.13100646621E+04  0.13373659581E+04  0.20246808675E+04  0.00000000000E+00 0. -1.
<mgrwt>
<rscale>  0 0.31261820E+04</rscale>
<asrwt>0</asrwt>
<pdfrwt beam="1">  1        2 0.42109220E+00 0.31261820E+04</pdfrwt>
<pdfrwt beam="2">  1       -2 0.13732974E+00 0.31261820E+04</pdfrwt>
<totfact> 0.80677554E-01</totfact>
</mgrwt>
</event>
<event>
 6    1  0.1588846E-005  0.2022160E+04  0.7818608E-02  0.8596330E-01
         -2   -1    0    0    0  501 -0.00000000000E+00  0.00000000000E+00  0.48742915555E+03  0.48742915555E+03  0.00000000000E+00 0.  1.
          2   -1    0    0  501    0  0.00000000000E+00 -0.00000000000E+00 -0.20972948178E+04  0.20972948178E+04  0.00000000000E+00 0. -1.
         23    2    1    2    0    0  0.50543418796E+02  0.64776878863E+03 -0.17932704364E+04  0.19095970580E+04  0.92644616305E+02 0.  0.
         13    1    3    3    0    0 -0.12885373638E+02  0.40954070003E+03 -0.11296234333E+04  0.12016400122E+04  0.00000000000E+00 0. -1.
        -13    1    3    3    0    0  0.63428792434E+02  0.23822808861E+03 -0.66364700311E+03  0.70795704576E+03  0.00000000000E+00 0.  1.
         22    1    1    2    0    0 -0.50543418796E+02 -0.64776878863E+03  0.18340477415E+03  0.67512691540E+03  0.00000000000E+00 0.  1.
<mgrwt>
<rscale>  0 0.20221599E+04</rscale>
<asrwt>0</asrwt>
<pdfrwt beam="1">  1        2 0.32266073E+00 0.20221599E+04</pdfrwt>
<pdfrwt beam="2">  1       -2 0.74989102E-01 0.20221599E+04</pdfrwt>
<totfact> 0.87340612E+00</totfact>
</mgrwt>
</event>
<event>
 6    1  0.1588846E-005  0.4757005E+04  0.7818608E-02  0.7867125E-01
         -1   -1    0    0    0  501 -0.00000000000E+00  0.00000000000E+00  0.20570970647E+04  0.20570970647E+04  0.00000000000E+00 0.  1.
          1   -1    0    0  501    0  0.00000000000E+00 -0.00000000000E+00 -0.27501245203E+04  0.27501245203E+04  0.00000000000E+00 0. -1.
         23    2    1    2    0    0  0.11935148567E+04 -0.57359824641E+03  0.16489369318E+04  0.21168145799E+04  0.91751290479E+02 0.  0.
         11    1    3    3    0    0  0.48334012797E+03 -0.21161329102E+03  0.59224339440E+03  0.79318982750E+03  0.00000000000E+00 0. -1.
        -11    1    3    3    0    0  0.71017472868E+03 -0.36198495539E+03  0.10566935374E+04  0.13236247524E+04  0.00000000000E+00 0.  1.
         22    1    1    2    0    0 -0.11935148567E+04  0.57359824641E+03 -0.23419643874E+04  0.26904070051E+04  0.00000000000E+00 0. -1.
<mgrwt>
<rscale>  0 0.47570046E+04</rscale>
<asrwt>0</asrwt>
<pdfrwt beam="1">  1        1 0.42309608E+00 0.47570046E+04</pdfrwt>
<pdfrwt beam="2">  1       -1 0.31647647E+00 0.47570046E+04</pdfrwt>
<totfact> 0.17176906E-02</totfact>
</mgrwt>
</event>
<event>
 6    1  0.1588846E-005  0.1675669E+04  0.7818608E-02  0.8775364E-01
          2   -1    0    0  501    0  0.00000000000E+00  0.00000000000E+00  0.18663411544E+04  0.18663411544E+04  0.00000000000E+00 0. -1.
         -2   -1    0    0    0  501 -0.00000000000E+00 -0.00000000000E+00 -0.37611905122E+03  0.37611905122E+03  0.00000000000E+00 0.  1.
         23    2    1    2    0    0  0.22399513989E+03 -0.72989835257E+03  0.12007760505E+04  0.14259404905E+04  0.92291554809E+02 0.  0.
         13    1    3    3    0    0  0.17513736049E+03 -0.50201929511E+03  0.76281291024E+03  0.92982794308E+03  0.00000000000E+00 0. -1.
        -13    1    3    3    0    0  0.48857779395E+02 -0.22787905747E+03  0.43796314030E+03  0.49611254742E+03  0.00000000000E+00 0.  1.
         22    1    1    2    0    0 -0.22399513989E+03  0.72989835257E+03  0.28944605263E+03  0.81651971511E+03  0.00000000000E+00 0.  1.
<mgrwt>
<rscale>  0 0.16756688E+04</rscale>
<asrwt>0</asrwt>
<pdfrwt beam="1">  1        2 0.28712940E+00 0.16756688E+04</pdfrwt>
<pdfrwt beam="2">  1       -2 0.57864471E-01 0.16756688E+04</pdfrwt>
<totfact> 0.21127901E+01</totfact>
</mgrwt>
</event>
<event>
 6    1  0.1588846E-005  0.1408025E+04  0.7818608E-02  0.8948030E-01
         -2   -1    0    0    0  501 -0.00000000000E+00  0.00000000000E+00  0.75925387719E+03  0.75925387719E+03  0.00000000000E+00 0.  1.
          2   -1    0    0  501    0  0.00000000000E+00 -0.00000000000E+00 -0.65279016478E+03  0.65279016478E+03  0.00000000000E+00 0. -1.
         23    2    1    2    0    0  0.17308446363E+03  0.16341787881E+03  0.71478042860E+03  0.75881141736E+03  0.90664609060E+02 0.  0.
         13    1    3    3    0    0  0.12843379112E+02  0.49797217210E+02  0.23132178361E+03  0.23696937102E+03  0.00000000000E+00 0. -1.
        -13    1    3    3    0    0  0.16024108452E+03  0.11362066160E+03  0.48345864500E+03  0.52184204634E+03  0.00000000000E+00 0.  1.
         22    1    1    2    0    0 -0.17308446363E+03 -0.16341787881E+03 -0.60831671619E+03  0.65323262461E+03  0.00000000000E+00 0. -1.
<mgrwt>
<rscale>  0 0.14080248E+04</rscale>
<asrwt>0</asrwt>
<pdfrwt beam="1">  1        2 0.10042926E+00 0.14080248E+04</pdfrwt>
<pdfrwt beam="2">  1       -2 0.11680829E+00 0.14080248E+04</pdfrwt>
<totfact> 0.24689135E+01</totfact>
</mgrwt>
</event>
<event>
 6    1  0.1588846E-005  0.8071296E+03  0.7818608E-02  0.9549754E-01
          2   -1    0    0  501    0  0.00000000000E+00  0.00000000000E+00  0.74881446423E+03  0.74881446423E+03  0.00000000000E+00 0. -1.
         -2   -1    0    0    0  501 -0.00000000000E+00 -0.00000000000E+00 -0.21749653181E+03  0.21749653181E+03  0.00000000000E+00 0.  1.
         23    2    1    2    0    0 -0.22462870746E+03  0.78928083779E+02  0.65155292464E+03  0.69958238493E+03  0.90590292422E+02 0.  0.
         13    1    3    3    0    0 -0.60558912236E+02  0.61517859767E+02  0.28092887203E+03  0.29389259954E+03  0.00000000000E+00 0.  1.
        -13    1    3    3    0    0 -0.16406979523E+03  0.17410224012E+02  0.37062405260E+03  0.40568978540E+03  0.00000000000E+00 0. -1.
         22    1    1    2    0    0  0.22462870746E+03 -0.78928083779E+02 -0.12023499222E+03  0.26672861110E+03  0.00000000000E+00 0.  1.
<mgrwt>
<rscale>  0 0.80712960E+03</rscale>
<asrwt>0</asrwt>
<pdfrwt beam="1">  1        2 0.11520222E+00 0.80712960E+03</pdfrwt>
<pdfrwt beam="2">  1       -2 0.33461005E-01 0.80712960E+03</pdfrwt>
<totfact> 0.31513127E+02</totfact>
</mgrwt>
</event>
<event>
 6    1  0.1588846E-005  0.4764121E+04  0.7818608E-02  0.7865961E-01
          2   -1    0    0  501    0  0.00000000000E+00  0.00000000000E+00  0.36064743451E+04  0.36064743451E+04  0.00000000000E+00 0. -1.
         -2   -1    0    0    0  501 -0.00000000000E+00 -0.00000000000E+00 -0.15733404703E+04  0.15733404703E+04  0.00000000000E+00 0.  1.
         23    2    1    2    0    0 -0.87854622610E+03  0.13845418990E+04  0.28942813629E+04  0.33276877308E+04  0.88551026935E+02 0.  0.
         13    1    3    3    0    0 -0.45326304344E+03  0.73278965678E+03  0.14332115457E+04  0.16722808981E+04  0.00000000000E+00 0.  1.
        -13    1    3    3    0    0 -0.42528318266E+03  0.65175224223E+03  0.14610698172E+04  0.16554068326E+04  0.00000000000E+00 0. -1.
         22    1    1    2    0    0  0.87854622610E+03 -0.13845418990E+04 -0.86114748813E+03  0.18521270847E+04  0.00000000000E+00 0.  1.
<mgrwt>
<rscale>  0 0.47641209E+04</rscale>
<asrwt>0</asrwt>
<pdfrwt beam="1">  1        2 0.55484221E+00 0.47641209E+04</pdfrwt>
<pdfrwt beam="2">  1       -2 0.24205238E+00 0.47641209E+04</pdfrwt>
<totfact> 0.36361519E-02</totfact>
</mgrwt>
</event>
<event>
 6    1  0.1588846E-005  0.5443040E+04  0.7818608E-02  0.7763576E-01
          1   -1    0    0  501    0  0.00000000000E+00  0.00000000000E+00  0.33762005324E+04  0.33762005324E+04  0.00000000000E+00 0. -1.
         -1   -1    0    0    0  501 -0.00000000000E+00 -0.00000000000E+00 -0.21937890269E+04  0.21937890269E+04  0.00000000000E+00 0.  1.
         23    2    1    2    0    0  0.17857296013E+04  0.21060177387E+03  0.26809161513E+04  0.32293273688E+04  0.89780445271E+02 0.  0.
         13    1    3    3    0    0  0.10845706184E+04  0.11366304977E+03  0.15505938863E+04  0.18956671954E+04  0.00000000000E+00 0.  1.
        -13    1    3    3    0    0  0.70115898292E+03  0.96938724107E+02  0.11303222650E+04  0.13336601735E+04  0.00000000000E+00 0. -1.
         22    1    1    2    0    0 -0.17857296013E+04 -0.21060177387E+03 -0.14985046459E+04  0.23406621905E+04  0.00000000000E+00 0.  1.
<mgrwt>
<rscale>  0 0.54430402E+04</rscale>
<asrwt>0</asrwt>
<pdfrwt beam="1">  1        1 0.51941547E+00 0.54430402E+04</pdfrwt>
<pdfrwt beam="2">  1       -1 0.33750600E+00 0.54430402E+04</pdfrwt>
<totfact> 0.40871743E-03</totfact>
</mgrwt>
</event>
<event>
 6    1  0.1588846E-005  0.2578649E+04  0.7818608E-02  0.8375490E-01
         -2   -1    0    0    0  501 -0.00000000000E+00  0.00000000000E+00  0.11419151229E+04  0.11419151229E+04  0.00000000000E+00 0.  1.
          2   -1    0    0  501    0  0.00000000000E+00 -0.00000000000E+00 -0.14557623773E+04  0.14557623773E+04  0.00000000000E+00 0. -1.
         23    2    1    2    0    0  0.67054076348E+03 -0.46839638672E+03  0.84475421906E+03  0.11794471010E+04  0.92009145819E+02 0.  0.
         11    1    3    3    0    0  0.17125726799E+03 -0.10064789487E+03  0.15521995851E+03  0.25209578755E+03  0.00000000000E+00 0. -1.
        -11    1    3    3    0    0  0.49928349549E+03 -0.36774849184E+03  0.68953426056E+03  0.92735131347E+03  0.00000000000E+00 0.  1.
         22    1    1    2    0    0 -0.67054076348E+03  0.46839638672E+03 -0.11586014735E+04  0.14182303991E+04  0.00000000000E+00 0. -1.
<mgrwt>
<rscale>  0 0.25786485E+04</rscale>
<asrwt>0</asrwt>
<pdfrwt beam="1">  1        2 0.22396344E+00 0.25786485E+04</pdfrwt>
<pdfrwt beam="2">  1       -2 0.17567925E+00 0.25786485E+04</pdfrwt>
<totfact> 0.23161471E+00</totfact>
</mgrwt>
</event>
<event>
 6    1  0.1588846E-005  0.2075624E+04  0.7818608E-02  0.8572058E-01
         -2   -1    0    0    0  501 -0.00000000000E+00  0.00000000000E+00  0.50749114849E+03  0.50749114849E+03  0.00000000000E+00 0. -1.
          2   -1    0    0  501    0  0.00000000000E+00 -0.00000000000E+00 -0.21223100366E+04  0.21223100366E+04  0.00000000000E+00 0.  1.
         23    2    1    2    0    0 -0.86333442251E+03 -0.79622784366E+02 -0.15270908935E+04  0.17583757357E+04  0.90512529933E+02 0.  0.
         11    1    3    3    0    0 -0.55298269177E+02  0.11137757809E+02 -0.71515807745E+02  0.91084899849E+02  0.00000000000E+00 0. -1.
        -11    1    3    3    0    0 -0.80803615333E+03 -0.90760542175E+02 -0.14555750857E+04  0.16672908358E+04  0.00000000000E+00 0.  1.
         22    1    1    2    0    0  0.86333442251E+03  0.79622784366E+02 -0.87727994678E+02  0.87142544944E+03  0.00000000000E+00 0. -1.
<mgrwt>
<rscale>  0 0.20756238E+04</rscale>
<asrwt>0</asrwt>
<pdfrwt beam="1">  1        2 0.32650924E+00 0.20756238E+04</pdfrwt>
<pdfrwt beam="2">  1       -2 0.78075562E-01 0.20756238E+04</pdfrwt>
<totfact> 0.76962362E+00</totfact>
</mgrwt>
</event>
<event>
 6    1  0.1588846E-005  0.1161330E+04  0.7818608E-02  0.9147394E-01
         -1   -1    0    0    0  501 -0.00000000000E+00  0.00000000000E+00  0.18353017608E+03  0.18353017608E+03  0.00000000000E+00 0.  1.
          1   -1    0    0  501    0  0.00000000000E+00 -0.00000000000E+00 -0.18371480681E+04  0.18371480681E+04  0.00000000000E+00 0. -1.
         23    2    1    2    0    0  0.52577583928E+03  0.25760447424E+02 -0.41870724491E+03  0.67825203013E+03  0.87213677871E+02 0.  0.
         13    1    3    3    0    0  0.38952930023E+03  0.24052958474E+02 -0.35603257055E+03  0.52827153230E+03  0.00000000000E+00 0. -1.
        -13    1    3    3    0    0  0.13624653905E+03  0.17074889498E+01 -0.62674674366E+02  0.14998049783E+03  0.00000000000E+00 0.  1.
         22    1    1    2    0    0 -0.52577583928E+03 -0.25760447424E+02 -0.12349106471E+04  0.13424262141E+04  0.00000000000E+00 0.  1.
<mgrwt>
<rscale>  0 0.11613305E+04</rscale>
<asrwt>0</asrwt>
<pdfrwt beam="1">  1        1 0.28263817E+00 0.11613305E+04</pdfrwt>
<pdfrwt beam="2">  1       -1 0.28235411E-01 0.11613305E+04</pdfrwt>
<totfact> 0.43333458E+01</totfact>
</mgrwt>
</event>
<event>
 6    1  0.1732551E-005  0.3015559E+04  0.7818608E-02  0.8239302E-01
          2   -1    0    0  501    0  0.00000000000E+00  0.00000000000E+00  0.11893853646E+04  0.11893853646E+04  0.00000000000E+00 0. -1.
         -2   -1    0    0    0  501 -0.00000000000E+00 -0.00000000000E+00 -0.19114071331E+04  0.19114071331E+04  0.00000000000E+00 0.  1.
         23    2    1    2    0    0  0.21344576249E+03 -0.49365973098E+03 -0.18082664845E+04  0.18886924167E+04  0.89846213868E+02 0.  0.
         11    1    3    3    0    0  0.11039154791E+03 -0.34258067972E+03 -0.11113851847E+04  0.11682143830E+04  0.00000000000E+00 0. -1.
        -11    1    3    3    0    0  0.10305421458E+03 -0.15107905126E+03 -0.69688129987E+03  0.72047803366E+03  0.00000000000E+00 0.  1.
         22    1    1    2    0    0 -0.21344576249E+03  0.49365973098E+03  0.10862447160E+04  0.12121000811E+04  0.00000000000E+00 0. -1.
<mgrwt>
<rscale>  0 0.30155594E+04</rscale>
<asrwt>0</asrwt>
<pdfrwt beam="1">  1        2 0.18298236E+00 0.30155594E+04</pdfrwt>
<pdfrwt beam="2">  1       -2 0.29406264E+00 0.30155594E+04</pdfrwt>
<totfact> 0.56779557E-01</totfact>
</mgrwt>
</event>
<event>
 6    1  0.1588846E-005  0.2516367E+04  0.7818608E-02  0.8397178E-01
         -2   -1    0    0    0  501 -0.00000000000E+00  0.00000000000E+00  0.12760352898E+04  0.12760352898E+04  0.00000000000E+00 0.  1.
          2   -1    0    0  501    0  0.00000000000E+00 -0.00000000000E+00 -0.12405818142E+04  0.12405818142E+04  0.00000000000E+00 0. -1.
         23    2    1    2    0    0 -0.77852915895E+03 -0.47515382525E+03 -0.84664241532E+03  0.12477703955E+04  0.90822746959E+02 0.  0.
         13    1    3    3    0    0 -0.66972552737E+03 -0.43216462273E+03 -0.76765617209E+03  0.11066139985E+04  0.00000000000E+00 0. -1.
        -13    1    3    3    0    0 -0.10880363158E+03 -0.42989202522E+02 -0.78986243227E+02  0.14115639694E+03  0.00000000000E+00 0.  1.
         22    1    1    2    0    0  0.77852915895E+03  0.47515382525E+03  0.88209589091E+03  0.12688467085E+04  0.00000000000E+00 0.  1.
<mgrwt>
<rscale>  0 0.25163674E+04</rscale>
<asrwt>0</asrwt>
<pdfrwt beam="1">  1        2 0.19085874E+00 0.25163674E+04</pdfrwt>
<pdfrwt beam="2">  1       -2 0.19631312E+00 0.25163674E+04</pdfrwt>
<totfact> 0.22446663E+00</totfact>
</mgrwt>
</event>
<event>
 6    1  0.1588846E-005  0.1387395E+04  0.7818608E-02  0.8962993E-01
         -1   -1    0    0    0  501 -0.00000000000E+00  0.00000000000E+00  0.11126642287E+04  0.11126642287E+04  0.00000000000E+00 0.  1.
          1   -1    0    0  501    0  0.00000000000E+00 -0.00000000000E+00 -0.43249021551E+03  0.43249021551E+03  0.00000000000E+00 0. -1.
         23    2    1    2    0    0  0.20989097321E+03 -0.12992407097E+03  0.10599109194E+04  0.10922365678E+04  0.92925120068E+02 0.  0.
         11    1    3    3    0    0  0.16179363540E+03 -0.49543382841E+02  0.72391526697E+03  0.74342789899E+03  0.00000000000E+00 0.  1.
        -11    1    3    3    0    0  0.48097337805E+02 -0.80380688133E+02  0.33599565248E+03  0.34880866878E+03  0.00000000000E+00 0. -1.
         22    1    1    2    0    0 -0.20989097321E+03  0.12992407097E+03 -0.37973690625E+03  0.45291787646E+03  0.00000000000E+00 0. -1.
<mgrwt>
<rscale>  0 0.13873952E+04</rscale>
<asrwt>0</asrwt>
<pdfrwt beam="1">  1        1 0.66536957E-01 0.13873952E+04</pdfrwt>
<pdfrwt beam="2">  1       -1 0.17117911E+00 0.13873952E+04</pdfrwt>
<totfact> 0.12718148E+01</totfact>
</mgrwt>
</event>
<event>
 6    1  0.1588846E-005  0.2463625E+04  0.7818608E-02  0.8416060E-01
          2   -1    0    0  501    0  0.00000000000E+00  0.00000000000E+00  0.28196749737E+04  0.28196749737E+04  0.00000000000E+00 0. -1.
         -2   -1    0    0    0  501 -0.00000000000E+00 -0.00000000000E+00 -0.53813346171E+03  0.53813346171E+03  0.00000000000E+00 0.  1.
         23    2    1    2    0    0 -0.11606310424E+03 -0.39125171128E+03  0.27240228031E+04  0.27558630569E+04  0.89064085456E+02 0.  0.
         13    1    3    3    0    0 -0.53672524114E-01 -0.94282817345E+02  0.46591808238E+03  0.47536187481E+03  0.00000000000E+00 0.  1.
        -13    1    3    3    0    0 -0.11600943172E+03 -0.29696889393E+03  0.22581047207E+04  0.22805011821E+04  0.00000000000E+00 0. -1.
         22    1    1    2    0    0  0.11606310424E+03  0.39125171128E+03 -0.44248129105E+03  0.60194537848E+03  0.00000000000E+00 0.  1.
<mgrwt>
<rscale>  0 0.24636245E+04</rscale>
<asrwt>0</asrwt>
<pdfrwt beam="1">  1        2 0.43379614E+00 0.24636245E+04</pdfrwt>
<pdfrwt beam="2">  1       -2 0.82789764E-01 0.24636245E+04</pdfrwt>
<totfact> 0.25746229E+00</totfact>
</mgrwt>
</event>
<event>
 6    1  0.1588846E-005  0.2389322E+04  0.7818608E-02  0.8443512E-01
          2   -1    0    0  501    0  0.00000000000E+00  0.00000000000E+00  0.13486856475E+04  0.13486856475E+04  0.00000000000E+00 0. -1.
         -2   -1    0    0    0  501 -0.00000000000E+00 -0.00000000000E+00 -0.10582268680E+04  0.10582268680E+04  0.00000000000E+00 0.  1.
         23    2    1    2    0    0 -0.31609851499E+03 -0.79056216493E+03 -0.69639958223E+03  0.11035337394E+04  0.88924282730E+02 0.  0.
         13    1    3    3    0    0 -0.19422420016E+03 -0.59070343624E+03 -0.49686946564E+03  0.79594777178E+03  0.00000000000E+00 0.  1.
        -13    1    3    3    0    0 -0.12187431484E+03 -0.19985872869E+03 -0.19953011659E+03  0.30758596762E+03  0.00000000000E+00 0. -1.
         22    1    1    2    0    0  0.31609851499E+03  0.79056216493E+03  0.98685836177E+03  0.13033787761E+04  0.00000000000E+00 0. -1.
<mgrwt>
<rscale>  0 0.23893224E+04</rscale>
<asrwt>0</asrwt>
<pdfrwt beam="1">  1        2 0.20749010E+00 0.23893224E+04</pdfrwt>
<pdfrwt beam="2">  1       -2 0.16280413E+00 0.23893224E+04</pdfrwt>
<totfact> 0.33489589E+00</totfact>
</mgrwt>
</event>
<event>
 6    1  0.1588846E-005  0.1485039E+04  0.7818608E-02  0.8894463E-01
          2   -1    0    0  501    0  0.00000000000E+00  0.00000000000E+00  0.10711594241E+04  0.10711594241E+04  0.00000000000E+00 0. -1.
         -2   -1    0    0    0  501 -0.00000000000E+00 -0.00000000000E+00 -0.51470884985E+03  0.51470884985E+03  0.00000000000E+00 0.  1.
         23    2    1    2    0    0 -0.49024474215E+03  0.13719131109E+03  0.85229327343E+03  0.99706927112E+03  0.92638784711E+02 0.  0.
         11    1    3    3    0    0 -0.24183706597E+03  0.61921373468E+02  0.50670147554E+03  0.56485910481E+03  0.00000000000E+00 0. -1.
        -11    1    3    3    0    0 -0.24840767618E+03  0.75269937623E+02  0.34559179788E+03  0.43221016631E+03  0.00000000000E+00 0.  1.
         22    1    1    2    0    0  0.49024474215E+03 -0.13719131109E+03 -0.29584269920E+03  0.58879900281E+03  0.00000000000E+00 0.  1.
<mgrwt>
<rscale>  0 0.14850390E+04</rscale>
<asrwt>0</asrwt>
<pdfrwt beam="1">  1        2 0.16479376E+00 0.14850390E+04</pdfrwt>
<pdfrwt beam="2">  1       -2 0.79185977E-01 0.14850390E+04</pdfrwt>
<totfact> 0.31068942E+01</totfact>
</mgrwt>
</event>
<event>
 6    1  0.1588846E-005  0.1192779E+04  0.7818608E-02  0.9119201E-01
         -1   -1    0    0    0  501 -0.00000000000E+00  0.00000000000E+00  0.10552525360E+04  0.10552525360E+04  0.00000000000E+00 0.  1.
          1   -1    0    0  501    0  0.00000000000E+00 -0.00000000000E+00 -0.33705706583E+03  0.33705706583E+03  0.00000000000E+00 0. -1.
         23    2    1    2    0    0 -0.24624588779E+03 -0.34837154892E+03  0.84202059868E+03  0.94808844538E+03  0.88731270207E+02 0.  0.
         11    1    3    3    0    0 -0.10026128741E+03 -0.12321760934E+03  0.40775351873E+03  0.43760465839E+03  0.00000000000E+00 0. -1.
        -11    1    3    3    0    0 -0.14598460037E+03 -0.22515393958E+03  0.43426707994E+03  0.51048378699E+03  0.00000000000E+00 0.  1.
         22    1    1    2    0    0  0.24624588779E+03  0.34837154892E+03 -0.12382512854E+03  0.44422115642E+03  0.00000000000E+00 0. -1.
<mgrwt>
<rscale>  0 0.11927788E+04</rscale>
<asrwt>0</asrwt>
<pdfrwt beam="1">  1        1 0.51854934E-01 0.11927788E+04</pdfrwt>
<pdfrwt beam="2">  1       -1 0.16234654E+00 0.11927788E+04</pdfrwt>
<totfact> 0.20908604E+01</totfact>
</mgrwt>
</event>
<event>
 6    1  0.1588846E-005  0.3426755E+04  0.7818608E-02  0.8131371E-01
         -2   -1    0    0    0  501 -0.00000000000E+00  0.00000000000E+00  0.18956873432E+04  0.18956873432E+04  0.00000000000E+00 0.  1.
          2   -1    0    0  501    0  0.00000000000E+00 -0.00000000000E+00 -0.15486001717E+04  0.15486001717E+04  0.00000000000E+00 0. -1.
         23    2    1    2    0    0 -0.15898175128E+03  0.13487378709E+04  0.12218193044E+04  0.18288849811E+04  0.87228547837E+02 0.  0.
         11    1    3    3    0    0 -0.29858134802E+02  0.53978560840E+03  0.45045489669E+03  0.70368290103E+03  0.00000000000E+00 0.  1.
        -11    1    3    3    0    0 -0.12912361648E+03  0.80895226255E+03  0.77136440770E+03  0.11252020800E+04  0.00000000000E+00 0. -1.
         22    1    1    2    0    0  0.15898175128E+03 -0.13487378709E+04 -0.87473213290E+03  0.16154025338E+04  0.00000000000E+00 0. -1.
<mgrwt>
<rscale>  0 0.34267546E+04</rscale>
<asrwt>0</asrwt>
<pdfrwt beam="1">  1        2 0.23824618E+00 0.34267546E+04</pdfrwt>
<pdfrwt beam="2">  1       -2 0.29164421E+00 0.34267546E+04</pdfrwt>
<totfact> 0.35219814E-01</totfact>
</mgrwt>
</event>
<event>
 6    1  0.1588846E-005  0.1828086E+04  0.7818608E-02  0.8691505E-01
         -2   -1    0    0    0  501 -0.00000000000E+00  0.00000000000E+00  0.31103398311E+03  0.31103398311E+03  0.00000000000E+00 0.  1.
          2   -1    0    0  501    0  0.00000000000E+00 -0.00000000000E+00 -0.26861188073E+04  0.26861188073E+04  0.00000000000E+00 0. -1.
         23    2    1    2    0    0 -0.86136564608E+03 -0.85634103875E+02 -0.16598379482E+04  0.18742716437E+04  0.92456498289E+02 0.  0.
         13    1    3    3    0    0 -0.40329032072E+03 -0.86467554228E+02 -0.78918062174E+03  0.89046379738E+03  0.00000000000E+00 0.  1.
        -13    1    3    3    0    0 -0.45807532536E+03  0.83345035244E+00 -0.87065732650E+03  0.98380784635E+03  0.00000000000E+00 0. -1.
         22    1    1    2    0    0  0.86136564608E+03  0.85634103875E+02 -0.71524687596E+03  0.11228811467E+04  0.00000000000E+00 0. -1.
<mgrwt>
<rscale>  0 0.18280856E+04</rscale>
<asrwt>0</asrwt>
<pdfrwt beam="1">  1        2 0.41324906E+00 0.18280856E+04</pdfrwt>
<pdfrwt beam="2">  1       -2 0.47851381E-01 0.18280856E+04</pdfrwt>
<totfact> 0.10568962E+01</totfact>
</mgrwt>
</event>
<event>
 6    1  0.1588846E-005  0.2183616E+04  0.7818608E-02  0.8525279E-01
          1   -1    0    0  501    0  0.00000000000E+00  0.00000000000E+00  0.61200506380E+03  0.61200506380E+03  0.00000000000E+00 0. -1.
         -1   -1    0    0    0  501 -0.00000000000E+00 -0.00000000000E+00 -0.19477693233E+04  0.19477693233E+04  0.00000000000E+00 0.  1.
         23    2    1    2    0    0  0.67129127945E+03  0.85851420752E+03 -0.65427292998E+03  0.12744304414E+04  0.91767405732E+02 0.  0.
         13    1    3    3    0    0  0.37632413378E+03  0.48611673077E+03 -0.42169146713E+03  0.74548844596E+03  0.00000000000E+00 0. -1.
        -13    1    3    3    0    0  0.29496714568E+03  0.37239747675E+03 -0.23258146284E+03  0.52894199547E+03  0.00000000000E+00 0.  1.
         22    1    1    2    0    0 -0.67129127945E+03 -0.85851420752E+03 -0.68149132949E+03  0.12853439456E+04  0.00000000000E+00 0.  1.
<mgrwt>
<rscale>  0 0.21836160E+04</rscale>
<asrwt>0</asrwt>
<pdfrwt beam="1">  1        1 0.94154623E-01 0.21836160E+04</pdfrwt>
<pdfrwt beam="2">  1       -1 0.29965683E+00 0.21836160E+04</pdfrwt>
<totfact> 0.10089298E+00</totfact>
</mgrwt>
</event>
<event>
 6    1  0.1588846E-005  0.1083898E+04  0.7818608E-02  0.9221029E-01
         -1   -1    0    0    0  501 -0.00000000000E+00  0.00000000000E+00  0.64906943919E+03  0.64906943919E+03  0.00000000000E+00 0.  1.
          1   -1    0    0  501    0  0.00000000000E+00 -0.00000000000E+00 -0.45250751730E+03  0.45250751730E+03  0.00000000000E+00 0. -1.
         23    2    1    2    0    0 -0.34146391753E+03  0.55790023633E+01  0.52004677476E+03  0.63118224745E+03  0.10636563972E+03 0.  0.
         13    1    3    3    0    0 -0.90895389670E+01 -0.19766598214E+02  0.53795247345E+02  0.58028154895E+02  0.00000000000E+00 0.  1.
        -13    1    3    3    0    0 -0.33237437857E+03  0.25345600578E+02  0.46625152742E+03  0.57315409256E+03  0.00000000000E+00 0. -1.
         22    1    1    2    0    0  0.34146391753E+03 -0.55790023633E+01 -0.32348485288E+03  0.47039470904E+03  0.00000000000E+00 0. -1.
<mgrwt>
<rscale>  0 0.10838982E+04</rscale>
<asrwt>0</asrwt>
<pdfrwt beam="1">  1        1 0.69616541E-01 0.10838982E+04</pdfrwt>
<pdfrwt beam="2">  1       -1 0.99856838E-01 0.10838982E+04</pdfrwt>
<totfact> 0.48503419E+01</totfact>
</mgrwt>
</event>
<event>
 6    1  0.1588846E-005  0.3401161E+04  0.7818608E-02  0.8137621E-01
          2   -1    0    0  501    0  0.00000000000E+00  0.00000000000E+00  0.29211047935E+04  0.29211047935E+04  0.00000000000E+00 0. -1.
         -2   -1    0    0    0  501 -0.00000000000E+00 -0.00000000000E+00 -0.99002760795E+03  0.99002760795E+03  0.00000000000E+00 0.  1.
         23    2    1    2    0    0  0.11074429394E+04  0.83705787291E+03 -0.16013904677E+03  0.14010963306E+04  0.10163988733E+03 0.  0.
         13    1    3    3    0    0  0.61620956246E+03  0.45294919478E+03 -0.38330321153E+02  0.76573259787E+03  0.00000000000E+00 0.  1.
        -13    1    3    3    0    0  0.49123337693E+03  0.38410867813E+03 -0.12180872562E+03  0.63536373272E+03  0.00000000000E+00 0. -1.
         22    1    1    2    0    0 -0.11074429394E+04 -0.83705787291E+03  0.20912162323E+04  0.25100360708E+04  0.00000000000E+00 0. -1.
<mgrwt>
<rscale>  0 0.34011612E+04</rscale>
<asrwt>0</asrwt>
<pdfrwt beam="1">  1        2 0.44940074E+00 0.34011612E+04</pdfrwt>
<pdfrwt beam="2">  1       -2 0.15231194E+00 0.34011612E+04</pdfrwt>
<totfact> 0.46432219E-01</totfact>
</mgrwt>
</event>
<event>
 6    1  0.1588846E-005  0.2055768E+04  0.7818608E-02  0.8580982E-01
          2   -1    0    0  501    0  0.00000000000E+00  0.00000000000E+00  0.19081573744E+04  0.19081573744E+04  0.00000000000E+00 0. -1.
         -2   -1    0    0    0  501 -0.00000000000E+00 -0.00000000000E+00 -0.55369909312E+03  0.55369909312E+03  0.00000000000E+00 0.  1.
         23    2    1    2    0    0  0.83991288205E+03  0.29629980013E+03  0.12879425115E+04  0.15687318577E+04  0.94215219516E+02 0.  0.
         11    1    3    3    0    0  0.35420041401E+03  0.16204526331E+03  0.50765697798E+03  0.63986889902E+03  0.00000000000E+00 0.  1.
        -11    1    3    3    0    0  0.48571246804E+03  0.13425453682E+03  0.78028553352E+03  0.92886295873E+03  0.00000000000E+00 0. -1.
         22    1    1    2    0    0 -0.83991288205E+03 -0.29629980013E+03  0.66515769814E+02  0.89312460980E+03  0.00000000000E+00 0.  1.
<mgrwt>
<rscale>  0 0.20557675E+04</rscale>
<asrwt>0</asrwt>
<pdfrwt beam="1">  1        2 0.29356267E+00 0.20557675E+04</pdfrwt>
<pdfrwt beam="2">  1       -2 0.85184477E-01 0.20557675E+04</pdfrwt>
<totfact> 0.83323176E+00</totfact>
</mgrwt>
</event>
<event>
 6    1  0.1588846E-005  0.1330944E+04  0.7818608E-02  0.9005380E-01
          2   -1    0    0  501    0  0.00000000000E+00  0.00000000000E+00  0.56069728052E+03  0.56069728052E+03  0.00000000000E+00 0. -1.
         -2   -1    0    0    0  501 -0.00000000000E+00 -0.00000000000E+00 -0.78982514441E+03  0.78982514441E+03  0.00000000000E+00 0.  1.
         23    2    1    2    0    0 -0.28066218954E+03  0.32144608306E+03  0.39888770032E+03  0.59124487499E+03  0.91434434319E+02 0.  0.
         11    1    3    3    0    0 -0.16460432568E+03  0.23863541876E+03  0.30349136436E+03  0.41970043526E+03  0.00000000000E+00 0.  1.
        -11    1    3    3    0    0 -0.11605786386E+03  0.82810664304E+02  0.95396335964E+02  0.17154443973E+03  0.00000000000E+00 0. -1.
         22    1    1    2    0    0  0.28066218954E+03 -0.32144608306E+03 -0.62801556421E+03  0.75927754994E+03  0.00000000000E+00 0.  1.
<mgrwt>
<rscale>  0 0.13309437E+04</rscale>
<asrwt>0</asrwt>
<pdfrwt beam="1">  1        2 0.86261120E-01 0.13309437E+04</pdfrwt>
<pdfrwt beam="2">  1       -2 0.12151156E+00 0.13309437E+04</pdfrwt>
<totfact> 0.27078301E+01</totfact>
</mgrwt>
</event>
<event>
 6    1  0.1588846E-005  0.1566151E+04  0.7818608E-02  0.8841617E-01
          2   -1    0    0  501    0  0.00000000000E+00  0.00000000000E+00  0.25900808317E+04  0.25900808317E+04  0.00000000000E+00 0. -1.
         -2   -1    0    0    0  501 -0.00000000000E+00 -0.00000000000E+00 -0.23675224236E+03  0.23675224236E+03  0.00000000000E+00 0.  1.
         23    2    1    2    0    0  0.51423571834E+03 -0.58124577646E+03  0.13295898475E+04  0.15421829123E+04  0.90741091203E+02 0.  0.
         13    1    3    3    0    0  0.40432903595E+03 -0.39605932949E+03  0.95797345173E+03  0.11126805903E+04  0.00000000000E+00 0. -1.
        -13    1    3    3    0    0  0.10990668239E+03 -0.18518644697E+03  0.37161639582E+03  0.42950232202E+03  0.00000000000E+00 0.  1.
         22    1    1    2    0    0 -0.51423571834E+03  0.58124577646E+03  0.10237387418E+04  0.12846501618E+04  0.00000000000E+00 0.  1.
<mgrwt>
<rscale>  0 0.15661513E+04</rscale>
<asrwt>0</asrwt>
<pdfrwt beam="1">  1        2 0.39847395E+00 0.15661513E+04</pdfrwt>
<pdfrwt beam="2">  1       -2 0.36423424E-01 0.15661513E+04</pdfrwt>
<totfact> 0.21102514E+01</totfact>
</mgrwt>
</event>
<event>
 6    1  0.1588846E-005  0.1545425E+04  0.7818608E-02  0.8854795E-01
          1   -1    0    0  501    0  0.00000000000E+00  0.00000000000E+00  0.40945822905E+03  0.40945822905E+03  0.00000000000E+00 0. -1.
         -1   -1    0    0    0  501 -0.00000000000E+00 -0.00000000000E+00 -0.14582316448E+04  0.14582316448E+04  0.00000000000E+00 0.  1.
         23    2    1    2    0    0  0.64229598275E+03 -0.42399843889E+03 -0.51982813468E+03  0.93382590303E+03  0.97420336310E+02 0.  0.
         13    1    3    3    0    0  0.60196878799E+03 -0.41970305723E+03 -0.47933089695E+03  0.87651308418E+03  0.00000000000E+00 0.  1.
        -13    1    3    3    0    0  0.40327194757E+02 -0.42953816544E+01 -0.40497237733E+02  0.57312818850E+02  0.00000000000E+00 0. -1.
         22    1    1    2    0    0 -0.64229598275E+03  0.42399843889E+03 -0.52894528105E+03  0.93386397081E+03  0.00000000000E+00 0. -1.
<mgrwt>
<rscale>  0 0.15454254E+04</rscale>
<asrwt>0</asrwt>
<pdfrwt beam="1">  1        1 0.62993574E-01 0.15454254E+04</pdfrwt>
<pdfrwt beam="2">  1       -1 0.22434333E+00 0.15454254E+04</pdfrwt>
<totfact> 0.57690320E+00</totfact>
</mgrwt>
</event>
<event>
 6    1  0.1588846E-005  0.2993468E+04  0.7818608E-02  0.8245599E-01
         -1   -1    0    0    0  501 -0.00000000000E+00  0.00000000000E+00  0.41555769914E+04  0.41555769914E+04  0.00000000000E+00 0.  1.
          1   -1    0    0  501    0  0.00000000000E+00 -0.00000000000E+00 -0.53908565110E+03  0.53908565110E+03  0.00000000000E+00 0. -1.
         23    2    1    2    0    0  0.36656110969E+03  0.58599305677E+03  0.38894930561E+04  0.39515039471E+04  0.92045101348E+02 0.  0.
         13    1    3    3    0    0  0.26135018143E+03  0.35362892907E+03  0.26191480069E+04  0.26558037614E+04  0.00000000000E+00 0. -1.
        -13    1    3    3    0    0  0.10521092826E+03  0.23236412770E+03  0.12703450492E+04  0.12957001857E+04  0.00000000000E+00 0.  1.
         22    1    1    2    0    0 -0.36656110969E+03 -0.58599305677E+03 -0.27300171582E+03  0.74315869540E+03  0.00000000000E+00 0. -1.
<mgrwt>
<rscale>  0 0.29934675E+04</rscale>
<asrwt>0</asrwt>
<pdfrwt beam="1">  1        1 0.82936257E-01 0.29934675E+04</pdfrwt>
<pdfrwt beam="2">  1       -1 0.63931952E+00 0.29934675E+04</pdfrwt>
<totfact> 0.10664540E-02</totfact>
</mgrwt>
</event>
<event>
 6    1  0.1588846E-005  0.1959463E+04  0.7818608E-02  0.8625811E-01
          2   -1    0    0  501    0  0.00000000000E+00  0.00000000000E+00  0.24443621881E+04  0.24443621881E+04  0.00000000000E+00 0. -1.
         -2   -1    0    0    0  501 -0.00000000000E+00 -0.00000000000E+00 -0.39268889094E+03  0.39268889094E+03  0.00000000000E+00 0.  1.
         23    2    1    2    0    0 -0.90077713475E+02  0.85874002455E+02  0.24319102064E+04  0.24369655308E+04  0.95527000334E+02 0.  0.
         11    1    3    3    0    0 -0.29465741870E+02  0.91391846132E+02  0.14851884216E+04  0.14882894030E+04  0.00000000000E+00 0. -1.
        -11    1    3    3    0    0 -0.60611971605E+02 -0.55178436767E+01  0.94672178477E+03  0.94867612780E+03  0.00000000000E+00 0.  1.
         22    1    1    2    0    0  0.90077713475E+02 -0.85874002455E+02 -0.38023690921E+03  0.40008554821E+03  0.00000000000E+00 0.  1.
<mgrwt>
<rscale>  0 0.19594631E+04</rscale>
<asrwt>0</asrwt>
<pdfrwt beam="1">  1        2 0.37605571E+00 0.19594631E+04</pdfrwt>
<pdfrwt beam="2">  1       -2 0.60413677E-01 0.19594631E+04</pdfrwt>
<totfact> 0.89236956E+00</totfact>
</mgrwt>
</event>
<event>
 6    1  0.1588846E-005  0.2776317E+04  0.7818608E-02  0.8310659E-01
         -1   -1    0    0    0  501 -0.00000000000E+00  0.00000000000E+00  0.14840518477E+04  0.14840518477E+04  0.00000000000E+00 0.  1.
          1   -1    0    0  501    0  0.00000000000E+00 -0.00000000000E+00 -0.12984618385E+04  0.12984618385E+04  0.00000000000E+00 0. -1.
         23    2    1    2    0    0 -0.70051906741E+03 -0.64332450804E+03  0.11042816728E+04  0.14601719152E+04  0.89836643745E+02 0.  0.
         11    1    3    3    0    0 -0.17737513982E+03 -0.11452274564E+03  0.26082371222E+03  0.33556878334E+03  0.00000000000E+00 0. -1.
        -11    1    3    3    0    0 -0.52314392759E+03 -0.52880176240E+03  0.84345796059E+03  0.11246031319E+04  0.00000000000E+00 0.  1.
         22    1    1    2    0    0  0.70051906741E+03  0.64332450804E+03 -0.91869166358E+03  0.13223417709E+04  0.00000000000E+00 0. -1.
<mgrwt>
<rscale>  0 0.27763175E+04</rscale>
<asrwt>0</asrwt>
<pdfrwt beam="1">  1        1 0.19976336E+00 0.27763175E+04</pdfrwt>
<pdfrwt beam="2">  1       -1 0.22831567E+00 0.27763175E+04</pdfrwt>
<totfact> 0.76194575E-01</totfact>
</mgrwt>
</event>
<event>
 6    1  0.1588846E-005  0.5499606E+04  0.7818608E-02  0.7755743E-01
         -2   -1    0    0    0  501 -0.00000000000E+00  0.00000000000E+00  0.21713442460E+04  0.21713442460E+04  0.00000000000E+00 0.  1.
          2   -1    0    0  501    0  0.00000000000E+00 -0.00000000000E+00 -0.34823663548E+04  0.34823663548E+04  0.00000000000E+00 0. -1.
         23    2    1    2    0    0 -0.10874636213E+04  0.24850515005E+04 -0.11145146655E+04  0.29340280343E+04  0.91211174512E+02 0.  0.
         13    1    3    3    0    0 -0.67649989949E+03  0.16063606301E+04 -0.75523382902E+03  0.18995854086E+04  0.00000000000E+00 0.  1.
        -13    1    3    3    0    0 -0.41096372179E+03  0.87869087035E+03 -0.35928083650E+03  0.10344426256E+04  0.00000000000E+00 0. -1.
         22    1    1    2    0    0  0.10874636213E+04 -0.24850515005E+04 -0.19650744328E+03  0.27196825666E+04  0.00000000000E+00 0.  1.
<mgrwt>
<rscale>  0 0.54996059E+04</rscale>
<asrwt>0</asrwt>
<pdfrwt beam="1">  1        2 0.53574867E+00 0.54996059E+04</pdfrwt>
<pdfrwt beam="2">  1       -2 0.33405296E+00 0.54996059E+04</pdfrwt>
<totfact> 0.11442304E-02</totfact>
</mgrwt>
</event>
<event>
 6    1  0.1588846E-005  0.1998227E+04  0.7818608E-02  0.8607450E-01
          1   -1    0    0  501    0  0.00000000000E+00  0.00000000000E+00  0.17061621155E+04  0.17061621155E+04  0.00000000000E+00 0. -1.
         -1   -1    0    0    0  501 -0.00000000000E+00 -0.00000000000E+00 -0.58507203454E+03  0.58507203454E+03  0.00000000000E+00 0.  1.
         23    2    1    2    0    0 -0.18575146103E+02  0.67545991423E+03 -0.27892104726E+03  0.73668524734E+03  0.91197978358E+02 0.  0.
         13    1    3    3    0    0 -0.47960546389E+02  0.28157652958E+03 -0.13898130579E+03  0.31764974323E+03  0.00000000000E+00 0. -1.
        -13    1    3    3    0    0  0.29385400287E+02  0.39388338465E+03 -0.13993974147E+03  0.41903550410E+03  0.00000000000E+00 0.  1.
         22    1    1    2    0    0  0.18575146103E+02 -0.67545991423E+03  0.14000111282E+04  0.15545489027E+04  0.00000000000E+00 0. -1.
<mgrwt>
<rscale>  0 0.19982270E+04</rscale>
<asrwt>0</asrwt>
<pdfrwt beam="1">  1        1 0.26248648E+00 0.19982270E+04</pdfrwt>
<pdfrwt beam="2">  1       -1 0.90011083E-01 0.19982270E+04</pdfrwt>
<totfact> 0.52878667E+00</totfact>
</mgrwt>
</event>
<event>
 6    1  0.1588846E-005  0.1421737E+04  0.7818608E-02  0.8938233E-01
         -1   -1    0    0    0  501 -0.00000000000E+00  0.00000000000E+00  0.23374938699E+03  0.23374938699E+03  0.00000000000E+00 0.  1.
          1   -1    0    0  501    0  0.00000000000E+00 -0.00000000000E+00 -0.21618630723E+04  0.21618630723E+04  0.00000000000E+00 0. -1.
         23    2    1    2    0    0  0.35108639011E+03 -0.36199734172E+03 -0.18052549653E+04  0.18765768210E+04  0.91056832246E+02 0.  0.
         13    1    3    3    0    0  0.20514939707E+03 -0.17553805970E+03 -0.82170873907E+03  0.86493071248E+03  0.00000000000E+00 0.  1.
        -13    1    3    3    0    0  0.14593699303E+03 -0.18645928202E+03 -0.98354622624E+03  0.10116461085E+04  0.00000000000E+00 0. -1.
         22    1    1    2    0    0 -0.35108639011E+03  0.36199734172E+03 -0.12285872002E+03  0.51903563829E+03  0.00000000000E+00 0.  1.
<mgrwt>
<rscale>  0 0.14217372E+04</rscale>
<asrwt>0</asrwt>
<pdfrwt beam="1">  1        1 0.33259432E+00 0.14217372E+04</pdfrwt>
<pdfrwt beam="2">  1       -1 0.35961444E-01 0.14217372E+04</pdfrwt>
<totfact> 0.16664020E+01</totfact>
</mgrwt>
</event>
<event>
 6    1  0.1588846E-005  0.4598504E+04  0.7818608E-02  0.7893615E-01
          2   -1    0    0  501    0  0.00000000000E+00  0.00000000000E+00  0.37297386041E+04  0.37297386041E+04  0.00000000000E+00 0. -1.
         -2   -1    0    0    0  501 -0.00000000000E+00 -0.00000000000E+00 -0.14174073195E+04  0.14174073195E+04  0.00000000000E+00 0.  1.
         23    2    1    2    0    0  0.61203293885E+02  0.89918633767E+03  0.35231720268E+04  0.36377032397E+04  0.88666888433E+02 0.  0.
         13    1    3    3    0    0  0.58129821725E+02  0.33841307462E+03  0.12389110869E+04  0.12856139259E+04  0.00000000000E+00 0. -1.
        -13    1    3    3    0    0  0.30734721598E+01  0.56077326305E+03  0.22842609399E+04  0.23520893138E+04  0.00000000000E+00 0.  1.
         22    1    1    2    0    0 -0.61203293885E+02 -0.89918633767E+03 -0.12108407421E+04  0.15094426838E+04  0.00000000000E+00 0.  1.
<mgrwt>
<rscale>  0 0.45985036E+04</rscale>
<asrwt>0</asrwt>
<pdfrwt beam="1">  1        2 0.57380593E+00 0.45985036E+04</pdfrwt>
<pdfrwt beam="2">  1       -2 0.21806267E+00 0.45985036E+04</pdfrwt>
<totfact> 0.42278887E-02</totfact>
</mgrwt>
</event>
<event>
 6    1  0.1588846E-005  0.8060196E+03  0.7818608E-02  0.9551345E-01
         -2   -1    0    0    0  501 -0.00000000000E+00  0.00000000000E+00  0.50782015530E+02  0.50782015530E+02  0.00000000000E+00 0.  1.
          2   -1    0    0  501    0  0.00000000000E+00 -0.00000000000E+00 -0.31983154589E+04  0.31983154589E+04  0.00000000000E+00 0. -1.
         23    2    1    2    0    0 -0.55910150182E+02 -0.28930207700E+03 -0.26719674751E+04  0.26896471846E+04  0.89275712185E+02 0.  0.
         11    1    3    3    0    0  0.67436051473E+01 -0.14215955460E+03 -0.15167258749E+04  0.15233883926E+04  0.00000000000E+00 0.  1.
        -11    1    3    3    0    0 -0.62653755329E+02 -0.14714252240E+03 -0.11552416002E+04  0.11662587920E+04  0.00000000000E+00 0. -1.
         22    1    1    2    0    0  0.55910150182E+02  0.28930207700E+03 -0.47556596822E+03  0.55945028982E+03  0.00000000000E+00 0.  1.
<mgrwt>
<rscale>  0 0.80601962E+03</rscale>
<asrwt>0</asrwt>
<pdfrwt beam="1">  1        2 0.49204859E+00 0.80601962E+03</pdfrwt>
<pdfrwt beam="2">  1       -2 0.78126168E-02 0.80601962E+03</pdfrwt>
<totfact> 0.14029566E+02</totfact>
</mgrwt>
</event>
<event>
 6    1  0.1588846E-005  0.1442218E+04  0.7818608E-02  0.8923813E-01
          1   -1    0    0  501    0  0.00000000000E+00  0.00000000000E+00  0.88001302962E+03  0.88001302962E+03  0.00000000000E+00 0. -1.
         -1   -1    0    0    0  501 -0.00000000000E+00 -0.00000000000E+00 -0.59089829206E+03  0.59089829206E+03  0.00000000000E+00 0.  1.
         23    2    1    2    0    0  0.48211056256E+03 -0.48416849517E+03 -0.70875750779E+02  0.69861417812E+03  0.12723471052E+03 0.  0.
         13    1    3    3    0    0  0.14571573407E+03 -0.22869660202E+03 -0.58889523250E+01  0.27123770146E+03  0.00000000000E+00 0.  1.
        -13    1    3    3    0    0  0.33639482849E+03 -0.25547189315E+03 -0.64986798454E+02  0.42737647666E+03  0.00000000000E+00 0. -1.
         22    1    1    2    0    0 -0.48211056256E+03  0.48416849517E+03  0.35999048834E+03  0.77229714356E+03  0.00000000000E+00 0. -1.
<mgrwt>
<rscale>  0 0.14422180E+04</rscale>
<asrwt>0</asrwt>
<pdfrwt beam="1">  1        1 0.13538662E+00 0.14422180E+04</pdfrwt>
<pdfrwt beam="2">  1       -1 0.90907429E-01 0.14422180E+04</pdfrwt>
<totfact> 0.21708943E+01</totfact>
</mgrwt>
</event>
<event>
 6    1  0.1588846E-005  0.2193976E+04  0.7818608E-02  0.8520939E-01
         -2   -1    0    0    0  501 -0.00000000000E+00  0.00000000000E+00  0.46309287713E+03  0.46309287713E+03  0.00000000000E+00 0.  1.
          2   -1    0    0  501    0  0.00000000000E+00 -0.00000000000E+00 -0.25985783056E+04  0.25985783056E+04  0.00000000000E+00 0. -1.
         23    2    1    2    0    0  0.87766201565E+03  0.65345214293E+03 -0.11337502771E+04  0.15781740879E+04  0.89182084066E+02 0.  0.
         11    1    3    3    0    0  0.51726291602E+03  0.36394187956E+03 -0.59607772202E+03  0.86909335901E+03  0.00000000000E+00 0. -1.
        -11    1    3    3    0    0  0.36039909962E+03  0.28951026338E+03 -0.53767255512E+03  0.70908072893E+03  0.00000000000E+00 0.  1.
         22    1    1    2    0    0 -0.87766201565E+03 -0.65345214293E+03 -0.10017351513E+04  0.14834970948E+04  0.00000000000E+00 0.  1.
<mgrwt>
<rscale>  0 0.21939764E+04</rscale>
<asrwt>0</asrwt>
<pdfrwt beam="1">  1        2 0.39978129E+00 0.21939764E+04</pdfrwt>
<pdfrwt beam="2">  1       -2 0.71245057E-01 0.21939764E+04</pdfrwt>
<totfact> 0.49882673E+00</totfact>
</mgrwt>
</event>
<event>
 6    1  0.1588846E-005  0.5441137E+04  0.7818608E-02  0.7763841E-01
          1   -1    0    0  501    0  0.00000000000E+00  0.00000000000E+00  0.40912915175E+04  0.40912915175E+04  0.00000000000E+00 0. -1.
         -1   -1    0    0    0  501 -0.00000000000E+00 -0.00000000000E+00 -0.18090850362E+04  0.18090850362E+04  0.00000000000E+00 0.  1.
         23    2    1    2    0    0  0.11864295245E+03  0.19531723559E+04  0.31901153259E+04  0.37432356515E+04  0.77581881481E+02 0.  0.
         11    1    3    3    0    0  0.28608828756E+02  0.88983967014E+03  0.15067313217E+04  0.17501063909E+04  0.00000000000E+00 0. -1.
        -11    1    3    3    0    0  0.90034123695E+02  0.10633326858E+04  0.16833840042E+04  0.19931292607E+04  0.00000000000E+00 0.  1.
         22    1    1    2    0    0 -0.11864295245E+03 -0.19531723559E+04 -0.90790884450E+03  0.21571409022E+04  0.00000000000E+00 0.  1.
<mgrwt>
<rscale>  0 0.54411375E+04</rscale>
<asrwt>0</asrwt>
<pdfrwt beam="1">  1        1 0.62942946E+00 0.54411375E+04</pdfrwt>
<pdfrwt beam="2">  1       -1 0.27832078E+00 0.54411375E+04</pdfrwt>
<totfact> 0.25211509E-03</totfact>
</mgrwt>
</event>
<event>
 6    1  0.1588846E-005  0.3009805E+04  0.7818608E-02  0.8240936E-01
          2   -1    0    0  501    0  0.00000000000E+00  0.00000000000E+00  0.10461035431E+04  0.10461035431E+04  0.00000000000E+00 0. -1.
         -2   -1    0    0    0  501 -0.00000000000E+00 -0.00000000000E+00 -0.21649215901E+04  0.21649215901E+04  0.00000000000E+00 0.  1.
         23    2    1    2    0    0  0.25547217935E+03  0.38917037991E+03  0.96519184308E+03  0.10756523692E+04  0.93344022224E+02 0.  0.
         11    1    3    3    0    0  0.75831094697E+02  0.53036106716E+02  0.16046956262E+03  0.18523947762E+03  0.00000000000E+00 0. -1.
        -11    1    3    3    0    0  0.17964108465E+03  0.33613427319E+03  0.80472228046E+03  0.89041289163E+03  0.00000000000E+00 0.  1.
         22    1    1    2    0    0 -0.25547217935E+03 -0.38917037991E+03 -0.20840098901E+04  0.21353727640E+04  0.00000000000E+00 0.  1.
<mgrwt>
<rscale>  0 0.30098054E+04</rscale>
<asrwt>0</asrwt>
<pdfrwt beam="1">  1        2 0.16093901E+00 0.30098054E+04</pdfrwt>
<pdfrwt beam="2">  1       -2 0.33306486E+00 0.30098054E+04</pdfrwt>
<totfact> 0.39994800E-01</totfact>
</mgrwt>
</event>
<event>
 6    1  0.1588846E-005  0.2318051E+04  0.7818608E-02  0.8470838E-01
         -2   -1    0    0    0  501 -0.00000000000E+00  0.00000000000E+00  0.94216778424E+03  0.94216778424E+03  0.00000000000E+00 0.  1.
          2   -1    0    0  501    0  0.00000000000E+00 -0.00000000000E+00 -0.14257975115E+04  0.14257975115E+04  0.00000000000E+00 0. -1.
         23    2    1    2    0    0  0.52125686329E+03 -0.60903277777E+03 -0.10946192530E+04  0.13600278758E+04  0.94100329201E+02 0.  0.
         11    1    3    3    0    0  0.14000586400E+03 -0.20892220622E+03 -0.39803830692E+03  0.47083396647E+03  0.00000000000E+00 0.  1.
        -11    1    3    3    0    0  0.38125099929E+03 -0.40011057154E+03 -0.69658094606E+03  0.88919390930E+03  0.00000000000E+00 0. -1.
         22    1    1    2    0    0 -0.52125686329E+03  0.60903277777E+03  0.61098952575E+03  0.10079374199E+04  0.00000000000E+00 0.  1.
<mgrwt>
<rscale>  0 0.23180513E+04</rscale>
<asrwt>0</asrwt>
<pdfrwt beam="1">  1        2 0.21935346E+00 0.23180513E+04</pdfrwt>
<pdfrwt beam="2">  1       -2 0.14494889E+00 0.23180513E+04</pdfrwt>
<totfact> 0.41537282E+00</totfact>
</mgrwt>
</event>
<event>
 6    1  0.1588846E-005  0.1243226E+04  0.7818608E-02  0.9075840E-01
          2   -1    0    0  501    0  0.00000000000E+00  0.00000000000E+00  0.34042969736E+04  0.34042969736E+04  0.00000000000E+00 0.  1.
         -2   -1    0    0    0  501 -0.00000000000E+00 -0.00000000000E+00 -0.11350446843E+03  0.11350446843E+03  0.00000000000E+00 0. -1.
         23    2    1    2    0    0  0.13024954270E+03 -0.19886180436E+03  0.32692158374E+04  0.32791039070E+04  0.90770485857E+02 0.  0.
         13    1    3    3    0    0  0.81306151216E+02 -0.48317035476E+02  0.10511710022E+04  0.10554173117E+04  0.00000000000E+00 0. -1.
        -13    1    3    3    0    0  0.48943391488E+02 -0.15054476888E+03  0.22180448352E+04  0.22236865953E+04  0.00000000000E+00 0.  1.
         22    1    1    2    0    0 -0.13024954270E+03  0.19886180436E+03  0.21576667753E+02  0.23869753497E+03  0.00000000000E+00 0. -1.
<mgrwt>
<rscale>  0 0.12432263E+04</rscale>
<asrwt>0</asrwt>
<pdfrwt beam="1">  1        2 0.52373792E+00 0.12432263E+04</pdfrwt>
<pdfrwt beam="2">  1       -2 0.17462228E-01 0.12432263E+04</pdfrwt>
<totfact> 0.25771071E+01</totfact>
</mgrwt>
</event>
<event>
 6    1  0.1588846E-005  0.1421136E+04  0.7818608E-02  0.8938660E-01
         -1   -1    0    0    0  501 -0.00000000000E+00  0.00000000000E+00  0.16614271825E+03  0.16614271825E+03  0.00000000000E+00 0.  1.
          1   -1    0    0  501    0  0.00000000000E+00 -0.00000000000E+00 -0.30389943106E+04  0.30389943106E+04  0.00000000000E+00 0. -1.
         23    2    1    2    0    0 -0.45136357662E+03 -0.54423802327E+03 -0.15063902930E+04  0.16665855715E+04  0.91496710429E+02 0.  0.
         11    1    3    3    0    0 -0.32143258041E+03 -0.43984049074E+03 -0.11060143031E+04  0.12329015369E+04  0.00000000000E+00 0.  1.
        -11    1    3    3    0    0 -0.12993099621E+03 -0.10439753253E+03 -0.40037598988E+03  0.43368403458E+03  0.00000000000E+00 0. -1.
         22    1    1    2    0    0  0.45136357662E+03  0.54423802327E+03 -0.13664612993E+04  0.15385514573E+04  0.00000000000E+00 0. -1.
<mgrwt>
<rscale>  0 0.14211358E+04</rscale>
<asrwt>0</asrwt>
<pdfrwt beam="1">  1        1 0.46753757E+00 0.14211358E+04</pdfrwt>
<pdfrwt beam="2">  1       -1 0.25560419E-01 0.14211358E+04</pdfrwt>
<totfact> 0.74048857E+00</totfact>
</mgrwt>
</event>
<event>
 6    1  0.1588846E-005  0.3184359E+04  0.7818608E-02  0.8192960E-01
          2   -1    0    0  501    0  0.00000000000E+00  0.00000000000E+00  0.14305708879E+04  0.14305708879E+04  0.00000000000E+00 0. -1.
         -2   -1    0    0    0  501 -0.00000000000E+00 -0.00000000000E+00 -0.17720450011E+04  0.17720450011E+04  0.00000000000E+00 0.  1.
         23    2    1    2    0    0 -0.15416806085E+04  0.33392489203E+03 -0.38300517012E+03  0.16246394124E+04  0.66897892353E+02 0.  0.
         11    1    3    3    0    0 -0.43009204870E+03  0.96016651452E+02 -0.76388808004E+02  0.44725117965E+03  0.00000000000E+00 0.  1.
        -11    1    3    3    0    0 -0.11115885598E+04  0.23790824058E+03 -0.30661636211E+03  0.11773882328E+04  0.00000000000E+00 0. -1.
         22    1    1    2    0    0  0.15416806085E+04 -0.33392489203E+03  0.41531056877E+02  0.15779764766E+04  0.00000000000E+00 0. -1.
<mgrwt>
<rscale>  0 0.31843593E+04</rscale>
<asrwt>0</asrwt>
<pdfrwt beam="1">  1        2 0.22008783E+00 0.31843593E+04</pdfrwt>
<pdfrwt beam="2">  1       -2 0.27262231E+00 0.31843593E+04</pdfrwt>
<totfact> 0.54743590E-01</totfact>
</mgrwt>
</event>
<event>
 6    1  0.1588846E-005  0.1869292E+04  0.7818608E-02  0.8670294E-01
         -2   -1    0    0    0  501 -0.00000000000E+00  0.00000000000E+00  0.27725251820E+04  0.27725251820E+04  0.00000000000E+00 0.  1.
          2   -1    0    0  501    0  0.00000000000E+00 -0.00000000000E+00 -0.31507858301E+03  0.31507858301E+03  0.00000000000E+00 0. -1.
         23    2    1    2    0    0 -0.38756896949E+03 -0.84578080505E+03  0.11310022796E+04  0.14674156868E+04  0.92670195399E+02 0.  0.
         13    1    3    3    0    0 -0.13736434901E+03 -0.22317210130E+03  0.27666793543E+03  0.38107728570E+03  0.00000000000E+00 0. -1.
        -13    1    3    3    0    0 -0.25020462048E+03 -0.62260870374E+03  0.85433434418E+03  0.10863384011E+04  0.00000000000E+00 0.  1.
         22    1    1    2    0    0  0.38756896949E+03  0.84578080505E+03  0.13264443194E+04  0.16201880782E+04  0.00000000000E+00 0.  1.
<mgrwt>
<rscale>  0 0.18692922E+04</rscale>
<asrwt>0</asrwt>
<pdfrwt beam="1">  1        2 0.48473630E-01 0.18692922E+04</pdfrwt>
<pdfrwt beam="2">  1       -2 0.42654232E+00 0.18692922E+04</pdfrwt>
<totfact> 0.48614481E-01</totfact>
</mgrwt>
</event>
<event>
 6    1  0.1588846E-005  0.5845701E+04  0.7818608E-02  0.7709833E-01
         -1   -1    0    0    0  501 -0.00000000000E+00  0.00000000000E+00  0.31061589521E+04  0.31061589521E+04  0.00000000000E+00 0.  1.
          1   -1    0    0  501    0  0.00000000000E+00 -0.00000000000E+00 -0.27503600186E+04  0.27503600186E+04  0.00000000000E+00 0. -1.
         23    2    1    2    0    0 -0.28337066410E+04  0.64232378566E+03 -0.13329131999E+03  0.29100494819E+04  0.90267594889E+02 0.  0.
         13    1    3    3    0    0 -0.63222197758E+03  0.18177709719E+03 -0.34466356333E+02  0.65873778677E+03  0.00000000000E+00 0.  1.
        -13    1    3    3    0    0 -0.22014846634E+04  0.46054668848E+03 -0.98824963656E+02  0.22513116952E+04  0.00000000000E+00 0. -1.
         22    1    1    2    0    0  0.28337066410E+04 -0.64232378566E+03  0.48909025349E+03  0.29464694888E+04  0.00000000000E+00 0.  1.
<mgrwt>
<rscale>  0 0.58457011E+04</rscale>
<asrwt>0</asrwt>
<pdfrwt beam="1">  1        1 0.42313231E+00 0.58457011E+04</pdfrwt>
<pdfrwt beam="2">  1       -1 0.47787061E+00 0.58457011E+04</pdfrwt>
<totfact> 0.12840445E-03</totfact>
</mgrwt>
</event>
<event>
 6    1  0.1588846E-005  0.1212066E+04  0.7818608E-02  0.9102360E-01
         -1   -1    0    0    0  501 -0.00000000000E+00  0.00000000000E+00  0.80701745399E+03  0.80701745399E+03  0.00000000000E+00 0.  1.
          1   -1    0    0  501    0  0.00000000000E+00 -0.00000000000E+00 -0.45510290144E+03  0.45510290144E+03  0.00000000000E+00 0. -1.
         23    2    1    2    0    0 -0.14448778774E+03 -0.51268892770E+03 -0.11628117314E+03  0.55294203164E+03  0.92178748785E+02 0.  0.
         11    1    3    3    0    0  0.24236806189E+01 -0.11646783844E+03 -0.42296953603E+02  0.12393411114E+03  0.00000000000E+00 0. -1.
        -11    1    3    3    0    0 -0.14691146836E+03 -0.39622108926E+03 -0.73984219535E+02  0.42900792050E+03  0.00000000000E+00 0.  1.
         22    1    1    2    0    0  0.14448778774E+03  0.51268892770E+03  0.46819572568E+03  0.70917832379E+03  0.00000000000E+00 0.  1.
<mgrwt>
<rscale>  0 0.12120660E+04</rscale>
<asrwt>0</asrwt>
<pdfrwt beam="1">  1        1 0.70015831E-01 0.12120660E+04</pdfrwt>
<pdfrwt beam="2">  1       -1 0.12415653E+00 0.12120660E+04</pdfrwt>
<totfact> 0.28389737E+01</totfact>
</mgrwt>
</event>
<event>
 6    1  0.1588846E-005  0.1607977E+04  0.7818608E-02  0.8815662E-01
          2   -1    0    0  501    0  0.00000000000E+00  0.00000000000E+00  0.24355079746E+04  0.24355079746E+04  0.00000000000E+00 0. -1.
         -2   -1    0    0    0  501 -0.00000000000E+00 -0.00000000000E+00 -0.26540559501E+03  0.26540559501E+03  0.00000000000E+00 0.  1.
         23    2    1    2    0    0 -0.18824890744E+03 -0.33991243552E+03 -0.88673431293E+02  0.40896106601E+03  0.91695480365E+02 0.  0.
         13    1    3    3    0    0 -0.11558119674E+03 -0.13558630985E+03 -0.10627850573E+02  0.17848140426E+03  0.00000000000E+00 0. -1.
        -13    1    3    3    0    0 -0.72667710702E+02 -0.20432612567E+03 -0.78045580720E+02  0.23047966175E+03  0.00000000000E+00 0.  1.
         22    1    1    2    0    0  0.18824890744E+03  0.33991243552E+03  0.22587758109E+04  0.22919525036E+04  0.00000000000E+00 0. -1.
<mgrwt>
<rscale>  0 0.16079769E+04</rscale>
<asrwt>0</asrwt>
<pdfrwt beam="1">  1        2 0.37469352E+00 0.16079769E+04</pdfrwt>
<pdfrwt beam="2">  1       -2 0.40831632E-01 0.16079769E+04</pdfrwt>
<totfact> 0.20683432E+01</totfact>
</mgrwt>
</event>
<event>
 6    1  0.1588846E-005  0.2598361E+04  0.7818608E-02  0.8368758E-01
         -1   -1    0    0    0  501 -0.00000000000E+00  0.00000000000E+00  0.87838465408E+03  0.87838465408E+03  0.00000000000E+00 0.  1.
          1   -1    0    0  501    0  0.00000000000E+00 -0.00000000000E+00 -0.19215610276E+04  0.19215610276E+04  0.00000000000E+00 0. -1.
         23    2    1    2    0    0 -0.32235158443E+03 -0.80439800265E+03  0.51896671488E+03  0.10135365126E+04  0.83445315089E+02 0.  0.
         11    1    3    3    0    0 -0.18170690121E+03 -0.50716686699E+03  0.36282222956E+03  0.64951951409E+03  0.00000000000E+00 0.  1.
        -11    1    3    3    0    0 -0.14064468322E+03 -0.29723113566E+03  0.15614448531E+03  0.36401699853E+03  0.00000000000E+00 0. -1.
         22    1    1    2    0    0  0.32235158443E+03  0.80439800265E+03 -0.15621430884E+04  0.17864091691E+04  0.00000000000E+00 0. -1.
<mgrwt>
<rscale>  0 0.25983608E+04</rscale>
<asrwt>0</asrwt>
<pdfrwt beam="1">  1        1 0.29562477E+00 0.25983608E+04</pdfrwt>
<pdfrwt beam="2">  1       -1 0.13513610E+00 0.25983608E+04</pdfrwt>
<totfact> 0.13631921E+00</totfact>
</mgrwt>
</event>
<event>
 6    1  0.1588846E-005  0.5253080E+04  0.7818608E-02  0.7790611E-01
         -1   -1    0    0    0  501 -0.00000000000E+00  0.00000000000E+00  0.27284366423E+04  0.27284366423E+04  0.00000000000E+00 0.  1.
          1   -1    0    0  501    0  0.00000000000E+00 -0.00000000000E+00 -0.25284483283E+04  0.25284483283E+04  0.00000000000E+00 0. -1.
         23    2    1    2    0    0  0.69283389560E+03  0.83109253219E+03  0.24941871036E+04  0.27203358010E+04  0.92325286851E+02 0.  0.
         13    1    3    3    0    0  0.38538134190E+03  0.47487230377E+03  0.12956050534E+04  0.14326949913E+04  0.00000000000E+00 0.  1.
        -13    1    3    3    0    0  0.30745255371E+03  0.35622022842E+03  0.11985820502E+04  0.12876408097E+04  0.00000000000E+00 0. -1.
         22    1    1    2    0    0 -0.69283389560E+03 -0.83109253219E+03 -0.22941987896E+04  0.25365491696E+04  0.00000000000E+00 0. -1.
<mgrwt>
<rscale>  0 0.52530795E+04</rscale>
<asrwt>0</asrwt>
<pdfrwt beam="1">  1        1 0.38899205E+00 0.52530795E+04</pdfrwt>
<pdfrwt beam="2">  1       -1 0.41975948E+00 0.52530795E+04</pdfrwt>
<totfact> 0.48006211E-03</totfact>
</mgrwt>
</event>
<event>
 6    1  0.1588846E-005  0.1985066E+04  0.7818608E-02  0.8613635E-01
          2   -1    0    0  501    0  0.00000000000E+00  0.00000000000E+00  0.88000268085E+03  0.88000268085E+03  0.00000000000E+00 0. -1.
         -2   -1    0    0    0  501 -0.00000000000E+00 -0.00000000000E+00 -0.11194533374E+04  0.11194533374E+04  0.00000000000E+00 0.  1.
         23    2    1    2    0    0 -0.60825806912E+03  0.66679435922E+03  0.29094226957E+03  0.95259917407E+03  0.90582482204E+02 0.  0.
         13    1    3    3    0    0 -0.37552570775E+03  0.36336657409E+03  0.13565127950E+03  0.53986673724E+03  0.00000000000E+00 0. -1.
        -13    1    3    3    0    0 -0.23273236137E+03  0.30342778513E+03  0.15529099006E+03  0.41273243683E+03  0.00000000000E+00 0.  1.
         22    1    1    2    0    0  0.60825806912E+03 -0.66679435922E+03 -0.53039292610E+03  0.10468568442E+04  0.00000000000E+00 0. -1.
<mgrwt>
<rscale>  0 0.19850662E+04</rscale>
<asrwt>0</asrwt>
<pdfrwt beam="1">  1        2 0.13538503E+00 0.19850662E+04</pdfrwt>
<pdfrwt beam="2">  1       -2 0.17222359E+00 0.19850662E+04</pdfrwt>
<totfact> 0.57823929E+00</totfact>
</mgrwt>
</event>
<event>
 6    1  0.1588846E-005  0.2077279E+04  0.7818608E-02  0.8571319E-01
         -2   -1    0    0    0  501 -0.00000000000E+00  0.00000000000E+00  0.10974506746E+04  0.10974506746E+04  0.00000000000E+00 0.  1.
          2   -1    0    0  501    0  0.00000000000E+00 -0.00000000000E+00 -0.98297988043E+03  0.98297988043E+03  0.00000000000E+00 0. -1.
         23    2    1    2    0    0  0.46928323561E+03 -0.33084740666E+03 -0.80706780209E+03  0.99464966271E+03  0.91009629370E+02 0.  0.
         13    1    3    3    0    0  0.28413022851E+03 -0.22103415932E+03 -0.43332297876E+03  0.56334260469E+03  0.00000000000E+00 0.  1.
        -13    1    3    3    0    0  0.18515300711E+03 -0.10981324734E+03 -0.37374482333E+03  0.43130705802E+03  0.00000000000E+00 0. -1.
         22    1    1    2    0    0 -0.46928323561E+03  0.33084740666E+03  0.92153859625E+03  0.10857808923E+04  0.00000000000E+00 0.  1.
<mgrwt>
<rscale>  0 0.20772789E+04</rscale>
<asrwt>0</asrwt>
<pdfrwt beam="1">  1        2 0.15122767E+00 0.20772789E+04</pdfrwt>
<pdfrwt beam="2">  1       -2 0.16883856E+00 0.20772789E+04</pdfrwt>
<totfact> 0.51804985E+00</totfact>
</mgrwt>
</event>
<event>
 6    1  0.1588846E-005  0.2683102E+04  0.7818608E-02  0.8340509E-01
         -2   -1    0    0    0  501 -0.00000000000E+00  0.00000000000E+00  0.23230094459E+04  0.23230094459E+04  0.00000000000E+00 0.  1.
          2   -1    0    0  501    0  0.00000000000E+00 -0.00000000000E+00 -0.77475350904E+03  0.77475350904E+03  0.00000000000E+00 0. -1.
         23    2    1    2    0    0  0.54899081347E+03  0.10330510962E+04  0.15295885022E+04  0.19277484449E+04  0.89373376416E+02 0.  0.
         13    1    3    3    0    0  0.25511780752E+03  0.42048845605E+03  0.58667367438E+03  0.76555968912E+03  0.00000000000E+00 0. -1.
        -13    1    3    3    0    0  0.29387300596E+03  0.61256264010E+03  0.94291482777E+03  0.11621887558E+04  0.00000000000E+00 0.  1.
         22    1    1    2    0    0 -0.54899081347E+03 -0.10330510962E+04  0.18667434695E+02  0.11700145100E+04  0.00000000000E+00 0. -1.
<mgrwt>
<rscale>  0 0.26831025E+04</rscale>
<asrwt>0</asrwt>
<pdfrwt beam="1">  1        2 0.11919285E+00 0.26831025E+04</pdfrwt>
<pdfrwt beam="2">  1       -2 0.35738606E+00 0.26831025E+04</pdfrwt>
<totfact> 0.44118665E-01</totfact>
</mgrwt>
</event>
<event>
 6    1  0.1588846E-005  0.2440013E+04  0.7818608E-02  0.8424674E-01
          2   -1    0    0  501    0  0.00000000000E+00  0.00000000000E+00  0.25964577315E+04  0.25964577315E+04  0.00000000000E+00 0. -1.
         -2   -1    0    0    0  501 -0.00000000000E+00 -0.00000000000E+00 -0.57324852952E+03  0.57324852952E+03  0.00000000000E+00 0.  1.
         23    2    1    2    0    0  0.11646295394E+04 -0.31457444596E+03  0.79233280639E+03  0.14462284552E+04  0.92013164531E+02 0.  0.
         13    1    3    3    0    0  0.11126519413E+04 -0.30112853790E+03  0.73199699413E+03  0.13654641476E+04  0.00000000000E+00 0. -1.
        -13    1    3    3    0    0  0.51977598041E+02 -0.13445908052E+02  0.60335812259E+02  0.80764307602E+02  0.00000000000E+00 0.  1.
         22    1    1    2    0    0 -0.11646295394E+04  0.31457444596E+03  0.12308763956E+04  0.17234778058E+04  0.00000000000E+00 0. -1.
<mgrwt>
<rscale>  0 0.24400128E+04</rscale>
<asrwt>0</asrwt>
<pdfrwt beam="1">  1        2 0.39945503E+00 0.24400128E+04</pdfrwt>
<pdfrwt beam="2">  1       -2 0.88192083E-01 0.24400128E+04</pdfrwt>
<totfact> 0.30347473E+00</totfact>
</mgrwt>
</event>
<event>
 6    1  0.1588846E-005  0.5497263E+04  0.7818608E-02  0.7756066E-01
          2   -1    0    0  501    0  0.00000000000E+00  0.00000000000E+00  0.33214101268E+04  0.33214101268E+04  0.00000000000E+00 0. -1.
         -2   -1    0    0    0  501 -0.00000000000E+00 -0.00000000000E+00 -0.22746284981E+04  0.22746284981E+04  0.00000000000E+00 0.  1.
         23    2    1    2    0    0 -0.56798228706E+03 -0.99513879721E+03  0.30659960702E+04  0.32743728296E+04  0.90996815553E+02 0.  0.
         11    1    3    3    0    0 -0.15893567183E+03 -0.32866087490E+03  0.10758687542E+04  0.11361215141E+04  0.00000000000E+00 0. -1.
        -11    1    3    3    0    0 -0.40904661523E+03 -0.66647792231E+03  0.19901273160E+04  0.21382513155E+04  0.00000000000E+00 0.  1.
         22    1    1    2    0    0  0.56798228706E+03  0.99513879721E+03 -0.20192144415E+04  0.23216657952E+04  0.00000000000E+00 0.  1.
<mgrwt>
<rscale>  0 0.54972626E+04</rscale>
<asrwt>0</asrwt>
<pdfrwt beam="1">  1        2 0.51098617E+00 0.54972626E+04</pdfrwt>
<pdfrwt beam="2">  1       -2 0.34994285E+00 0.54972626E+04</pdfrwt>
<totfact> 0.11731604E-02</totfact>
</mgrwt>
</event>
<event>
 6    1  0.1588846E-005  0.3316221E+04  0.7818608E-02  0.8158780E-01
         -2   -1    0    0    0  501 -0.00000000000E+00  0.00000000000E+00  0.77068606183E+03  0.77068606183E+03  0.00000000000E+00 0.  1.
          2   -1    0    0  501    0  0.00000000000E+00 -0.00000000000E+00 -0.35673811194E+04  0.35673811194E+04  0.00000000000E+00 0. -1.
         23    2    1    2    0    0 -0.14881452592E+04 -0.72741513843E+03 -0.13452805326E+04  0.21357245150E+04  0.88489527055E+02 0.  0.
         13    1    3    3    0    0 -0.78574561293E+03 -0.41561586287E+03 -0.67786535724E+03  0.11178703665E+04  0.00000000000E+00 0. -1.
        -13    1    3    3    0    0 -0.70239964629E+03 -0.31179927556E+03 -0.66741517534E+03  0.10178541485E+04  0.00000000000E+00 0.  1.
         22    1    1    2    0    0  0.14881452592E+04  0.72741513843E+03 -0.14514145250E+04  0.22023426662E+04  0.00000000000E+00 0. -1.
<mgrwt>
<rscale>  0 0.33162213E+04</rscale>
<asrwt>0</asrwt>
<pdfrwt beam="1">  1        2 0.54882788E+00 0.33162213E+04</pdfrwt>
<pdfrwt beam="2">  1       -2 0.11856708E+00 0.33162213E+04</pdfrwt>
<totfact> 0.33194877E-01</totfact>
</mgrwt>
</event>
<event>
 6    1  0.1588846E-005  0.2006089E+04  0.7818608E-02  0.8603779E-01
          1   -1    0    0  501    0  0.00000000000E+00  0.00000000000E+00  0.11968083920E+04  0.11968083920E+04  0.00000000000E+00 0.  1.
         -1   -1    0    0    0  501 -0.00000000000E+00 -0.00000000000E+00 -0.84065121460E+03  0.84065121460E+03  0.00000000000E+00 0. -1.
         23    2    1    2    0    0 -0.19461211955E+03 -0.95082526311E+03  0.42749378651E+03  0.10643041874E+04  0.89721278298E+02 0.  0.
         11    1    3    3    0    0 -0.16130045608E+03 -0.78797907968E+03  0.39011729079E+03  0.89393532636E+03  0.00000000000E+00 0.  1.
        -11    1    3    3    0    0 -0.33311663467E+02 -0.16284618343E+03  0.37376495720E+02  0.17036886104E+03  0.00000000000E+00 0. -1.
         22    1    1    2    0    0  0.19461211955E+03  0.95082526311E+03 -0.71336609136E+02  0.97315541916E+03  0.00000000000E+00 0. -1.
<mgrwt>
<rscale>  0 0.20060892E+04</rscale>
<asrwt>0</asrwt>
<pdfrwt beam="1">  1        1 0.18412437E+00 0.20060892E+04</pdfrwt>
<pdfrwt beam="2">  1       -1 0.12933096E+00 0.20060892E+04</pdfrwt>
<totfact> 0.51183621E+00</totfact>
</mgrwt>
</event>
<event>
 6    1  0.2090784E-005  0.3005577E+04  0.7818608E-02  0.8242140E-01
          2   -1    0    0  501    0  0.00000000000E+00  0.00000000000E+00  0.27575993315E+04  0.27575993315E+04  0.00000000000E+00 0. -1.
         -2   -1    0    0    0  501 -0.00000000000E+00 -0.00000000000E+00 -0.81896344820E+03  0.81896344820E+03  0.00000000000E+00 0.  1.
         23    2    1    2    0    0 -0.14684232647E+04 -0.29451946120E+03  0.10964318587E+04  0.18583322316E+04  0.90704271393E+02 0.  0.
         13    1    3    3    0    0 -0.94510537812E+03 -0.15424788683E+03  0.66727837985E+03  0.11671662360E+04  0.00000000000E+00 0. -1.
        -13    1    3    3    0    0 -0.52331788660E+03 -0.14027157436E+03  0.42915347885E+03  0.69116599556E+03  0.00000000000E+00 0.  1.
         22    1    1    2    0    0  0.14684232647E+04  0.29451946120E+03  0.84220402463E+03  0.17182305481E+04  0.00000000000E+00 0.  1.
<mgrwt>
<rscale>  0 0.30055769E+04</rscale>
<asrwt>0</asrwt>
<pdfrwt beam="1">  1        2 0.42424605E+00 0.30055769E+04</pdfrwt>
<pdfrwt beam="2">  1       -2 0.12599438E+00 0.30055769E+04</pdfrwt>
<totfact> 0.98600233E-01</totfact>
</mgrwt>
</event>
<event>
 6    1  0.1588846E-005  0.2545716E+04  0.7818608E-02  0.8386878E-01
          2   -1    0    0  501    0  0.00000000000E+00  0.00000000000E+00  0.21166114511E+04  0.21166114511E+04  0.00000000000E+00 0.  1.
         -2   -1    0    0    0  501 -0.00000000000E+00 -0.00000000000E+00 -0.76545352077E+03  0.76545352077E+03  0.00000000000E+00 0. -1.
         23    2    1    2    0    0 -0.26626860184E+03  0.13594886587E+03  0.20751454185E+04  0.20987777030E+04  0.96219937840E+02 0.  0.
         13    1    3    3    0    0 -0.15894487523E+03  0.27181875470E+02  0.10753951255E+04  0.10874175848E+04  0.00000000000E+00 0.  1.
        -13    1    3    3    0    0 -0.10732372661E+03  0.10876699040E+03  0.99975029294E+03  0.10113601182E+04  0.00000000000E+00 0. -1.
         22    1    1    2    0    0  0.26626860184E+03 -0.13594886587E+03 -0.72398748818E+03  0.78328726882E+03  0.00000000000E+00 0. -1.
<mgrwt>
<rscale>  0 0.25457162E+04</rscale>
<asrwt>0</asrwt>
<pdfrwt beam="1">  1        2 0.32563253E+00 0.25457162E+04</pdfrwt>
<pdfrwt beam="2">  1       -2 0.11776208E+00 0.25457162E+04</pdfrwt>
<totfact> 0.28429460E+00</totfact>
</mgrwt>
</event>
<event>
 6    1  0.1588846E-005  0.1996036E+04  0.7818608E-02  0.8608476E-01
         -1   -1    0    0    0  501 -0.00000000000E+00  0.00000000000E+00  0.85498690065E+03  0.85498690065E+03  0.00000000000E+00 0.  1.
          1   -1    0    0  501    0  0.00000000000E+00 -0.00000000000E+00 -0.11649767990E+04  0.11649767990E+04  0.00000000000E+00 0. -1.
         23    2    1    2    0    0  0.21065933099E+03  0.83382116128E+02 -0.11368235041E+04  0.11626517712E+04  0.89786026022E+02 0.  0.
         11    1    3    3    0    0  0.51928976408E+02  0.63302359715E+02 -0.45495988397E+03  0.46226864847E+03  0.00000000000E+00 0. -1.
        -11    1    3    3    0    0  0.15873035458E+03  0.20079756413E+02 -0.68186362017E+03  0.70038312272E+03  0.00000000000E+00 0.  1.
         22    1    1    2    0    0 -0.21065933099E+03 -0.83382116128E+02  0.82683360579E+03  0.85731192846E+03  0.00000000000E+00 0.  1.
<mgrwt>
<rscale>  0 0.19960360E+04</rscale>
<asrwt>0</asrwt>
<pdfrwt beam="1">  1        1 0.17922720E+00 0.19960360E+04</pdfrwt>
<pdfrwt beam="2">  1       -1 0.13153645E+00 0.19960360E+04</pdfrwt>
<totfact> 0.51801091E+00</totfact>
</mgrwt>
</event>
<event>
 6    1  0.1588846E-005  0.1594749E+04  0.7818608E-02  0.8823780E-01
         -2   -1    0    0    0  501 -0.00000000000E+00  0.00000000000E+00  0.30455717134E+03  0.30455717134E+03  0.00000000000E+00 0.  1.
          2   -1    0    0  501    0  0.00000000000E+00 -0.00000000000E+00 -0.20876413468E+04  0.20876413468E+04  0.00000000000E+00 0. -1.
         23    2    1    2    0    0 -0.40894611498E+03 -0.25373135591E+03 -0.18431862021E+04  0.19071946218E+04  0.91866336602E+02 0.  0.
         11    1    3    3    0    0 -0.20297470263E+03 -0.11115473726E+03 -0.71443728130E+03  0.75098251273E+03  0.00000000000E+00 0. -1.
        -11    1    3    3    0    0 -0.20597141235E+03 -0.14257661865E+03 -0.11287489208E+04  0.11562121090E+04  0.00000000000E+00 0.  1.
         22    1    1    2    0    0  0.40894611498E+03  0.25373135591E+03  0.60102026587E+02  0.48500389641E+03  0.00000000000E+00 0.  1.
<mgrwt>
<rscale>  0 0.15947491E+04</rscale>
<asrwt>0</asrwt>
<pdfrwt beam="1">  1        2 0.32117559E+00 0.15947491E+04</pdfrwt>
<pdfrwt beam="2">  1       -2 0.46854950E-01 0.15947491E+04</pdfrwt>
<totfact> 0.24740286E+01</totfact>
</mgrwt>
</event>
<event>
 6    1  0.1588846E-005  0.7466167E+03  0.7818608E-02  0.9640673E-01
          1   -1    0    0  501    0  0.00000000000E+00  0.00000000000E+00  0.65080068011E+03  0.65080068011E+03  0.00000000000E+00 0.  1.
         -1   -1    0    0    0  501 -0.00000000000E+00 -0.00000000000E+00 -0.21413489263E+03  0.21413489263E+03  0.00000000000E+00 0. -1.
         23    2    1    2    0    0  0.23555125120E+03  0.25483622117E+03  0.80636088109E+02  0.36776051464E+03  0.91212531277E+02 0.  0.
         13    1    3    3    0    0  0.99905098222E+02  0.15873984540E+03  0.73258888599E+02  0.20136094936E+03  0.00000000000E+00 0. -1.
        -13    1    3    3    0    0  0.13564615297E+03  0.96096375773E+02  0.73771995098E+01  0.16639956528E+03  0.00000000000E+00 0.  1.
         22    1    1    2    0    0 -0.23555125120E+03 -0.25483622117E+03  0.35602969937E+03  0.49717505810E+03  0.00000000000E+00 0. -1.
<mgrwt>
<rscale>  0 0.74661673E+03</rscale>
<asrwt>0</asrwt>
<pdfrwt beam="1">  1        1 0.10012318E+00 0.74661673E+03</pdfrwt>
<pdfrwt beam="2">  1       -1 0.32943830E-01 0.74661673E+03</pdfrwt>
<totfact> 0.26580261E+02</totfact>
</mgrwt>
</event>
<event>
 6    1  0.1588846E-005  0.1054908E+04  0.7818608E-02  0.9250291E-01
          2   -1    0    0  501    0  0.00000000000E+00  0.00000000000E+00  0.14567444169E+04  0.14567444169E+04  0.00000000000E+00 0.  1.
         -2   -1    0    0    0  501 -0.00000000000E+00 -0.00000000000E+00 -0.19097914893E+03  0.19097914893E+03  0.00000000000E+00 0. -1.
         23    2    1    2    0    0 -0.42911509336E+03  0.27769522013E+03  0.46004763399E+03  0.69355623023E+03  0.90122252080E+02 0.  0.
         11    1    3    3    0    0 -0.24860798796E+03  0.10747893498E+03  0.23470093732E+03  0.35838831332E+03  0.00000000000E+00 0. -1.
        -11    1    3    3    0    0 -0.18050710540E+03  0.17021628515E+03  0.22534669667E+03  0.33516791691E+03  0.00000000000E+00 0.  1.
         22    1    1    2    0    0  0.42911509336E+03 -0.27769522013E+03  0.80571763394E+03  0.95416733557E+03  0.00000000000E+00 0.  1.
<mgrwt>
<rscale>  0 0.10549082E+04</rscale>
<asrwt>0</asrwt>
<pdfrwt beam="1">  1        2 0.22411452E+00 0.10549082E+04</pdfrwt>
<pdfrwt beam="2">  1       -2 0.29381408E-01 0.10549082E+04</pdfrwt>
<totfact> 0.14239555E+02</totfact>
</mgrwt>
</event>
<event>
 6    1  0.1588846E-005  0.1650602E+04  0.7818608E-02  0.8790051E-01
          2   -1    0    0  501    0  0.00000000000E+00  0.00000000000E+00  0.14632147072E+04  0.14632147072E+04  0.00000000000E+00 0. -1.
         -2   -1    0    0    0  501 -0.00000000000E+00 -0.00000000000E+00 -0.46549667249E+03  0.46549667249E+03  0.00000000000E+00 0.  1.
         23    2    1    2    0    0 -0.14139612314E+03  0.45382210146E+03 -0.28435762329E+03  0.56135430993E+03  0.91170389624E+02 0.  0.
         13    1    3    3    0    0 -0.15182360733E+03  0.37845632266E+03 -0.24460286075E+03  0.47551041565E+03  0.00000000000E+00 0.  1.
        -13    1    3    3    0    0  0.10427484196E+02  0.75365778800E+02 -0.39754762535E+02  0.85843894279E+02  0.00000000000E+00 0. -1.
         22    1    1    2    0    0  0.14139612314E+03 -0.45382210146E+03  0.12820756580E+04  0.13673570698E+04  0.00000000000E+00 0. -1.
<mgrwt>
<rscale>  0 0.16506018E+04</rscale>
<asrwt>0</asrwt>
<pdfrwt beam="1">  1        2 0.22510995E+00 0.16506018E+04</pdfrwt>
<pdfrwt beam="2">  1       -2 0.71614874E-01 0.16506018E+04</pdfrwt>
<totfact> 0.22493713E+01</totfact>
</mgrwt>
</event>
<event>
 6    1  0.1588846E-005  0.2540654E+04  0.7818608E-02  0.8388644E-01
          1   -1    0    0  501    0  0.00000000000E+00  0.00000000000E+00  0.12454811559E+04  0.12454811559E+04  0.00000000000E+00 0. -1.
         -1   -1    0    0    0  501 -0.00000000000E+00 -0.00000000000E+00 -0.12956689436E+04  0.12956689436E+04  0.00000000000E+00 0.  1.
         23    2    1    2    0    0  0.14971818007E+02 -0.25184855074E+03  0.12184969101E+04  0.12476228635E+04  0.90422573803E+02 0.  0.
         11    1    3    3    0    0 -0.60347892702E+01 -0.20115225022E+03  0.10811317336E+04  0.10997019923E+04  0.00000000000E+00 0. -1.
        -11    1    3    3    0    0  0.21006607278E+02 -0.50696300528E+02  0.13736517653E+03  0.14792087128E+03  0.00000000000E+00 0.  1.
         22    1    1    2    0    0 -0.14971818007E+02  0.25184855074E+03 -0.12686846978E+04  0.12935272360E+04  0.00000000000E+00 0.  1.
<mgrwt>
<rscale>  0 0.25406544E+04</rscale>
<asrwt>0</asrwt>
<pdfrwt beam="1">  1        1 0.19161249E+00 0.25406544E+04</pdfrwt>
<pdfrwt beam="2">  1       -1 0.19933368E+00 0.25406544E+04</pdfrwt>
<totfact> 0.13333106E+00</totfact>
</mgrwt>
</event>
<event>
 6    1  0.2079344E-005  0.3299421E+04  0.7818608E-02  0.8163043E-01
         -2   -1    0    0    0  501 -0.00000000000E+00  0.00000000000E+00  0.16596416384E+04  0.16596416384E+04  0.00000000000E+00 0.  1.
          2   -1    0    0  501    0  0.00000000000E+00 -0.00000000000E+00 -0.16398392695E+04  0.16398392695E+04  0.00000000000E+00 0. -1.
         23    2    1    2    0    0 -0.29590270144E+03  0.16178002653E+04  0.12235701980E+03  0.16516479177E+04  0.90185899175E+02 0.  0.
         11    1    3    3    0    0 -0.12216991629E+03  0.76251354965E+03  0.99233556465E+02  0.77858827410E+03  0.00000000000E+00 0.  1.
        -11    1    3    3    0    0 -0.17373278515E+03  0.85528671568E+03  0.23123463338E+02  0.87305964356E+03  0.00000000000E+00 0. -1.
         22    1    1    2    0    0  0.29590270144E+03 -0.16178002653E+04 -0.10255465090E+03  0.16478329902E+04  0.00000000000E+00 0.  1.
<mgrwt>
<rscale>  0 0.32994215E+04</rscale>
<asrwt>0</asrwt>
<pdfrwt beam="1">  1        2 0.25228296E+00 0.32994215E+04</pdfrwt>
<pdfrwt beam="2">  1       -2 0.25532948E+00 0.32994215E+04</pdfrwt>
<totfact> 0.52735153E-01</totfact>
</mgrwt>
</event>
<event>
 6    1  0.1588846E-005  0.1936519E+04  0.7818608E-02  0.8636889E-01
         -1   -1    0    0    0  501 -0.00000000000E+00  0.00000000000E+00  0.70524779878E+03  0.70524779878E+03  0.00000000000E+00 0.  1.
          1   -1    0    0  501    0  0.00000000000E+00 -0.00000000000E+00 -0.13293574187E+04  0.13293574187E+04  0.00000000000E+00 0. -1.
         23    2    1    2    0    0 -0.33164738487E+03 -0.58497291262E+03  0.41606402701E+03  0.79599934305E+03  0.91227096677E+02 0.  0.
         11    1    3    3    0    0 -0.19604122222E+03 -0.25722537673E+03  0.21367142765E+03  0.38762421782E+03  0.00000000000E+00 0.  1.
        -11    1    3    3    0    0 -0.13560616265E+03 -0.32774753589E+03  0.20239259935E+03  0.40837512523E+03  0.00000000000E+00 0. -1.
         22    1    1    2    0    0  0.33164738487E+03  0.58497291262E+03 -0.10401736469E+04  0.12386058744E+04  0.00000000000E+00 0. -1.
<mgrwt>
<rscale>  0 0.19365189E+04</rscale>
<asrwt>0</asrwt>
<pdfrwt beam="1">  1        1 0.20451653E+00 0.19365189E+04</pdfrwt>
<pdfrwt beam="2">  1       -1 0.10849966E+00 0.19365189E+04</pdfrwt>
<totfact> 0.63382828E+00</totfact>
</mgrwt>
</event>
<event>
 6    1  0.1588846E-005  0.1944229E+04  0.7818608E-02  0.8633149E-01
          2   -1    0    0  501    0  0.00000000000E+00  0.00000000000E+00  0.47786115420E+03  0.47786115420E+03  0.00000000000E+00 0.  1.
         -2   -1    0    0    0  501 -0.00000000000E+00 -0.00000000000E+00 -0.19775759930E+04  0.19775759930E+04  0.00000000000E+00 0. -1.
         23    2    1    2    0    0  0.27504739873E+03 -0.15767721373E+03 -0.19092690524E+04  0.19375106765E+04  0.90145060002E+02 0.  0.
         11    1    3    3    0    0  0.13093174618E+03 -0.71631077879E+02 -0.11667459391E+04  0.11762526174E+04  0.00000000000E+00 0. -1.
        -11    1    3    3    0    0  0.14411565255E+03 -0.86046135848E+02 -0.74252311323E+03  0.76125805907E+03  0.00000000000E+00 0.  1.
         22    1    1    2    0    0 -0.27504739873E+03  0.15767721373E+03  0.40955421354E+03  0.51792647075E+03  0.00000000000E+00 0.  1.
<mgrwt>
<rscale>  0 0.19442291E+04</rscale>
<asrwt>0</asrwt>
<pdfrwt beam="1">  1        2 0.73517102E-01 0.19442291E+04</pdfrwt>
<pdfrwt beam="2">  1       -2 0.30424246E+00 0.19442291E+04</pdfrwt>
<totfact> 0.18156707E+00</totfact>
</mgrwt>
</event>
<event>
 6    1  0.1588846E-005  0.2707651E+04  0.7818608E-02  0.8332527E-01
         -2   -1    0    0    0  501 -0.00000000000E+00  0.00000000000E+00  0.16758053530E+04  0.16758053530E+04  0.00000000000E+00 0.  1.
          2   -1    0    0  501    0  0.00000000000E+00 -0.00000000000E+00 -0.10937086779E+04  0.10937086779E+04  0.00000000000E+00 0. -1.
         23    2    1    2    0    0 -0.10340458929E+03  0.10457478916E+04  0.11619815891E+04  0.15692858544E+04  0.90419675088E+02 0.  0.
         13    1    3    3    0    0 -0.11697896201E+03  0.94698390305E+03  0.10327631260E+04  0.14060804616E+04  0.00000000000E+00 0.  1.
        -13    1    3    3    0    0  0.13574372717E+02  0.98763988558E+02  0.12921846315E+03  0.16320539284E+03  0.00000000000E+00 0. -1.
         22    1    1    2    0    0  0.10340458929E+03 -0.10457478916E+04 -0.57988491405E+03  0.12002281764E+04  0.00000000000E+00 0. -1.
<mgrwt>
<rscale>  0 0.27076505E+04</rscale>
<asrwt>0</asrwt>
<pdfrwt beam="1">  1        2 0.16826287E+00 0.27076505E+04</pdfrwt>
<pdfrwt beam="2">  1       -2 0.25781621E+00 0.27076505E+04</pdfrwt>
<totfact> 0.11088696E+00</totfact>
</mgrwt>
</event>
<event>
 6    1  0.1588846E-005  0.1312545E+04  0.7818608E-02  0.9019675E-01
          2   -1    0    0  501    0  0.00000000000E+00  0.00000000000E+00  0.10962182365E+04  0.10962182365E+04  0.00000000000E+00 0. -1.
         -2   -1    0    0    0  501 -0.00000000000E+00 -0.00000000000E+00 -0.39289051302E+03  0.39289051302E+03  0.00000000000E+00 0.  1.
         23    2    1    2    0    0  0.17294750043E+03  0.45061732651E+03  0.85246680353E+03  0.98392632894E+03  0.91894269622E+02 0.  0.
         11    1    3    3    0    0  0.11110959966E+03  0.23623091912E+03  0.54205176523E+03  0.60163984782E+03  0.00000000000E+00 0. -1.
        -11    1    3    3    0    0  0.61837900769E+02  0.21438640739E+03  0.31041503830E+03  0.38228648112E+03  0.00000000000E+00 0.  1.
         22    1    1    2    0    0 -0.17294750043E+03 -0.45061732651E+03 -0.14913908005E+03  0.50518242058E+03  0.00000000000E+00 0.  1.
<mgrwt>
<rscale>  0 0.13125452E+04</rscale>
<asrwt>0</asrwt>
<pdfrwt beam="1">  1        2 0.16864896E+00 0.13125452E+04</pdfrwt>
<pdfrwt beam="2">  1       -2 0.60444695E-01 0.13125452E+04</pdfrwt>
<totfact> 0.54697579E+01</totfact>
</mgrwt>
</event>
<event>
 6    1  0.2123752E-005  0.2693254E+04  0.7818608E-02  0.8337197E-01
         -1   -1    0    0    0  501 -0.00000000000E+00  0.00000000000E+00  0.86684557382E+03  0.86684557382E+03  0.00000000000E+00 0.  1.
          1   -1    0    0  501    0  0.00000000000E+00 -0.00000000000E+00 -0.20919583160E+04  0.20919583160E+04  0.00000000000E+00 0. -1.
         23    2    1    2    0    0 -0.19984560554E+02  0.42598608485E+03  0.78826914121E+03  0.90075380892E+03  0.90142432564E+02 0.  0.
         11    1    3    3    0    0 -0.17922390621E+02  0.85662111000E+02  0.23984390325E+03  0.25531217612E+03  0.00000000000E+00 0. -1.
        -11    1    3    3    0    0 -0.20621699323E+01  0.34032397385E+03  0.54842523796E+03  0.64544163280E+03  0.00000000000E+00 0.  1.
         22    1    1    2    0    0  0.19984560554E+02 -0.42598608485E+03 -0.20133818834E+04  0.20580500809E+04  0.00000000000E+00 0. -1.
<mgrwt>
<rscale>  0 0.26932544E+04</rscale>
<asrwt>0</asrwt>
<pdfrwt beam="1">  1        1 0.32183974E+00 0.26932544E+04</pdfrwt>
<pdfrwt beam="2">  1       -1 0.13336086E+00 0.26932544E+04</pdfrwt>
<totfact> 0.10714059E+00</totfact>
</mgrwt>
</event>
<event>
 6    1  0.1588846E-005  0.3239199E+04  0.7818608E-02  0.8178541E-01
         -2   -1    0    0    0  501 -0.00000000000E+00  0.00000000000E+00  0.23699454480E+04  0.23699454480E+04  0.00000000000E+00 0.  1.
          2   -1    0    0  501    0  0.00000000000E+00 -0.00000000000E+00 -0.11068199122E+04  0.11068199122E+04  0.00000000000E+00 0. -1.
         23    2    1    2    0    0 -0.14320215747E+04 -0.38639564133E+02  0.14397804475E+04  0.20333715248E+04  0.97227642467E+02 0.  0.
         13    1    3    3    0    0 -0.27639015840E+03 -0.12408030881E+02  0.33402050627E+03  0.43372246599E+03  0.00000000000E+00 0.  1.
        -13    1    3    3    0    0 -0.11556314163E+04 -0.26231533252E+02  0.11057599412E+04  0.15996490588E+04  0.00000000000E+00 0. -1.
         22    1    1    2    0    0  0.14320215747E+04  0.38639564133E+02 -0.17665491172E+03  0.14433938354E+04  0.00000000000E+00 0. -1.
<mgrwt>
<rscale>  0 0.32391992E+04</rscale>
<asrwt>0</asrwt>
<pdfrwt beam="1">  1        2 0.17027999E+00 0.32391992E+04</pdfrwt>
<pdfrwt beam="2">  1       -2 0.36460699E+00 0.32391992E+04</pdfrwt>
<totfact> 0.22749898E-01</totfact>
</mgrwt>
</event>
<event>
 6    1  0.1588846E-005  0.4063198E+04  0.7818608E-02  0.7991917E-01
         -2   -1    0    0    0  501 -0.00000000000E+00  0.00000000000E+00  0.17608604467E+04  0.17608604467E+04  0.00000000000E+00 0.  1.
          2   -1    0    0  501    0  0.00000000000E+00 -0.00000000000E+00 -0.23439646304E+04  0.23439646304E+04  0.00000000000E+00 0. -1.
         23    2    1    2    0    0  0.15562861419E+04 -0.87818271521E+03  0.68251470656E+03  0.19150710699E+04  0.91866432189E+02 0.  0.
         11    1    3    3    0    0  0.16703338076E+03 -0.64022915113E+02  0.59786304180E+02  0.18860934790E+03  0.00000000000E+00 0. -1.
        -11    1    3    3    0    0  0.13892527612E+04 -0.81415980010E+03  0.62272840238E+03  0.17264617220E+04  0.00000000000E+00 0.  1.
         22    1    1    2    0    0 -0.15562861419E+04  0.87818271521E+03 -0.12656188902E+04  0.21897540072E+04  0.00000000000E+00 0. -1.
<mgrwt>
<rscale>  0 0.40631981E+04</rscale>
<asrwt>0</asrwt>
<pdfrwt beam="1">  1        2 0.36060994E+00 0.40631981E+04</pdfrwt>
<pdfrwt beam="2">  1       -2 0.27090161E+00 0.40631981E+04</pdfrwt>
<totfact> 0.16076592E-01</totfact>
</mgrwt>
</event>
<event>
 6    1  0.1588846E-005  0.2637383E+04  0.7818608E-02  0.8355613E-01
         -2   -1    0    0    0  501 -0.00000000000E+00  0.00000000000E+00  0.42850610623E+03  0.42850610623E+03  0.00000000000E+00 0. -1.
          2   -1    0    0  501    0  0.00000000000E+00 -0.00000000000E+00 -0.40581631010E+04  0.40581631010E+04  0.00000000000E+00 0.  1.
         23    2    1    2    0    0 -0.11221671042E+04 -0.52912019137E+03 -0.10670198611E+04  0.16395063623E+04  0.10110658403E+03 0.  0.
         11    1    3    3    0    0 -0.22473377130E+03 -0.93214286295E+02 -0.26188204436E+03  0.35745821614E+03  0.00000000000E+00 0. -1.
        -11    1    3    3    0    0 -0.89743333291E+03 -0.43590590507E+03 -0.80513781674E+03  0.12820481461E+04  0.00000000000E+00 0.  1.
         22    1    1    2    0    0  0.11221671042E+04  0.52912019137E+03 -0.25626371337E+04  0.28471628450E+04  0.00000000000E+00 0.  1.
<mgrwt>
<rscale>  0 0.26373833E+04</rscale>
<asrwt>0</asrwt>
<pdfrwt beam="1">  1        2 0.62433276E+00 0.26373833E+04</pdfrwt>
<pdfrwt beam="2">  1       -2 0.65924019E-01 0.26373833E+04</pdfrwt>
<totfact> 0.57387626E-01</totfact>
</mgrwt>
</event>
<event>
 6    1  0.1588846E-005  0.2609266E+04  0.7818608E-02  0.8365060E-01
         -2   -1    0    0    0  501 -0.00000000000E+00  0.00000000000E+00  0.14574282186E+04  0.14574282186E+04  0.00000000000E+00 0.  1.
          2   -1    0    0  501    0  0.00000000000E+00 -0.00000000000E+00 -0.11678568870E+04  0.11678568870E+04  0.00000000000E+00 0. -1.
         23    2    1    2    0    0 -0.11468528923E+04 -0.38973894224E+03  0.62820491488E+03  0.13675726173E+04  0.91899123849E+02 0.  0.
         11    1    3    3    0    0 -0.39591937302E+03 -0.94031829804E+02  0.23349336980E+03  0.46916232659E+03  0.00000000000E+00 0. -1.
        -11    1    3    3    0    0 -0.75093351925E+03 -0.29570711244E+03  0.39471154508E+03  0.89841029074E+03  0.00000000000E+00 0.  1.
         22    1    1    2    0    0  0.11468528923E+04  0.38973894224E+03 -0.33863358328E+03  0.12577124883E+04  0.00000000000E+00 0. -1.
<mgrwt>
<rscale>  0 0.26092662E+04</rscale>
<asrwt>0</asrwt>
<pdfrwt beam="1">  1        2 0.17967029E+00 0.26092662E+04</pdfrwt>
<pdfrwt beam="2">  1       -2 0.22421973E+00 0.26092662E+04</pdfrwt>
<totfact> 0.16268525E+00</totfact>
</mgrwt>
</event>
<event>
 6    1  0.1588846E-005  0.9763702E+03  0.7818608E-02  0.9334848E-01
          1   -1    0    0  501    0  0.00000000000E+00  0.00000000000E+00  0.77895058373E+03  0.77895058373E+03  0.00000000000E+00 0. -1.
         -1   -1    0    0    0  501 -0.00000000000E+00 -0.00000000000E+00 -0.30595613768E+03  0.30595613768E+03  0.00000000000E+00 0.  1.
         23    2    1    2    0    0 -0.13404093334E+03 -0.58443148607E+02 -0.27407677063E+03  0.32365907692E+03  0.90854545531E+02 0.  0.
         11    1    3    3    0    0 -0.66757498179E+02 -0.30375585534E+02 -0.22271347041E+03  0.23447927342E+03  0.00000000000E+00 0.  1.
        -11    1    3    3    0    0 -0.67283435156E+02 -0.28067563073E+02 -0.51363300224E+02  0.89179803505E+02  0.00000000000E+00 0. -1.
         22    1    1    2    0    0  0.13404093334E+03  0.58443148607E+02  0.74707121669E+03  0.76124764448E+03  0.00000000000E+00 0. -1.
<mgrwt>
<rscale>  0 0.97637024E+03</rscale>
<asrwt>0</asrwt>
<pdfrwt beam="1">  1        1 0.11983855E+00 0.97637024E+03</pdfrwt>
<pdfrwt beam="2">  1       -1 0.47070175E-01 0.97637024E+03</pdfrwt>
<totfact> 0.10420048E+02</totfact>
</mgrwt>
</event>
<event>
 6    1  0.1588846E-005  0.3106031E+04  0.7818608E-02  0.8214085E-01
          2   -1    0    0  501    0  0.00000000000E+00  0.00000000000E+00  0.39495061240E+04  0.39495061240E+04  0.00000000000E+00 0. -1.
         -2   -1    0    0    0  501 -0.00000000000E+00 -0.00000000000E+00 -0.61067318321E+03  0.61067318321E+03  0.00000000000E+00 0.  1.
         23    2    1    2    0    0  0.25675214863E+02  0.10018627654E+04  0.34099713620E+04  0.35554659689E+04  0.95107039155E+02 0.  0.
         13    1    3    3    0    0 -0.11438550769E+02  0.22938409059E+03  0.91487900558E+03  0.94326639732E+03  0.00000000000E+00 0. -1.
        -13    1    3    3    0    0  0.37113765631E+02  0.77247867478E+03  0.24950923564E+04  0.26121995716E+04  0.00000000000E+00 0.  1.
         22    1    1    2    0    0 -0.25675214863E+02 -0.10018627654E+04 -0.71138421189E+02  0.10047133383E+04  0.00000000000E+00 0.  1.
<mgrwt>
<rscale>  0 0.31060312E+04</rscale>
<asrwt>0</asrwt>
<pdfrwt beam="1">  1        2 0.60761631E+00 0.31060312E+04</pdfrwt>
<pdfrwt beam="2">  1       -2 0.93949723E-01 0.31060312E+04</pdfrwt>
<totfact> 0.30454182E-01</totfact>
</mgrwt>
</event>
<event>
 6    1  0.1588846E-005  0.2825891E+04  0.7818608E-02  0.8295275E-01
         -2   -1    0    0    0  501 -0.00000000000E+00  0.00000000000E+00  0.16360656970E+04  0.16360656970E+04  0.00000000000E+00 0.  1.
          2   -1    0    0  501    0  0.00000000000E+00 -0.00000000000E+00 -0.12202534460E+04  0.12202534460E+04  0.00000000000E+00 0. -1.
         23    2    1    2    0    0  0.62687602818E+01  0.99493650027E+03 -0.80387535652E+03  0.12822874416E+04  0.90041974499E+02 0.  0.
         13    1    3    3    0    0  0.24392899204E+02  0.84996766590E+03 -0.65169418292E+03  0.10713287799E+04  0.00000000000E+00 0.  1.
        -13    1    3    3    0    0 -0.18124138922E+02  0.14496883438E+03 -0.15218117360E+03  0.21095866171E+03  0.00000000000E+00 0. -1.
         22    1    1    2    0    0 -0.62687602818E+01 -0.99493650027E+03  0.12196876075E+04  0.15740317014E+04  0.00000000000E+00 0.  1.
<mgrwt>
<rscale>  0 0.28258909E+04</rscale>
<asrwt>0</asrwt>
<pdfrwt beam="1">  1        2 0.18773130E+00 0.28258909E+04</pdfrwt>
<pdfrwt beam="2">  1       -2 0.25170241E+00 0.28258909E+04</pdfrwt>
<totfact> 0.10033664E+00</totfact>
</mgrwt>
</event>
<event>
 6    1  0.1588846E-005  0.1893766E+04  0.7818608E-02  0.8657966E-01
          2   -1    0    0  501    0  0.00000000000E+00  0.00000000000E+00  0.26332041517E+04  0.26332041517E+04  0.00000000000E+00 0. -1.
         -2   -1    0    0    0  501 -0.00000000000E+00 -0.00000000000E+00 -0.34049290957E+03  0.34049290957E+03  0.00000000000E+00 0.  1.
         23    2    1    2    0    0 -0.25287367072E+03 -0.77517521045E+03  0.39988121254E+03  0.91271496015E+03  0.91114840197E+02 0.  0.
         13    1    3    3    0    0 -0.26546390576E+02 -0.20420786289E+03  0.11185963414E+03  0.23434619662E+03  0.00000000000E+00 0.  1.
        -13    1    3    3    0    0 -0.22632728015E+03 -0.57096734755E+03  0.28802157841E+03  0.67836876353E+03  0.00000000000E+00 0. -1.
         22    1    1    2    0    0  0.25287367072E+03  0.77517521045E+03  0.18928300296E+04  0.20609821012E+04  0.00000000000E+00 0. -1.
<mgrwt>
<rscale>  0 0.18937659E+04</rscale>
<asrwt>0</asrwt>
<pdfrwt beam="1">  1        2 0.40510832E+00 0.18937659E+04</pdfrwt>
<pdfrwt beam="2">  1       -2 0.52383526E-01 0.18937659E+04</pdfrwt>
<totfact> 0.93879582E+00</totfact>
</mgrwt>
</event>
<event>
 6    1  0.1588846E-005  0.1804941E+04  0.7818608E-02  0.8703676E-01
         -1   -1    0    0    0  501 -0.00000000000E+00  0.00000000000E+00  0.12623182020E+04  0.12623182020E+04  0.00000000000E+00 0. -1.
          1   -1    0    0  501    0  0.00000000000E+00 -0.00000000000E+00 -0.64520399892E+03  0.64520399892E+03  0.00000000000E+00 0.  1.
         23    2    1    2    0    0  0.72113121671E+03 -0.35575289717E+03 -0.11769972826E+03  0.81823717429E+03  0.95228629081E+02 0.  0.
         13    1    3    3    0    0  0.22853705652E+03 -0.15935655081E+03 -0.58018232644E+02  0.28458709003E+03  0.00000000000E+00 0.  1.
        -13    1    3    3    0    0  0.49259416019E+03 -0.19639634636E+03 -0.59681495617E+02  0.53365008426E+03  0.00000000000E+00 0. -1.
         22    1    1    2    0    0 -0.72113121671E+03  0.35575289717E+03  0.73481393138E+03  0.10892850267E+04  0.00000000000E+00 0. -1.
<mgrwt>
<rscale>  0 0.18049407E+04</rscale>
<asrwt>0</asrwt>
<pdfrwt beam="1">  1        1 0.99262154E-01 0.18049407E+04</pdfrwt>
<pdfrwt beam="2">  1       -1 0.19420280E+00 0.18049407E+04</pdfrwt>
<totfact> 0.47949665E+00</totfact>
</mgrwt>
</event>
<event>
 6    1  0.1588846E-005  0.1134703E+04  0.7818608E-02  0.9172012E-01
         -2   -1    0    0    0  501 -0.00000000000E+00  0.00000000000E+00  0.34443057190E+03  0.34443057190E+03  0.00000000000E+00 0.  1.
          2   -1    0    0  501    0  0.00000000000E+00 -0.00000000000E+00 -0.93455103157E+03  0.93455103157E+03  0.00000000000E+00 0. -1.
         23    2    1    2    0    0 -0.41802796393E+03  0.37633355831E+03 -0.25450527702E+03  0.62399162143E+03  0.90654739790E+02 0.  0.
         13    1    3    3    0    0 -0.26624070517E+03  0.25138733143E+03 -0.11823929924E+03  0.38478596047E+03  0.00000000000E+00 0. -1.
        -13    1    3    3    0    0 -0.15178725877E+03  0.12494622688E+03 -0.13626597778E+03  0.23920566096E+03  0.00000000000E+00 0.  1.
         22    1    1    2    0    0  0.41802796393E+03 -0.37633355831E+03 -0.33561518265E+03  0.65498998203E+03  0.00000000000E+00 0.  1.
<mgrwt>
<rscale>  0 0.11347034E+04</rscale>
<asrwt>0</asrwt>
<pdfrwt beam="1">  1        2 0.14377708E+00 0.11347034E+04</pdfrwt>
<pdfrwt beam="2">  1       -2 0.52989320E-01 0.11347034E+04</pdfrwt>
<totfact> 0.92499388E+01</totfact>
</mgrwt>
</event>
<event>
 6    1  0.1588846E-005  0.2921891E+04  0.7818608E-02  0.8266394E-01
         -2   -1    0    0    0  501 -0.00000000000E+00  0.00000000000E+00  0.15858911749E+04  0.15858911749E+04  0.00000000000E+00 0.  1.
          2   -1    0    0  501    0  0.00000000000E+00 -0.00000000000E+00 -0.13458433201E+04  0.13458433201E+04  0.00000000000E+00 0. -1.
         23    2    1    2    0    0  0.11389726472E+04 -0.75388594101E+03 -0.39632675065E+03  0.14248916559E+04  0.87399283563E+02 0.  0.
         13    1    3    3    0    0  0.21708879534E+03 -0.18604045037E+03 -0.86496372026E+02  0.29869753365E+03  0.00000000000E+00 0.  1.
        -13    1    3    3    0    0  0.92188385184E+03 -0.56784549064E+03 -0.30983037863E+03  0.11261941223E+04  0.00000000000E+00 0. -1.
         22    1    1    2    0    0 -0.11389726472E+04  0.75388594101E+03  0.63637460552E+03  0.15068428391E+04  0.00000000000E+00 0.  1.
<mgrwt>
<rscale>  0 0.29218905E+04</rscale>
<asrwt>0</asrwt>
<pdfrwt beam="1">  1        2 0.20705282E+00 0.29218905E+04</pdfrwt>
<pdfrwt beam="2">  1       -2 0.24398326E+00 0.29218905E+04</pdfrwt>
<totfact> 0.93751410E-01</totfact>
</mgrwt>
</event>
<event>
 6    1  0.1588846E-005  0.8607137E+03  0.7818608E-02  0.9476069E-01
          1   -1    0    0  501    0  0.00000000000E+00  0.00000000000E+00  0.10835396261E+04  0.10835396261E+04  0.00000000000E+00 0. -1.
         -1   -1    0    0    0  501 -0.00000000000E+00 -0.00000000000E+00 -0.17092776342E+03  0.17092776342E+03  0.00000000000E+00 0.  1.
         23    2    1    2    0    0  0.54605839808E+02 -0.37219013029E+03  0.17162643547E+03  0.42346396344E+03  0.91426495906E+02 0.  0.
         13    1    3    3    0    0  0.58580451058E+02 -0.31425291656E+03  0.10823428625E+03  0.33749255626E+03  0.00000000000E+00 0.  1.
        -13    1    3    3    0    0 -0.39746112502E+01 -0.57937213730E+02  0.63392149219E+02  0.85971407177E+02  0.00000000000E+00 0. -1.
         22    1    1    2    0    0 -0.54605839808E+02  0.37219013029E+03  0.74098542719E+03  0.83100342607E+03  0.00000000000E+00 0. -1.
<mgrwt>
<rscale>  0 0.86071367E+03</rscale>
<asrwt>0</asrwt>
<pdfrwt beam="1">  1        1 0.16669840E+00 0.86071367E+03</pdfrwt>
<pdfrwt beam="2">  1       -1 0.26296579E-01 0.86071367E+03</pdfrwt>
<totfact> 0.16883270E+02</totfact>
</mgrwt>
</event>
<event>
 6    1  0.1588846E-005  0.1172091E+04  0.7818608E-02  0.9137643E-01
          2   -1    0    0  501    0  0.00000000000E+00  0.00000000000E+00  0.78963836943E+03  0.78963836943E+03  0.00000000000E+00 0.  1.
         -2   -1    0    0    0  501 -0.00000000000E+00 -0.00000000000E+00 -0.43494472480E+03  0.43494472480E+03  0.00000000000E+00 0. -1.
         23    2    1    2    0    0  0.28151877332E+03 -0.49222580894E+03  0.31782162300E+03  0.65634140912E+03  0.90743564817E+02 0.  0.
         13    1    3    3    0    0  0.45239148553E+02 -0.57113731257E+02  0.76117957697E+02  0.10536841246E+03  0.00000000000E+00 0.  1.
        -13    1    3    3    0    0  0.23627962476E+03 -0.43511207769E+03  0.24170366530E+03  0.55097299666E+03  0.00000000000E+00 0. -1.
         22    1    1    2    0    0 -0.28151877332E+03  0.49222580894E+03  0.36872021621E+02  0.56824168511E+03  0.00000000000E+00 0. -1.
<mgrwt>
<rscale>  0 0.11720905E+04</rscale>
<asrwt>0</asrwt>
<pdfrwt beam="1">  1        2 0.12148283E+00 0.11720905E+04</pdfrwt>
<pdfrwt beam="2">  1       -2 0.66914573E-01 0.11720905E+04</pdfrwt>
<totfact> 0.71072396E+01</totfact>
</mgrwt>
</event>
<event>
 6    1  0.1588846E-005  0.3459594E+04  0.7818608E-02  0.8123433E-01
         -2   -1    0    0    0  501 -0.00000000000E+00  0.00000000000E+00  0.11343794422E+04  0.11343794422E+04  0.00000000000E+00 0.  1.
          2   -1    0    0  501    0  0.00000000000E+00 -0.00000000000E+00 -0.26377401522E+04  0.26377401522E+04  0.00000000000E+00 0. -1.
         23    2    1    2    0    0 -0.58020468211E+03  0.14612901443E+04 -0.15355263394E+04  0.21995290607E+04  0.89892107861E+02 0.  0.
         11    1    3    3    0    0 -0.30468965024E+03  0.68472445223E+03 -0.68544811735E+03  0.10156389516E+04  0.00000000000E+00 0. -1.
        -11    1    3    3    0    0 -0.27551503187E+03  0.77656569204E+03 -0.85007822200E+03  0.11838901091E+04  0.00000000000E+00 0.  1.
         22    1    1    2    0    0  0.58020468211E+03 -0.14612901443E+04  0.32165629357E+02  0.15725905337E+04  0.00000000000E+00 0.  1.
<mgrwt>
<rscale>  0 0.34595943E+04</rscale>
<asrwt>0</asrwt>
<pdfrwt beam="1">  1        2 0.40580618E+00 0.34595943E+04</pdfrwt>
<pdfrwt beam="2">  1       -2 0.17451991E+00 0.34595943E+04</pdfrwt>
<totfact> 0.47187945E-01</totfact>
</mgrwt>
</event>
<event>
 6    1  0.1588846E-005  0.4140576E+04  0.7818608E-02  0.7976773E-01
         -2   -1    0    0    0  501 -0.00000000000E+00  0.00000000000E+00  0.85433517131E+03  0.85433517131E+03  0.00000000000E+00 0.  1.
          2   -1    0    0  501    0  0.00000000000E+00 -0.00000000000E+00 -0.50168745903E+04  0.50168745903E+04  0.00000000000E+00 0. -1.
         23    2    1    2    0    0  0.17138549244E+04  0.85858092087E+03 -0.31871770874E+04  0.37204444147E+04  0.95650181421E+02 0.  0.
         11    1    3    3    0    0  0.93995380120E+03  0.43926973572E+03 -0.17985157581E+04  0.20763260778E+04  0.00000000000E+00 0. -1.
        -11    1    3    3    0    0  0.77390112316E+03  0.41931118515E+03 -0.13886613293E+04  0.16441183370E+04  0.00000000000E+00 0.  1.
         22    1    1    2    0    0 -0.17138549244E+04 -0.85858092087E+03 -0.97536233158E+03  0.21507653469E+04  0.00000000000E+00 0. -1.
<mgrwt>
<rscale>  0 0.41405760E+04</rscale>
<asrwt>0</asrwt>
<pdfrwt beam="1">  1        2 0.77182685E+00 0.41405760E+04</pdfrwt>
<pdfrwt beam="2">  1       -2 0.13143618E+00 0.41405760E+04</pdfrwt>
<totfact> 0.10625524E-02</totfact>
</mgrwt>
</event>
<event>
 6    1  0.1588846E-005  0.2861507E+04  0.7818608E-02  0.8284423E-01
         -2   -1    0    0    0  501 -0.00000000000E+00  0.00000000000E+00  0.12785324092E+04  0.12785324092E+04  0.00000000000E+00 0.  1.
          2   -1    0    0  501    0  0.00000000000E+00 -0.00000000000E+00 -0.16010979157E+04  0.16010979157E+04  0.00000000000E+00 0. -1.
         23    2    1    2    0    0  0.96256840203E+03 -0.25014728730E+02 -0.12243756126E+04  0.15603785929E+04  0.92314934442E+02 0.  0.
         11    1    3    3    0    0  0.13691863460E+03  0.63268932298E+01 -0.12809357273E+03  0.18760251985E+03  0.00000000000E+00 0. -1.
        -11    1    3    3    0    0  0.82564976743E+03 -0.31341621960E+02 -0.10962820399E+04  0.13727760730E+04  0.00000000000E+00 0.  1.
         22    1    1    2    0    0 -0.96256840203E+03  0.25014728730E+02  0.90181010606E+03  0.13192517321E+04  0.00000000000E+00 0.  1.
<mgrwt>
<rscale>  0 0.28615070E+04</rscale>
<asrwt>0</asrwt>
<pdfrwt beam="1">  1        2 0.24632276E+00 0.28615070E+04</pdfrwt>
<pdfrwt beam="2">  1       -2 0.19669729E+00 0.28615070E+04</pdfrwt>
<totfact> 0.13484669E+00</totfact>
</mgrwt>
</event>
<event>
 6    1  0.1588846E-005  0.7693204E+03  0.7818608E-02  0.9605518E-01
         -1   -1    0    0    0  501 -0.00000000000E+00  0.00000000000E+00  0.14783915478E+04  0.14783915478E+04  0.00000000000E+00 0.  1.
          1   -1    0    0  501    0  0.00000000000E+00 -0.00000000000E+00 -0.10008409085E+03  0.10008409085E+03  0.00000000000E+00 0. -1.
         23    2    1    2    0    0  0.52453404922E+02  0.21172232258E+03  0.62515088845E+02  0.24472631529E+03  0.91679504234E+02 0.  0.
         11    1    3    3    0    0  0.64925622013E+02  0.12349548127E+03  0.69052748337E+01  0.13969306750E+03  0.00000000000E+00 0.  1.
        -11    1    3    3    0    0 -0.12472217092E+02  0.88226841313E+02  0.55609814011E+02  0.10503324779E+03  0.00000000000E+00 0. -1.
         22    1    1    2    0    0 -0.52453404922E+02 -0.21172232258E+03  0.13157923681E+04  0.13337493233E+04  0.00000000000E+00 0.  1.
<mgrwt>
<rscale>  0 0.76932041E+03</rscale>
<asrwt>0</asrwt>
<pdfrwt beam="1">  1        1 0.15397553E-01 0.76932041E+03</pdfrwt>
<pdfrwt beam="2">  1       -1 0.22744484E+00 0.76932041E+03</pdfrwt>
<totfact> 0.37477152E+01</totfact>
</mgrwt>
</event>
<event>
 6    1  0.1588846E-005  0.2762713E+04  0.7818608E-02  0.8314939E-01
         -2   -1    0    0    0  501 -0.00000000000E+00  0.00000000000E+00  0.12657922349E+04  0.12657922349E+04  0.00000000000E+00 0. -1.
          2   -1    0    0  501    0  0.00000000000E+00 -0.00000000000E+00 -0.15074719122E+04  0.15074719122E+04  0.00000000000E+00 0.  1.
         23    2    1    2    0    0  0.47046656063E+03  0.79314247512E+03 -0.11513198099E+04  0.14779422021E+04  0.91444396771E+02 0.  0.
         13    1    3    3    0    0  0.72902449745E+02  0.15818944927E+03 -0.26920116224E+03  0.32063676457E+03  0.00000000000E+00 0. -1.
        -13    1    3    3    0    0  0.39756411088E+03  0.63495302585E+03 -0.88211864763E+03  0.11573054376E+04  0.00000000000E+00 0.  1.
         22    1    1    2    0    0 -0.47046656063E+03 -0.79314247512E+03  0.90964013252E+03  0.12953219450E+04  0.00000000000E+00 0. -1.
<mgrwt>
<rscale>  0 0.27627133E+04</rscale>
<asrwt>0</asrwt>
<pdfrwt beam="1">  1        2 0.23191876E+00 0.27627133E+04</pdfrwt>
<pdfrwt beam="2">  1       -2 0.19473727E+00 0.27627133E+04</pdfrwt>
<totfact> 0.15812398E+00</totfact>
</mgrwt>
</event>
<event>
 6    1  0.1588846E-005  0.3615746E+04  0.7818608E-02  0.8086894E-01
          1   -1    0    0  501    0  0.00000000000E+00  0.00000000000E+00  0.25884203432E+04  0.25884203432E+04  0.00000000000E+00 0. -1.
         -1   -1    0    0    0  501 -0.00000000000E+00 -0.00000000000E+00 -0.12627023721E+04  0.12627023721E+04  0.00000000000E+00 0.  1.
         23    2    1    2    0    0 -0.71621711813E+03  0.16581531886E+04  0.61784176539E+03  0.19111413547E+04  0.91070704805E+02 0.  0.
         13    1    3    3    0    0 -0.36393989636E+03  0.87116290957E+03  0.36944590266E+03  0.10138379250E+04  0.00000000000E+00 0. -1.
        -13    1    3    3    0    0 -0.35227722177E+03  0.78699027904E+03  0.24839586274E+03  0.89730342967E+03  0.00000000000E+00 0.  1.
         22    1    1    2    0    0  0.71621711813E+03 -0.16581531886E+04  0.70787620570E+03  0.19399813607E+04  0.00000000000E+00 0. -1.
<mgrwt>
<rscale>  0 0.36157458E+04</rscale>
<asrwt>0</asrwt>
<pdfrwt beam="1">  1        1 0.39821851E+00 0.36157458E+04</pdfrwt>
<pdfrwt beam="2">  1       -1 0.19426190E+00 0.36157458E+04</pdfrwt>
<totfact> 0.15665947E-01</totfact>
</mgrwt>
</event>
<event>
 6    1  0.1588846E-005  0.2079013E+04  0.7818608E-02  0.8570545E-01
         -1   -1    0    0    0  501 -0.00000000000E+00  0.00000000000E+00  0.58915417096E+03  0.58915417096E+03  0.00000000000E+00 0.  1.
          1   -1    0    0  501    0  0.00000000000E+00 -0.00000000000E+00 -0.18341099833E+04  0.18341099833E+04  0.00000000000E+00 0. -1.
         23    2    1    2    0    0 -0.39967523868E+03 -0.63591721819E+03  0.21047513076E+03  0.78545762267E+03  0.92265332223E+02 0.  0.
         11    1    3    3    0    0 -0.31367587878E+03 -0.42447673313E+03  0.16204632835E+03  0.55211599001E+03  0.00000000000E+00 0. -1.
        -11    1    3    3    0    0 -0.85999359903E+02 -0.21144048506E+03  0.48428802410E+02  0.23334163266E+03  0.00000000000E+00 0.  1.
         22    1    1    2    0    0  0.39967523868E+03  0.63591721819E+03 -0.14554309431E+04  0.16378065316E+04  0.00000000000E+00 0. -1.
<mgrwt>
<rscale>  0 0.20790128E+04</rscale>
<asrwt>0</asrwt>
<pdfrwt beam="1">  1        1 0.28217076E+00 0.20790128E+04</pdfrwt>
<pdfrwt beam="2">  1       -1 0.90639104E-01 0.20790128E+04</pdfrwt>
<totfact> 0.42310918E+00</totfact>
</mgrwt>
</event>
<event>
 6    1  0.1588846E-005  0.1683233E+04  0.7818608E-02  0.8770986E-01
         -2   -1    0    0    0  501 -0.00000000000E+00  0.00000000000E+00  0.24390440541E+04  0.24390440541E+04  0.00000000000E+00 0.  1.
          2   -1    0    0  501    0  0.00000000000E+00 -0.00000000000E+00 -0.29040809572E+03  0.29040809572E+03  0.00000000000E+00 0. -1.
         23    2    1    2    0    0  0.14772919100E+03 -0.75114974526E+03  0.52045909276E+03  0.93028296394E+03  0.92189327382E+02 0.  0.
         11    1    3    3    0    0  0.37715033282E+02 -0.14355767536E+03  0.60316512615E+02  0.16021645229E+03  0.00000000000E+00 0.  1.
        -11    1    3    3    0    0  0.11001415771E+03 -0.60759206990E+03  0.46014258015E+03  0.77006651165E+03  0.00000000000E+00 0. -1.
         22    1    1    2    0    0 -0.14772919100E+03  0.75114974526E+03  0.16281768656E+04  0.17991691858E+04  0.00000000000E+00 0.  1.
<mgrwt>
<rscale>  0 0.16832328E+04</rscale>
<asrwt>0</asrwt>
<pdfrwt beam="1">  1        2 0.44678170E-01 0.16832328E+04</pdfrwt>
<pdfrwt beam="2">  1       -2 0.37523753E+00 0.16832328E+04</pdfrwt>
<totfact> 0.11723086E+00</totfact>
</mgrwt>
</event>
<event>
 6    1  0.1643869E-005  0.3602993E+04  0.7818608E-02  0.8089807E-01
          2   -1    0    0  501    0  0.00000000000E+00  0.00000000000E+00  0.20245491007E+04  0.20245491007E+04  0.00000000000E+00 0. -1.
         -2   -1    0    0    0  501 -0.00000000000E+00 -0.00000000000E+00 -0.16030180637E+04  0.16030180637E+04  0.00000000000E+00 0.  1.
         23    2    1    2    0    0 -0.44880927072E+03  0.33016835054E+03 -0.15128566426E+04  0.16145354717E+04  0.86883065634E+02 0.  0.
         13    1    3    3    0    0 -0.16473836906E+03  0.72243857577E+02 -0.50887360258E+03  0.53973164498E+03  0.00000000000E+00 0. -1.
        -13    1    3    3    0    0 -0.28407090166E+03  0.25792449297E+03 -0.10039830400E+04  0.10748038267E+04  0.00000000000E+00 0.  1.
         22    1    1    2    0    0  0.44880927072E+03 -0.33016835054E+03  0.19343876796E+04  0.20130316928E+04  0.00000000000E+00 0. -1.
<mgrwt>
<rscale>  0 0.36029925E+04</rscale>
<asrwt>0</asrwt>
<pdfrwt beam="1">  1        2 0.31146909E+00 0.36029925E+04</pdfrwt>
<pdfrwt beam="2">  1       -2 0.24661816E+00 0.36029925E+04</pdfrwt>
<totfact> 0.35569162E-01</totfact>
</mgrwt>
</event>
<event>
 6    1  0.1588846E-005  0.3861599E+04  0.7818608E-02  0.8033064E-01
         -2   -1    0    0    0  501 -0.00000000000E+00  0.00000000000E+00  0.15440549888E+04  0.15440549888E+04  0.00000000000E+00 0.  1.
          2   -1    0    0  501    0  0.00000000000E+00 -0.00000000000E+00 -0.24144127891E+04  0.24144127891E+04  0.00000000000E+00 0. -1.
         23    2    1    2    0    0  0.79963721693E+03 -0.15101903586E+03  0.13581856587E+04  0.15859938842E+04  0.92097172571E+02 0.  0.
         11    1    3    3    0    0  0.42214299332E+03 -0.11335607419E+03  0.78859896518E+03  0.90163331474E+03  0.00000000000E+00 0.  1.
        -11    1    3    3    0    0  0.37749422361E+03 -0.37662961672E+02  0.56958669356E+03  0.68436056945E+03  0.00000000000E+00 0. -1.
         22    1    1    2    0    0 -0.79963721693E+03  0.15101903586E+03 -0.22285434590E+04  0.23724738937E+04  0.00000000000E+00 0. -1.
<mgrwt>
<rscale>  0 0.38615987E+04</rscale>
<asrwt>0</asrwt>
<pdfrwt beam="1">  1        2 0.37144812E+00 0.38615987E+04</pdfrwt>
<pdfrwt beam="2">  1       -2 0.23754692E+00 0.38615987E+04</pdfrwt>
<totfact> 0.23872878E-01</totfact>
</mgrwt>
</event>
<event>
 6    1  0.1588846E-005  0.2329134E+04  0.7818608E-02  0.8466522E-01
         -1   -1    0    0    0  501 -0.00000000000E+00  0.00000000000E+00  0.54668682220E+03  0.54668682220E+03  0.00000000000E+00 0.  1.
          1   -1    0    0  501    0  0.00000000000E+00 -0.00000000000E+00 -0.24807915123E+04  0.24807915123E+04  0.00000000000E+00 0. -1.
         23    2    1    2    0    0  0.17279168532E+03 -0.19868737172E+03 -0.24406056288E+04  0.24566221012E+04  0.95407937387E+02 0.  0.
         13    1    3    3    0    0  0.12797746450E+03 -0.13052489772E+03 -0.20146225895E+04  0.20228987020E+04  0.00000000000E+00 0.  1.
        -13    1    3    3    0    0  0.44814220818E+02 -0.68162473994E+02 -0.42598303923E+03  0.43372339913E+03  0.00000000000E+00 0. -1.
         22    1    1    2    0    0 -0.17279168532E+03  0.19868737172E+03  0.50650093870E+03  0.57085623330E+03  0.00000000000E+00 0.  1.
<mgrwt>
<rscale>  0 0.23291338E+04</rscale>
<asrwt>0</asrwt>
<pdfrwt beam="1">  1        1 0.38166022E+00 0.23291338E+04</pdfrwt>
<pdfrwt beam="2">  1       -1 0.84105667E-01 0.23291338E+04</pdfrwt>
<totfact> 0.17641328E+00</totfact>
</mgrwt>
</event>
<event>
 6    1  0.1588846E-005  0.1806940E+04  0.7818608E-02  0.8702618E-01
          2   -1    0    0  501    0  0.00000000000E+00  0.00000000000E+00  0.16673172804E+04  0.16673172804E+04  0.00000000000E+00 0. -1.
         -2   -1    0    0    0  501 -0.00000000000E+00 -0.00000000000E+00 -0.48956349824E+03  0.48956349824E+03  0.00000000000E+00 0.  1.
         23    2    1    2    0    0  0.31008958410E+03  0.61949601613E+02  0.15976752676E+04  0.16312122926E+04  0.91071288221E+02 0.  0.
         11    1    3    3    0    0  0.51606401121E+02  0.16211328136E+02  0.48427750844E+03  0.48728916772E+03  0.00000000000E+00 0. -1.
        -11    1    3    3    0    0  0.25848318298E+03  0.45738273477E+02  0.11133977591E+04  0.11439231248E+04  0.00000000000E+00 0.  1.
         22    1    1    2    0    0 -0.31008958410E+03 -0.61949601613E+02 -0.41992148542E+03  0.52566848605E+03  0.00000000000E+00 0.  1.
<mgrwt>
<rscale>  0 0.18069396E+04</rscale>
<asrwt>0</asrwt>
<pdfrwt beam="1">  1        2 0.25651035E+00 0.18069396E+04</pdfrwt>
<pdfrwt beam="2">  1       -2 0.75317462E-01 0.18069396E+04</pdfrwt>
<totfact> 0.15263243E+01</totfact>
</mgrwt>
</event>
<event>
 6    1  0.1588846E-005  0.2532587E+04  0.7818608E-02  0.8391467E-01
          2   -1    0    0  501    0  0.00000000000E+00  0.00000000000E+00  0.24151304846E+04  0.24151304846E+04  0.00000000000E+00 0. -1.
         -2   -1    0    0    0  501 -0.00000000000E+00 -0.00000000000E+00 -0.66393922078E+03  0.66393922078E+03  0.00000000000E+00 0.  1.
         23    2    1    2    0    0  0.10021928298E+04  0.35632190718E+03  0.45013333670E+02  0.10684979213E+04  0.91136369267E+02 0.  0.
         11    1    3    3    0    0  0.73146394858E+03  0.29823868444E+03  0.50663840020E+02  0.79155078526E+03  0.00000000000E+00 0.  1.
        -11    1    3    3    0    0  0.27072888127E+03  0.58083222746E+02 -0.56505063500E+01  0.27694713600E+03  0.00000000000E+00 0. -1.
         22    1    1    2    0    0 -0.10021928298E+04 -0.35632190718E+03  0.17061779302E+04  0.20105717841E+04  0.00000000000E+00 0. -1.
<mgrwt>
<rscale>  0 0.25325875E+04</rscale>
<asrwt>0</asrwt>
<pdfrwt beam="1">  1        2 0.37155853E+00 0.25325875E+04</pdfrwt>
<pdfrwt beam="2">  1       -2 0.10214450E+00 0.25325875E+04</pdfrwt>
<totfact> 0.27214185E+00</totfact>
</mgrwt>
</event>
<event>
 6    1  0.1588846E-005  0.1695881E+04  0.7818608E-02  0.8763717E-01
          1   -1    0    0  501    0  0.00000000000E+00  0.00000000000E+00  0.10827518125E+04  0.10827518125E+04  0.00000000000E+00 0. -1.
         -1   -1    0    0    0  501 -0.00000000000E+00 -0.00000000000E+00 -0.66405185506E+03  0.66405185506E+03  0.00000000000E+00 0.  1.
         23    2    1    2    0    0 -0.80774271654E+03 -0.11867988456E+03  0.43557381297E+03  0.93021445741E+03  0.95085115047E+02 0.  0.
         13    1    3    3    0    0 -0.67721983413E+03 -0.75549753581E+02  0.33138292576E+03  0.75772627808E+03  0.00000000000E+00 0. -1.
        -13    1    3    3    0    0 -0.13052288241E+03 -0.43130130980E+02  0.10419088721E+03  0.17248817933E+03  0.00000000000E+00 0.  1.
         22    1    1    2    0    0  0.80774271654E+03  0.11867988456E+03 -0.16873855546E+02  0.81658921014E+03  0.00000000000E+00 0.  1.
<mgrwt>
<rscale>  0 0.16958813E+04</rscale>
<asrwt>0</asrwt>
<pdfrwt beam="1">  1        1 0.16657720E+00 0.16958813E+04</pdfrwt>
<pdfrwt beam="2">  1       -1 0.10216182E+00 0.16958813E+04</pdfrwt>
<totfact> 0.11286517E+01</totfact>
</mgrwt>
</event>
<event>
 6    1  0.1588846E-005  0.1927317E+04  0.7818608E-02  0.8641377E-01
          1   -1    0    0  501    0  0.00000000000E+00  0.00000000000E+00  0.76730275197E+03  0.76730275197E+03  0.00000000000E+00 0. -1.
         -1   -1    0    0    0  501 -0.00000000000E+00 -0.00000000000E+00 -0.12102621206E+04  0.12102621206E+04  0.00000000000E+00 0.  1.
         23    2    1    2    0    0 -0.61336386836E+03  0.62027197238E+03 -0.63689241496E+03  0.10839415844E+04  0.91350180483E+02 0.  0.
         11    1    3    3    0    0 -0.22468397827E+03  0.19755084377E+03 -0.17200828647E+03  0.34510299417E+03  0.00000000000E+00 0. -1.
        -11    1    3    3    0    0 -0.38867989009E+03  0.42272112861E+03 -0.46488412848E+03  0.73883859026E+03  0.00000000000E+00 0.  1.
         22    1    1    2    0    0  0.61336386836E+03 -0.62027197238E+03  0.19393304630E+03  0.89362328818E+03  0.00000000000E+00 0. -1.
<mgrwt>
<rscale>  0 0.19273167E+04</rscale>
<asrwt>0</asrwt>
<pdfrwt beam="1">  1        1 0.11804658E+00 0.19273167E+04</pdfrwt>
<pdfrwt beam="2">  1       -1 0.18619417E+00 0.19273167E+04</pdfrwt>
<totfact> 0.41457737E+00</totfact>
</mgrwt>
</event>
<event>
 6    1  0.1588846E-005  0.2408336E+04  0.7818608E-02  0.8436389E-01
         -1   -1    0    0    0  501 -0.00000000000E+00  0.00000000000E+00  0.46691046362E+03  0.46691046362E+03  0.00000000000E+00 0.  1.
          1   -1    0    0  501    0  0.00000000000E+00 -0.00000000000E+00 -0.31055654046E+04  0.31055654046E+04  0.00000000000E+00 0. -1.
         23    2    1    2    0    0 -0.21554532693E+03  0.10948621160E+04 -0.19858592720E+04  0.22796785034E+04  0.90078796722E+02 0.  0.
         13    1    3    3    0    0 -0.42513554163E+02  0.18926783445E+03 -0.41817008308E+03  0.46097281246E+03  0.00000000000E+00 0. -1.
        -13    1    3    3    0    0 -0.17303177277E+03  0.90559428157E+03 -0.15676891890E+04  0.18187056910E+04  0.00000000000E+00 0.  1.
         22    1    1    2    0    0  0.21554532693E+03 -0.10948621160E+04 -0.65279566898E+03  0.12927973648E+04  0.00000000000E+00 0.  1.
<mgrwt>
<rscale>  0 0.24083363E+04</rscale>
<asrwt>0</asrwt>
<pdfrwt beam="1">  1        1 0.47777930E+00 0.24083363E+04</pdfrwt>
<pdfrwt beam="2">  1       -1 0.71832378E-01 0.24083363E+04</pdfrwt>
<totfact> 0.87598003E-01</totfact>
</mgrwt>
</event>
<event>
 6    1  0.1588846E-005  0.8757299E+03  0.7818608E-02  0.9456439E-01
         -2   -1    0    0    0  501 -0.00000000000E+00  0.00000000000E+00  0.36905031239E+03  0.36905031239E+03  0.00000000000E+00 0. -1.
          2   -1    0    0  501    0  0.00000000000E+00 -0.00000000000E+00 -0.51951105666E+03  0.51951105666E+03  0.00000000000E+00 0.  1.
         23    2    1    2    0    0 -0.25390280247E+03  0.24162810061E+03  0.18207513190E+03  0.40541451658E+03  0.91426497734E+02 0.  0.
         13    1    3    3    0    0 -0.81647892860E+02  0.11940825609E+03  0.37413865810E+02  0.14941387950E+03  0.00000000000E+00 0. -1.
        -13    1    3    3    0    0 -0.17225490961E+03  0.12221984452E+03  0.14466126609E+03  0.25600063708E+03  0.00000000000E+00 0.  1.
         22    1    1    2    0    0  0.25390280247E+03 -0.24162810061E+03 -0.33253587617E+03  0.48314685247E+03  0.00000000000E+00 0.  1.
<mgrwt>
<rscale>  0 0.87572991E+03</rscale>
<asrwt>0</asrwt>
<pdfrwt beam="1">  1        2 0.79924778E-01 0.87572991E+03</pdfrwt>
<pdfrwt beam="2">  1       -2 0.56776971E-01 0.87572991E+03</pdfrwt>
<totfact> 0.17212927E+02</totfact>
</mgrwt>
</event>
<event>
 6    1  0.1588846E-005  0.1116166E+04  0.7818608E-02  0.9189577E-01
          2   -1    0    0  501    0  0.00000000000E+00  0.00000000000E+00  0.97369027335E+03  0.97369027335E+03  0.00000000000E+00 0.  1.
         -2   -1    0    0    0  501 -0.00000000000E+00 -0.00000000000E+00 -0.31987264060E+03  0.31987264060E+03  0.00000000000E+00 0. -1.
         23    2    1    2    0    0  0.38299820469E+03  0.16906489859E+03 -0.92108196286E+02  0.43818235119E+03  0.90825592990E+02 0.  0.
         11    1    3    3    0    0  0.40681912628E+02  0.53147376257E+02 -0.11927480897E+02  0.67984751369E+02  0.00000000000E+00 0.  1.
        -11    1    3    3    0    0  0.34231629206E+03  0.11591752233E+03 -0.80180715388E+02  0.37019759982E+03  0.00000000000E+00 0. -1.
         22    1    1    2    0    0 -0.38299820469E+03 -0.16906489859E+03  0.74592582903E+03  0.85538056276E+03  0.00000000000E+00 0. -1.
<mgrwt>
<rscale>  0 0.11161664E+04</rscale>
<asrwt>0</asrwt>
<pdfrwt beam="1">  1        2 0.14979850E+00 0.11161664E+04</pdfrwt>
<pdfrwt beam="2">  1       -2 0.49211176E-01 0.11161664E+04</pdfrwt>
<totfact> 0.10155210E+02</totfact>
</mgrwt>
</event>
<event>
 6    1  0.1588846E-005  0.2951174E+04  0.7818608E-02  0.8257813E-01
         -1   -1    0    0    0  501 -0.00000000000E+00  0.00000000000E+00  0.28535416163E+04  0.28535416163E+04  0.00000000000E+00 0.  1.
          1   -1    0    0  501    0  0.00000000000E+00 -0.00000000000E+00 -0.76303664676E+03  0.76303664676E+03  0.00000000000E+00 0. -1.
         23    2    1    2    0    0  0.67960947397E+03 -0.13042714517E+04  0.93793504625E+03  0.17480466243E+04  0.11380594377E+03 0.  0.
         11    1    3    3    0    0  0.30625362769E+03 -0.47188791730E+03  0.37407952683E+03  0.67557751839E+03  0.00000000000E+00 0. -1.
        -11    1    3    3    0    0  0.37335584628E+03 -0.83238353444E+03  0.56385551942E+03  0.10724691059E+04  0.00000000000E+00 0.  1.
         22    1    1    2    0    0 -0.67960947397E+03  0.13042714517E+04  0.11525699233E+04  0.18685316387E+04  0.00000000000E+00 0.  1.
<mgrwt>
<rscale>  0 0.29511739E+04</rscale>
<asrwt>0</asrwt>
<pdfrwt beam="1">  1        1 0.11739025E+00 0.29511739E+04</pdfrwt>
<pdfrwt beam="2">  1       -1 0.43900640E+00 0.29511739E+04</pdfrwt>
<totfact> 0.78433004E-02</totfact>
</mgrwt>
</event>
<event>
 6    1  0.1588846E-005  0.1383203E+04  0.7818608E-02  0.8966068E-01
         -2   -1    0    0    0  501 -0.00000000000E+00  0.00000000000E+00  0.27424014055E+03  0.27424014055E+03  0.00000000000E+00 0. -1.
          2   -1    0    0  501    0  0.00000000000E+00 -0.00000000000E+00 -0.17441379429E+04  0.17441379429E+04  0.00000000000E+00 0.  1.
         23    2    1    2    0    0  0.46504507346E+03 -0.13716895327E+03 -0.14517999363E+04  0.15331876313E+04  0.88651088474E+02 0.  0.
         11    1    3    3    0    0  0.27382661330E+03 -0.10183045900E+03 -0.74831764675E+03  0.80332419170E+03  0.00000000000E+00 0. -1.
        -11    1    3    3    0    0  0.19121846016E+03 -0.35338494278E+02 -0.70348228957E+03  0.72986343957E+03  0.00000000000E+00 0.  1.
         22    1    1    2    0    0 -0.46504507346E+03  0.13716895327E+03 -0.18097865983E+02  0.48519045214E+03  0.00000000000E+00 0. -1.
<mgrwt>
<rscale>  0 0.13832030E+04</rscale>
<asrwt>0</asrwt>
<pdfrwt beam="1">  1        2 0.26832891E+00 0.13832030E+04</pdfrwt>
<pdfrwt beam="2">  1       -2 0.42190791E-01 0.13832030E+04</pdfrwt>
<totfact> 0.48084728E+01</totfact>
</mgrwt>
</event>
<event>
 6    1  0.1588846E-005  0.5552007E+04  0.7818608E-02  0.7748573E-01
         -2   -1    0    0    0  501 -0.00000000000E+00  0.00000000000E+00  0.25124350052E+04  0.25124350052E+04  0.00000000000E+00 0.  1.
          2   -1    0    0  501    0  0.00000000000E+00 -0.00000000000E+00 -0.30672221862E+04  0.30672221862E+04  0.00000000000E+00 0. -1.
         23    2    1    2    0    0 -0.13402516519E+04  0.33518908553E+03 -0.26964138079E+04  0.30310907665E+04  0.90761212064E+02 0.  0.
         13    1    3    3    0    0 -0.69728384942E+03  0.17082347445E+03 -0.14999166429E+04  0.16628696166E+04  0.00000000000E+00 0. -1.
        -13    1    3    3    0    0 -0.64296780253E+03  0.16436561108E+03 -0.11964971649E+04  0.13682211498E+04  0.00000000000E+00 0.  1.
         22    1    1    2    0    0  0.13402516519E+04 -0.33518908553E+03  0.21416266268E+04  0.25485664249E+04  0.00000000000E+00 0.  1.
<mgrwt>
<rscale>  0 0.55520073E+04</rscale>
<asrwt>0</asrwt>
<pdfrwt beam="1">  1        2 0.47188033E+00 0.55520073E+04</pdfrwt>
<pdfrwt beam="2">  1       -2 0.38652847E+00 0.55520073E+04</pdfrwt>
<totfact> 0.99980597E-03</totfact>
</mgrwt>
</event>
<event>
 6    1  0.1588846E-005  0.1035471E+04  0.7818608E-02  0.9270474E-01
          1   -1    0    0  501    0  0.00000000000E+00  0.00000000000E+00  0.32957903373E+03  0.32957903373E+03  0.00000000000E+00 0. -1.
         -1   -1    0    0    0  501 -0.00000000000E+00 -0.00000000000E+00 -0.81331065257E+03  0.81331065257E+03  0.00000000000E+00 0.  1.
         23    2    1    2    0    0 -0.46863929598E+03 -0.18670023874E+03 -0.13692204021E+03  0.53071597508E+03  0.91826097737E+02 0.  0.
         13    1    3    3    0    0 -0.37469069768E+03 -0.16687542609E+03 -0.14330994432E+03  0.43448621025E+03  0.00000000000E+00 0. -1.
        -13    1    3    3    0    0 -0.93948598303E+02 -0.19824812650E+02  0.63879041075E+01  0.96229764827E+02  0.00000000000E+00 0.  1.
         22    1    1    2    0    0  0.46863929598E+03  0.18670023874E+03 -0.34680957863E+03  0.61217371122E+03  0.00000000000E+00 0.  1.
<mgrwt>
<rscale>  0 0.10354712E+04</rscale>
<asrwt>0</asrwt>
<pdfrwt beam="1">  1        1 0.50704467E-01 0.10354712E+04</pdfrwt>
<pdfrwt beam="2">  1       -1 0.12512472E+00 0.10354712E+04</pdfrwt>
<totfact> 0.43308601E+01</totfact>
</mgrwt>
</event>
<event>
 6    1  0.1588846E-005  0.1414197E+04  0.7818608E-02  0.8943605E-01
          2   -1    0    0  501    0  0.00000000000E+00  0.00000000000E+00  0.32478428974E+04  0.32478428974E+04  0.00000000000E+00 0. -1.
         -2   -1    0    0    0  501 -0.00000000000E+00 -0.00000000000E+00 -0.15394482526E+03  0.15394482526E+03  0.00000000000E+00 0.  1.
         23    2    1    2    0    0  0.43592740892E+02 -0.53960151116E+03  0.26366062917E+04  0.26931369692E+04  0.90685609262E+02 0.  0.
         11    1    3    3    0    0  0.45778239182E+02 -0.26426400055E+03  0.14889539358E+04  0.15129160361E+04  0.00000000000E+00 0.  1.
        -11    1    3    3    0    0 -0.21854982894E+01 -0.27533751060E+03  0.11476523558E+04  0.11802209331E+04  0.00000000000E+00 0. -1.
         22    1    1    2    0    0 -0.43592740892E+02  0.53960151116E+03  0.45729178051E+03  0.70865075349E+03  0.00000000000E+00 0.  1.
<mgrwt>
<rscale>  0 0.14141975E+04</rscale>
<asrwt>0</asrwt>
<pdfrwt beam="1">  1        2 0.49966809E+00 0.14141975E+04</pdfrwt>
<pdfrwt beam="2">  1       -2 0.23683822E-01 0.14141975E+04</pdfrwt>
<totfact> 0.18787890E+01</totfact>
</mgrwt>
</event>
<event>
 6    1  0.1740752E-005  0.2912048E+04  0.7818608E-02  0.8269302E-01
         -2   -1    0    0    0  501 -0.00000000000E+00  0.00000000000E+00  0.14691951453E+04  0.14691951453E+04  0.00000000000E+00 0.  1.
          2   -1    0    0  501    0  0.00000000000E+00 -0.00000000000E+00 -0.14429714192E+04  0.14429714192E+04  0.00000000000E+00 0. -1.
         23    2    1    2    0    0 -0.46941164636E+02 -0.65803573269E+03  0.13096088021E+04  0.14691517511E+04  0.90095253588E+02 0.  0.
         11    1    3    3    0    0  0.16452855786E+02 -0.28528009333E+03  0.62016162070E+03  0.68282930803E+03  0.00000000000E+00 0.  1.
        -11    1    3    3    0    0 -0.63394020422E+02 -0.37275563935E+03  0.68944718138E+03  0.78632244303E+03  0.00000000000E+00 0. -1.
         22    1    1    2    0    0  0.46941164636E+02  0.65803573269E+03 -0.12833850760E+04  0.14430148134E+04  0.00000000000E+00 0. -1.
<mgrwt>
<rscale>  0 0.29120485E+04</rscale>
<asrwt>0</asrwt>
<pdfrwt beam="1">  1        2 0.22199560E+00 0.29120485E+04</pdfrwt>
<pdfrwt beam="2">  1       -2 0.22603002E+00 0.29120485E+04</pdfrwt>
<totfact> 0.10676712E+00</totfact>
</mgrwt>
</event>
<event>
 6    1  0.1588846E-005  0.3219107E+04  0.7818608E-02  0.8183789E-01
          2   -1    0    0  501    0  0.00000000000E+00  0.00000000000E+00  0.27039985013E+04  0.27039985013E+04  0.00000000000E+00 0. -1.
         -2   -1    0    0    0  501 -0.00000000000E+00 -0.00000000000E+00 -0.95808560694E+03  0.95808560694E+03  0.00000000000E+00 0.  1.
         23    2    1    2    0    0 -0.29856336203E+03  0.11702797949E+04 -0.33449521885E+03  0.12565087515E+04  0.90732087407E+02 0.  0.
         13    1    3    3    0    0 -0.17129784226E+03  0.51105562258E+03 -0.17126400848E+03  0.56555473717E+03  0.00000000000E+00 0. -1.
        -13    1    3    3    0    0 -0.12726551977E+03  0.65922417230E+03 -0.16323121038E+03  0.69095401432E+03  0.00000000000E+00 0.  1.
         22    1    1    2    0    0  0.29856336203E+03 -0.11702797949E+04  0.20804081132E+04  0.24055753568E+04  0.00000000000E+00 0. -1.
<mgrwt>
<rscale>  0 0.32191067E+04</rscale>
<asrwt>0</asrwt>
<pdfrwt beam="1">  1        2 0.41599977E+00 0.32191067E+04</pdfrwt>
<pdfrwt beam="2">  1       -2 0.14739779E+00 0.32191067E+04</pdfrwt>
<totfact> 0.69653455E-01</totfact>
</mgrwt>
</event>
<event>
 6    1  0.1588846E-005  0.3848745E+04  0.7818608E-02  0.8035774E-01
          2   -1    0    0  501    0  0.00000000000E+00  0.00000000000E+00  0.18522132266E+04  0.18522132266E+04  0.00000000000E+00 0. -1.
         -2   -1    0    0    0  501 -0.00000000000E+00 -0.00000000000E+00 -0.19993432937E+04  0.19993432937E+04  0.00000000000E+00 0.  1.
         23    2    1    2    0    0 -0.12085450353E+03 -0.14451984119E+04  0.11906728976E+04  0.18785078557E+04  0.88800643779E+02 0.  0.
         13    1    3    3    0    0 -0.55392307699E+02 -0.64399197058E+03  0.58795189893E+03  0.87377422793E+03  0.00000000000E+00 0. -1.
        -13    1    3    3    0    0 -0.65462195827E+02 -0.80120644129E+03  0.60272099864E+03  0.10047336278E+04  0.00000000000E+00 0.  1.
         22    1    1    2    0    0  0.12085450353E+03  0.14451984119E+04 -0.13378029647E+04  0.19730486646E+04  0.00000000000E+00 0.  1.
<mgrwt>
<rscale>  0 0.38487453E+04</rscale>
<asrwt>0</asrwt>
<pdfrwt beam="1">  1        2 0.28495588E+00 0.38487453E+04</pdfrwt>
<pdfrwt beam="2">  1       -2 0.30759128E+00 0.38487453E+04</pdfrwt>
<totfact> 0.18404635E-01</totfact>
</mgrwt>
</event>
<event>
 6    1  0.1588846E-005  0.1941225E+04  0.7818608E-02  0.8634604E-01
          1   -1    0    0  501    0  0.00000000000E+00  0.00000000000E+00  0.14475541231E+04  0.14475541231E+04  0.00000000000E+00 0. -1.
         -1   -1    0    0    0  501 -0.00000000000E+00 -0.00000000000E+00 -0.65081429724E+03  0.65081429724E+03  0.00000000000E+00 0.  1.
         23    2    1    2    0    0  0.35772333782E+02  0.67253495122E+03 -0.35313443275E+03  0.76577931222E+03  0.90172650864E+02 0.  0.
         11    1    3    3    0    0  0.64362605167E+02  0.39859868941E+03 -0.22124965493E+03  0.46040728703E+03  0.00000000000E+00 0. -1.
        -11    1    3    3    0    0 -0.28590271384E+02  0.27393626181E+03 -0.13188477781E+03  0.30537202519E+03  0.00000000000E+00 0.  1.
         22    1    1    2    0    0 -0.35772333782E+02 -0.67253495122E+03  0.11498742586E+04  0.13325891081E+04  0.00000000000E+00 0. -1.
<mgrwt>
<rscale>  0 0.19412253E+04</rscale>
<asrwt>0</asrwt>
<pdfrwt beam="1">  1        1 0.22270063E+00 0.19412253E+04</pdfrwt>
<pdfrwt beam="2">  1       -1 0.10012528E+00 0.19412253E+04</pdfrwt>
<totfact> 0.63047364E+00</totfact>
</mgrwt>
</event>
<event>
 6    1  0.1588846E-005  0.7196063E+03  0.7818608E-02  0.9684278E-01
          1   -1    0    0  501    0  0.00000000000E+00  0.00000000000E+00  0.55790485057E+03  0.55790485057E+03  0.00000000000E+00 0. -1.
         -1   -1    0    0    0  501 -0.00000000000E+00 -0.00000000000E+00 -0.23204372337E+03  0.23204372337E+03  0.00000000000E+00 0.  1.
         23    2    1    2    0    0 -0.23248144759E+03 -0.21775387169E+03 -0.36626506562E+01  0.33163613436E+03  0.92221139065E+02 0.  0.
         13    1    3    3    0    0 -0.74240547766E+02 -0.98575146221E+02  0.38158164127E+02  0.12916951604E+03  0.00000000000E+00 0.  1.
        -13    1    3    3    0    0 -0.15824089983E+03 -0.11917872547E+03 -0.41820814783E+02  0.20246661831E+03  0.00000000000E+00 0. -1.
         22    1    1    2    0    0  0.23248144759E+03  0.21775387169E+03  0.32952377785E+03  0.45831243959E+03  0.00000000000E+00 0. -1.
<mgrwt>
<rscale>  0 0.71960633E+03</rscale>
<asrwt>0</asrwt>
<pdfrwt beam="1">  1        1 0.85831515E-01 0.71960633E+03</pdfrwt>
<pdfrwt beam="2">  1       -1 0.35699034E-01 0.71960633E+03</pdfrwt>
<totfact> 0.28806734E+02</totfact>
</mgrwt>
</event>
<event>
 6    1  0.1588846E-005  0.2105621E+04  0.7818608E-02  0.8558771E-01
          1   -1    0    0  501    0  0.00000000000E+00  0.00000000000E+00  0.60835769833E+03  0.60835769833E+03  0.00000000000E+00 0. -1.
         -1   -1    0    0    0  501 -0.00000000000E+00 -0.00000000000E+00 -0.18219709364E+04  0.18219709364E+04  0.00000000000E+00 0.  1.
         23    2    1    2    0    0 -0.39753684477E+03 -0.97233403608E+03 -0.56942869975E+03  0.11980775483E+04  0.87588508832E+02 0.  0.
         11    1    3    3    0    0 -0.13359847148E+03 -0.27829022158E+03 -0.20813432473E+03  0.37230887196E+03  0.00000000000E+00 0. -1.
        -11    1    3    3    0    0 -0.26393837328E+03 -0.69404381450E+03 -0.36129437503E+03  0.82576867630E+03  0.00000000000E+00 0.  1.
         22    1    1    2    0    0  0.39753684477E+03  0.97233403608E+03 -0.64418453828E+03  0.12322510864E+04  0.00000000000E+00 0. -1.
<mgrwt>
<rscale>  0 0.21056211E+04</rscale>
<asrwt>0</asrwt>
<pdfrwt beam="1">  1        1 0.93593495E-01 0.21056211E+04</pdfrwt>
<pdfrwt beam="2">  1       -1 0.28030321E+00 0.21056211E+04</pdfrwt>
<totfact> 0.13674665E+00</totfact>
</mgrwt>
</event>
<event>
 6    1  0.1588846E-005  0.4182389E+04  0.7818608E-02  0.7968731E-01
          1   -1    0    0  501    0  0.00000000000E+00  0.00000000000E+00  0.21048407850E+04  0.21048407850E+04  0.00000000000E+00 0. -1.
         -1   -1    0    0    0  501 -0.00000000000E+00 -0.00000000000E+00 -0.20776368848E+04  0.20776368848E+04  0.00000000000E+00 0.  1.
         23    2    1    2    0    0  0.17216590709E+04  0.83045428100E+03 -0.83225132113E+03  0.20866657635E+04  0.88133295019E+02 0.  0.
         13    1    3    3    0    0  0.12935551179E+03  0.79337712127E+02 -0.86441389705E+02  0.17464087394E+03  0.00000000000E+00 0.  1.
        -13    1    3    3    0    0  0.15923035591E+04  0.75111656887E+03 -0.74580993143E+03  0.19120248896E+04  0.00000000000E+00 0. -1.
         22    1    1    2    0    0 -0.17216590709E+04 -0.83045428100E+03  0.85945522126E+03  0.20958119063E+04  0.00000000000E+00 0. -1.
<mgrwt>
<rscale>  0 0.41823892E+04</rscale>
<asrwt>0</asrwt>
<pdfrwt beam="1">  1        1 0.32382166E+00 0.41823892E+04</pdfrwt>
<pdfrwt beam="2">  1       -1 0.31963644E+00 0.41823892E+04</pdfrwt>
<totfact> 0.47991821E-02</totfact>
</mgrwt>
</event>
<event>
 6    1  0.1588846E-005  0.3287554E+04  0.7818608E-02  0.8166070E-01
          2   -1    0    0  501    0  0.00000000000E+00  0.00000000000E+00  0.19830316428E+04  0.19830316428E+04  0.00000000000E+00 0. -1.
         -2   -1    0    0    0  501 -0.00000000000E+00 -0.00000000000E+00 -0.13625612459E+04  0.13625612459E+04  0.00000000000E+00 0.  1.
         23    2    1    2    0    0  0.79477552423E+03  0.11055478127E+04  0.12453997097E+04  0.18474471194E+04  0.90201563519E+02 0.  0.
         11    1    3    3    0    0  0.61309548607E+03  0.80412630313E+03  0.96030209688E+03  0.13945197394E+04  0.00000000000E+00 0. -1.
        -11    1    3    3    0    0  0.18168003816E+03  0.30142150960E+03  0.28509761281E+03  0.45292737999E+03  0.00000000000E+00 0.  1.
         22    1    1    2    0    0 -0.79477552423E+03 -0.11055478127E+04 -0.62492931279E+03  0.14981457693E+04  0.00000000000E+00 0.  1.
<mgrwt>
<rscale>  0 0.32875535E+04</rscale>
<asrwt>0</asrwt>
<pdfrwt beam="1">  1        2 0.30508179E+00 0.32875535E+04</pdfrwt>
<pdfrwt beam="2">  1       -2 0.20962481E+00 0.32875535E+04</pdfrwt>
<totfact> 0.65738845E-01</totfact>
</mgrwt>
</event>
<event>
 6    1  0.1588846E-005  0.1967419E+04  0.7818608E-02  0.8622007E-01
          2   -1    0    0  501    0  0.00000000000E+00  0.00000000000E+00  0.23040230397E+04  0.23040230397E+04  0.00000000000E+00 0.  1.
         -2   -1    0    0    0  501 -0.00000000000E+00 -0.00000000000E+00 -0.41999769204E+03  0.41999769204E+03  0.00000000000E+00 0. -1.
         23    2    1    2    0    0 -0.57178513427E+03  0.17849254168E+03  0.20205617320E+04  0.21096592653E+04  0.95888871355E+02 0.  0.
         11    1    3    3    0    0 -0.13431491419E+03  0.84390336164E+02  0.56807571763E+03  0.58980695653E+03  0.00000000000E+00 0. -1.
        -11    1    3    3    0    0 -0.43747022008E+03  0.94102205520E+02  0.14524860144E+04  0.15198523088E+04  0.00000000000E+00 0.  1.
         22    1    1    2    0    0  0.57178513427E+03 -0.17849254168E+03 -0.13653638434E+03  0.61436146645E+03  0.00000000000E+00 0. -1.
<mgrwt>
<rscale>  0 0.19674190E+04</rscale>
<asrwt>0</asrwt>
<pdfrwt beam="1">  1        2 0.35446508E+00 0.19674190E+04</pdfrwt>
<pdfrwt beam="2">  1       -2 0.64615031E-01 0.19674190E+04</pdfrwt>
<totfact> 0.92911451E+00</totfact>
</mgrwt>
</event>
<event>
 6    1  0.1588846E-005  0.2358872E+04  0.7818608E-02  0.8455064E-01
         -1   -1    0    0    0  501 -0.00000000000E+00  0.00000000000E+00  0.91955978479E+03  0.91955978479E+03  0.00000000000E+00 0.  1.
          1   -1    0    0  501    0  0.00000000000E+00 -0.00000000000E+00 -0.15127557442E+04  0.15127557442E+04  0.00000000000E+00 0. -1.
         23    2    1    2    0    0  0.35191774658E+03  0.63010619787E+03 -0.12568003418E+04  0.14518815958E+04  0.86793709559E+02 0.  0.
         13    1    3    3    0    0  0.27830668480E+03  0.46115859455E+03 -0.86660135742E+03  0.10203527688E+04  0.00000000000E+00 0. -1.
        -13    1    3    3    0    0  0.73611061782E+02  0.16894760332E+03 -0.39019898437E+03  0.43152882695E+03  0.00000000000E+00 0.  1.
         22    1    1    2    0    0 -0.35191774658E+03 -0.63010619787E+03  0.66360438243E+03  0.98043393318E+03  0.00000000000E+00 0.  1.
<mgrwt>
<rscale>  0 0.23588721E+04</rscale>
<asrwt>0</asrwt>
<pdfrwt beam="1">  1        1 0.23273165E+00 0.23588721E+04</pdfrwt>
<pdfrwt beam="2">  1       -1 0.14147074E+00 0.23588721E+04</pdfrwt>
<totfact> 0.23508653E+00</totfact>
</mgrwt>
</event>
<event>
 6    1  0.1588846E-005  0.1217630E+04  0.7818608E-02  0.9097563E-01
          3   -1    0    0  501    0  0.00000000000E+00  0.00000000000E+00  0.58395157361E+03  0.58395157361E+03  0.00000000000E+00 0. -1.
         -3   -1    0    0    0  501 -0.00000000000E+00 -0.00000000000E+00 -0.63473745664E+03  0.63473745664E+03  0.00000000000E+00 0.  1.
         23    2    1    2    0    0 -0.47529456102E+03 -0.36785609414E+03 -0.10034123903E+03  0.61563118969E+03  0.87808722445E+02 0.  0.
         13    1    3    3    0    0 -0.29336734428E+03 -0.23962194659E+03 -0.21141613606E+02  0.37938113264E+03  0.00000000000E+00 0.  1.
        -13    1    3    3    0    0 -0.18192721675E+03 -0.12823414756E+03 -0.79199625427E+02  0.23625005706E+03  0.00000000000E+00 0. -1.
         22    1    1    2    0    0  0.47529456102E+03  0.36785609414E+03  0.49555356005E+02  0.60305784055E+03  0.00000000000E+00 0. -1.
<mgrwt>
<rscale>  0 0.12176304E+04</rscale>
<asrwt>0</asrwt>
<pdfrwt beam="1">  1        3 0.89838704E-01 0.12176304E+04</pdfrwt>
<pdfrwt beam="2">  1       -3 0.97651916E-01 0.12176304E+04</pdfrwt>
<totfact> 0.26733919E+00</totfact>
</mgrwt>
</event>
<event>
 6    1  0.1588846E-005  0.1516699E+04  0.7818608E-02  0.8873423E-01
         -2   -1    0    0    0  501 -0.00000000000E+00  0.00000000000E+00  0.80267601560E+03  0.80267601560E+03  0.00000000000E+00 0. -1.
          2   -1    0    0  501    0  0.00000000000E+00 -0.00000000000E+00 -0.71647102474E+03  0.71647102474E+03  0.00000000000E+00 0.  1.
         23    2    1    2    0    0 -0.24454128952E+03 -0.25547483663E+02 -0.67295410725E+03  0.72116480216E+03  0.82209033637E+02 0.  0.
         11    1    3    3    0    0 -0.93303468215E+02 -0.46151706340E+02 -0.22479399127E+03  0.24772536344E+03  0.00000000000E+00 0. -1.
        -11    1    3    3    0    0 -0.15123782131E+03  0.20604222677E+02 -0.44816011598E+03  0.47343943872E+03  0.00000000000E+00 0.  1.
         22    1    1    2    0    0  0.24454128952E+03  0.25547483663E+02  0.75915909811E+03  0.79798223818E+03  0.00000000000E+00 0. -1.
<mgrwt>
<rscale>  0 0.15166992E+04</rscale>
<asrwt>0</asrwt>
<pdfrwt beam="1">  1        2 0.11022631E+00 0.15166992E+04</pdfrwt>
<pdfrwt beam="2">  1       -2 0.12348862E+00 0.15166992E+04</pdfrwt>
<totfact> 0.18971628E+01</totfact>
</mgrwt>
</event>
<event>
 6    1  0.1588846E-005  0.3805531E+04  0.7818608E-02  0.8044969E-01
          2   -1    0    0  501    0  0.00000000000E+00  0.00000000000E+00  0.13880229430E+04  0.13880229430E+04  0.00000000000E+00 0.  1.
         -2   -1    0    0    0  501 -0.00000000000E+00 -0.00000000000E+00 -0.26083987935E+04  0.26083987935E+04  0.00000000000E+00 0. -1.
         23    2    1    2    0    0 -0.13619372631E+04  0.13143485493E+04 -0.80953177761E+03  0.20596259110E+04  0.65817751796E+02 0.  0.
         11    1    3    3    0    0 -0.10672158639E+04  0.10515730980E+04 -0.66413655418E+03  0.16388511351E+04  0.00000000000E+00 0.  1.
        -11    1    3    3    0    0 -0.29472139925E+03  0.26277545130E+03 -0.14539522342E+03  0.42077477583E+03  0.00000000000E+00 0. -1.
         22    1    1    2    0    0  0.13619372631E+04 -0.13143485493E+04 -0.41084407291E+03  0.19367958256E+04  0.00000000000E+00 0.  1.
<mgrwt>
<rscale>  0 0.38055314E+04</rscale>
<asrwt>0</asrwt>
<pdfrwt beam="1">  1        2 0.21354199E+00 0.38055314E+04</pdfrwt>
<pdfrwt beam="2">  1       -2 0.40129212E+00 0.38055314E+04</pdfrwt>
<totfact> 0.85709506E-02</totfact>
</mgrwt>
</event>
<event>
 6    1  0.1588846E-005  0.1022783E+04  0.7818608E-02  0.9283903E-01
          2   -1    0    0  501    0  0.00000000000E+00  0.00000000000E+00  0.19269152348E+04  0.19269152348E+04  0.00000000000E+00 0. -1.
         -2   -1    0    0    0  501 -0.00000000000E+00 -0.00000000000E+00 -0.13572027400E+03  0.13572027400E+03  0.00000000000E+00 0.  1.
         23    2    1    2    0    0  0.20695326874E+03 -0.39711125274E+03  0.42211222048E+03  0.62217913934E+03  0.91657799776E+02 0.  0.
         13    1    3    3    0    0  0.77265772658E+02 -0.21472432067E+03  0.16677675064E+03  0.28264999216E+03  0.00000000000E+00 0. -1.
        -13    1    3    3    0    0  0.12968749608E+03 -0.18238693206E+03  0.25533546984E+03  0.33952914719E+03  0.00000000000E+00 0.  1.
         22    1    1    2    0    0 -0.20695326874E+03  0.39711125274E+03  0.13690827403E+04  0.14404563694E+04  0.00000000000E+00 0. -1.
<mgrwt>
<rscale>  0 0.10227834E+04</rscale>
<asrwt>0</asrwt>
<pdfrwt beam="1">  1        2 0.29644848E+00 0.10227834E+04</pdfrwt>
<pdfrwt beam="2">  1       -2 0.20880043E-01 0.10227834E+04</pdfrwt>
<totfact> 0.14528493E+02</totfact>
</mgrwt>
</event>
<event>
 6    1  0.1588846E-005  0.4273448E+04  0.7818608E-02  0.7951546E-01
         -2   -1    0    0    0  501 -0.00000000000E+00  0.00000000000E+00  0.15676149914E+04  0.15676149914E+04  0.00000000000E+00 0.  1.
          2   -1    0    0  501    0  0.00000000000E+00 -0.00000000000E+00 -0.29124429748E+04  0.29124429748E+04  0.00000000000E+00 0. -1.
         23    2    1    2    0    0  0.12760987455E+04 -0.67502411236E+03 -0.23227776731E+04  0.27363632807E+04  0.91117092043E+02 0.  0.
         11    1    3    3    0    0  0.81706412859E+03 -0.47379803434E+03 -0.15605943903E+04  0.18241527400E+04  0.00000000000E+00 0. -1.
        -11    1    3    3    0    0  0.45903461694E+03 -0.20122607802E+03 -0.76218328280E+03  0.91221054072E+03  0.00000000000E+00 0.  1.
         22    1    1    2    0    0 -0.12760987455E+04  0.67502411236E+03  0.97794968977E+03  0.17436946855E+04  0.00000000000E+00 0.  1.
<mgrwt>
<rscale>  0 0.42734479E+04</rscale>
<asrwt>0</asrwt>
<pdfrwt beam="1">  1        2 0.44806815E+00 0.42734479E+04</pdfrwt>
<pdfrwt beam="2">  1       -2 0.24117154E+00 0.42734479E+04</pdfrwt>
<totfact> 0.11091808E-01</totfact>
</mgrwt>
</event>
<event>
 6    1  0.1588846E-005  0.3776711E+03  0.7818608E-02  0.1051798E+00
          2   -1    0    0  501    0  0.00000000000E+00  0.00000000000E+00  0.62707023078E+03  0.62707023078E+03  0.00000000000E+00 0. -1.
         -2   -1    0    0    0  501 -0.00000000000E+00 -0.00000000000E+00 -0.56865825763E+02  0.56865825763E+02  0.00000000000E+00 0.  1.
         23    2    1    2    0    0  0.12252549777E+03  0.13215608414E+03  0.25200842528E+03  0.31824983900E+03  0.72780391808E+02 0.  0.
         11    1    3    3    0    0  0.62203559328E+02  0.28801551318E+02  0.13218954245E+03  0.14890563214E+03  0.00000000000E+00 0. -1.
        -11    1    3    3    0    0  0.60321938443E+02  0.10335453282E+03  0.11981888283E+03  0.16934420685E+03  0.00000000000E+00 0.  1.
         22    1    1    2    0    0 -0.12252549777E+03 -0.13215608414E+03  0.31819597974E+03  0.36568621755E+03  0.00000000000E+00 0. -1.
<mgrwt>
<rscale>  0 0.37767111E+03</rscale>
<asrwt>0</asrwt>
<pdfrwt beam="1">  1        2 0.96472338E-01 0.37767111E+03</pdfrwt>
<pdfrwt beam="2">  1       -2 0.87485890E-02 0.37767111E+03</pdfrwt>
<totfact> 0.39527973E+03</totfact>
</mgrwt>
</event>
<event>
 6    1  0.1588846E-005  0.4760458E+04  0.7818608E-02  0.7866560E-01
         -1   -1    0    0    0  501 -0.00000000000E+00  0.00000000000E+00  0.19632946229E+04  0.19632946229E+04  0.00000000000E+00 0.  1.
          1   -1    0    0  501    0  0.00000000000E+00 -0.00000000000E+00 -0.28857059534E+04  0.28857059534E+04  0.00000000000E+00 0. -1.
         23    2    1    2    0    0 -0.52953179444E+03  0.13949435515E+04  0.14265517723E+04  0.20662143662E+04  0.88996712857E+02 0.  0.
         13    1    3    3    0    0 -0.30000768410E+03  0.91055443876E+03  0.91464877239E+03  0.13250269330E+04  0.00000000000E+00 0. -1.
        -13    1    3    3    0    0 -0.22952411034E+03  0.48438911277E+03  0.51190299988E+03  0.74118743316E+03  0.00000000000E+00 0.  1.
         22    1    1    2    0    0  0.52953179444E+03 -0.13949435515E+04 -0.23489631028E+04  0.27827862101E+04  0.00000000000E+00 0. -1.
<mgrwt>
<rscale>  0 0.47604584E+04</rscale>
<asrwt>0</asrwt>
<pdfrwt beam="1">  1        1 0.44395476E+00 0.47604584E+04</pdfrwt>
<pdfrwt beam="2">  1       -1 0.30204533E+00 0.47604584E+04</pdfrwt>
<totfact> 0.17049894E-02</totfact>
</mgrwt>
</event>
<event>
 6    1  0.1588846E-005  0.1639825E+04  0.7818608E-02  0.8796449E-01
          1   -1    0    0  501    0  0.00000000000E+00  0.00000000000E+00  0.97913729402E+03  0.97913729402E+03  0.00000000000E+00 0. -1.
         -1   -1    0    0    0  501 -0.00000000000E+00 -0.00000000000E+00 -0.68658067472E+03  0.68658067472E+03  0.00000000000E+00 0.  1.
         23    2    1    2    0    0  0.23831602785E+02  0.53059922432E+03  0.77790822822E+03  0.94622532360E+03  0.89987050977E+02 0.  0.
         13    1    3    3    0    0 -0.28826048089E+02  0.14239935624E+03  0.17854261035E+03  0.23018684023E+03  0.00000000000E+00 0.  1.
        -13    1    3    3    0    0  0.52657650875E+02  0.38819986808E+03  0.59936561787E+03  0.71603848336E+03  0.00000000000E+00 0. -1.
         22    1    1    2    0    0 -0.23831602785E+02 -0.53059922432E+03 -0.48535160891E+03  0.71949264515E+03  0.00000000000E+00 0.  1.
<mgrwt>
<rscale>  0 0.16398253E+04</rscale>
<asrwt>0</asrwt>
<pdfrwt beam="1">  1        1 0.15063651E+00 0.16398253E+04</pdfrwt>
<pdfrwt beam="2">  1       -1 0.10562780E+00 0.16398253E+04</pdfrwt>
<totfact> 0.12620590E+01</totfact>
</mgrwt>
</event>
<event>
 6    1  0.1588846E-005  0.4452332E+04  0.7818608E-02  0.7919036E-01
          2   -1    0    0  501    0  0.00000000000E+00  0.00000000000E+00  0.29485641026E+04  0.29485641026E+04  0.00000000000E+00 0. -1.
         -2   -1    0    0    0  501 -0.00000000000E+00 -0.00000000000E+00 -0.16807553648E+04  0.16807553648E+04  0.00000000000E+00 0.  1.
         23    2    1    2    0    0 -0.65784676094E+02 -0.11097008258E+04  0.26384561053E+04  0.28645424979E+04  0.91594521556E+02 0.  0.
         11    1    3    3    0    0 -0.22206949220E+02 -0.52171567931E+02  0.14909102467E+03  0.15950910548E+03  0.00000000000E+00 0. -1.
        -11    1    3    3    0    0 -0.43577726873E+02 -0.10575292579E+04  0.24893650806E+04  0.27050333924E+04  0.00000000000E+00 0.  1.
         22    1    1    2    0    0  0.65784676094E+02  0.11097008258E+04 -0.13706473675E+04  0.17647769696E+04  0.00000000000E+00 0.  1.
<mgrwt>
<rscale>  0 0.44523319E+04</rscale>
<asrwt>0</asrwt>
<pdfrwt beam="1">  1        2 0.45362525E+00 0.44523319E+04</pdfrwt>
<pdfrwt beam="2">  1       -2 0.25857775E+00 0.44523319E+04</pdfrwt>
<totfact> 0.81136261E-02</totfact>
</mgrwt>
</event>
<event>
 6    1  0.1588846E-005  0.6452320E+03  0.7818608E-02  0.9815767E-01
          1   -1    0    0  501    0  0.00000000000E+00  0.00000000000E+00  0.10343521655E+04  0.10343521655E+04  0.00000000000E+00 0. -1.
         -1   -1    0    0    0  501 -0.00000000000E+00 -0.00000000000E+00 -0.10062441600E+03  0.10062441600E+03  0.00000000000E+00 0.  1.
         23    2    1    2    0    0 -0.17301633655E+03 -0.23958458508E+03  0.27743047999E+03  0.41521166703E+03  0.89986838466E+02 0.  0.
         11    1    3    3    0    0 -0.28494470987E+02 -0.32363056230E+02  0.45857275833E+01  0.43362785691E+02  0.00000000000E+00 0. -1.
        -11    1    3    3    0    0 -0.14452186556E+03 -0.20722152885E+03  0.27284475240E+03  0.37184888134E+03  0.00000000000E+00 0.  1.
         22    1    1    2    0    0  0.17301633655E+03  0.23958458508E+03  0.65629726953E+03  0.71976491448E+03  0.00000000000E+00 0. -1.
<mgrwt>
<rscale>  0 0.64523200E+03</rscale>
<asrwt>0</asrwt>
<pdfrwt beam="1">  1        1 0.15913110E+00 0.64523200E+03</pdfrwt>
<pdfrwt beam="2">  1       -1 0.15480680E-01 0.64523200E+03</pdfrwt>
<totfact> 0.45096297E+02</totfact>
</mgrwt>
</event>
<event>
 6    1  0.1588846E-005  0.1127906E+04  0.7818608E-02  0.9178411E-01
         -1   -1    0    0    0  501 -0.00000000000E+00  0.00000000000E+00  0.33905585753E+03  0.33905585753E+03  0.00000000000E+00 0.  1.
          1   -1    0    0  501    0  0.00000000000E+00 -0.00000000000E+00 -0.93802571495E+03  0.93802571495E+03  0.00000000000E+00 0. -1.
         23    2    1    2    0    0  0.10826367813E+03  0.53111559922E+03 -0.14363948331E+03  0.56917582075E+03  0.97591034573E+02 0.  0.
         11    1    3    3    0    0  0.54880599907E+02  0.27309080559E+03 -0.23350141954E+02  0.27952763275E+03  0.00000000000E+00 0.  1.
        -11    1    3    3    0    0  0.53383078224E+02  0.25802479363E+03 -0.12028934135E+03  0.28964818800E+03  0.00000000000E+00 0. -1.
         22    1    1    2    0    0 -0.10826367813E+03 -0.53111559922E+03 -0.45533037411E+03  0.70790575172E+03  0.00000000000E+00 0.  1.
<mgrwt>
<rscale>  0 0.11279062E+04</rscale>
<asrwt>0</asrwt>
<pdfrwt beam="1">  1        1 0.14431165E+00 0.11279062E+04</pdfrwt>
<pdfrwt beam="2">  1       -1 0.52162440E-01 0.11279062E+04</pdfrwt>
<totfact> 0.62371396E+01</totfact>
</mgrwt>
</event>
<event>
 6    1  0.1588846E-005  0.9120903E+03  0.7818608E-02  0.9410593E-01
          1   -1    0    0  501    0  0.00000000000E+00  0.00000000000E+00  0.45576749481E+03  0.45576749481E+03  0.00000000000E+00 0. -1.
         -1   -1    0    0    0  501 -0.00000000000E+00 -0.00000000000E+00 -0.45632295614E+03  0.45632295614E+03  0.00000000000E+00 0.  1.
         23    2    1    2    0    0  0.29016119560E+02 -0.29842015668E+03  0.33724467690E+03  0.46042081670E+03  0.91415705721E+02 0.  0.
         11    1    3    3    0    0 -0.92898624363E+01 -0.25591213081E+03  0.27000756932E+03  0.37213090134E+03  0.00000000000E+00 0.  1.
        -11    1    3    3    0    0  0.38305981997E+02 -0.42508025864E+02  0.67237107582E+02  0.88289915367E+02  0.00000000000E+00 0. -1.
         22    1    1    2    0    0 -0.29016119560E+02  0.29842015668E+03 -0.33780013823E+03  0.45166963424E+03  0.00000000000E+00 0.  1.
<mgrwt>
<rscale>  0 0.91209028E+03</rscale>
<asrwt>0</asrwt>
<pdfrwt beam="1">  1        1 0.70118076E-01 0.91209028E+03</pdfrwt>
<pdfrwt beam="2">  1       -1 0.70203532E-01 0.91209028E+03</pdfrwt>
<totfact> 0.10402080E+02</totfact>
</mgrwt>
</event>
<event>
 6    1  0.1588846E-005  0.1089672E+04  0.7818608E-02  0.9215317E-01
         -2   -1    0    0    0  501 -0.00000000000E+00  0.00000000000E+00  0.45637166828E+03  0.45637166828E+03  0.00000000000E+00 0.  1.
          2   -1    0    0  501    0  0.00000000000E+00 -0.00000000000E+00 -0.65044873508E+03  0.65044873508E+03  0.00000000000E+00 0. -1.
         23    2    1    2    0    0  0.85447852498E+01 -0.49658837547E+03  0.12036389682E+03  0.51898866927E+03  0.90491674535E+02 0.  0.
         13    1    3    3    0    0  0.98575157708E+01 -0.94463329967E+02 -0.11784363772E+02  0.95704558695E+02  0.00000000000E+00 0. -1.
        -13    1    3    3    0    0 -0.13127305211E+01 -0.40212504550E+03  0.13214826059E+03  0.42328411057E+03  0.00000000000E+00 0.  1.
         22    1    1    2    0    0 -0.85447852498E+01  0.49658837547E+03 -0.31444096362E+03  0.58783173409E+03  0.00000000000E+00 0.  1.
<mgrwt>
<rscale>  0 0.10896722E+04</rscale>
<asrwt>0</asrwt>
<pdfrwt beam="1">  1        2 0.10006904E+00 0.10896722E+04</pdfrwt>
<pdfrwt beam="2">  1       -2 0.70211026E-01 0.10896722E+04</pdfrwt>
<totfact> 0.82472522E+01</totfact>
</mgrwt>
</event>
<event>
 6    1  0.1588846E-005  0.2209158E+04  0.7818608E-02  0.8514626E-01
          1   -1    0    0  501    0  0.00000000000E+00  0.00000000000E+00  0.34587278359E+04  0.34587278359E+04  0.00000000000E+00 0. -1.
         -1   -1    0    0    0  501 -0.00000000000E+00 -0.00000000000E+00 -0.35275827648E+03  0.35275827648E+03  0.00000000000E+00 0.  1.
         23    2    1    2    0    0  0.65226496012E+03 -0.10009124670E+03  0.30798460111E+04  0.31510693685E+04  0.91207876521E+02 0.  0.
         13    1    3    3    0    0  0.13091208332E+03  0.12799308864E+02  0.68800967576E+03  0.70047063450E+03  0.00000000000E+00 0.  1.
        -13    1    3    3    0    0  0.52135287681E+03 -0.11289055556E+03  0.23918363354E+04  0.24505987340E+04  0.00000000000E+00 0. -1.
         22    1    1    2    0    0 -0.65226496012E+03  0.10009124670E+03  0.26123548291E+02  0.66041674392E+03  0.00000000000E+00 0.  1.
<mgrwt>
<rscale>  0 0.22091581E+04</rscale>
<asrwt>0</asrwt>
<pdfrwt beam="1">  1        1 0.53211195E+00 0.22091581E+04</pdfrwt>
<pdfrwt beam="2">  1       -1 0.54270506E-01 0.22091581E+04</pdfrwt>
<totfact> 0.84318840E-01</totfact>
</mgrwt>
</event>
<event>
 6    1  0.1588846E-005  0.3117674E+04  0.7818608E-02  0.8210904E-01
          2   -1    0    0  501    0  0.00000000000E+00  0.00000000000E+00  0.12239259190E+04  0.12239259190E+04  0.00000000000E+00 0. -1.
         -2   -1    0    0    0  501 -0.00000000000E+00 -0.00000000000E+00 -0.19853926010E+04  0.19853926010E+04  0.00000000000E+00 0.  1.
         23    2    1    2    0    0 -0.48865172561E+03 -0.43441373212E+03  0.10740048601E+04  0.12608700137E+04  0.93866672973E+02 0.  0.
         11    1    3    3    0    0 -0.33983495246E+03 -0.30567963904E+03  0.66431320062E+03  0.80637451916E+03  0.00000000000E+00 0.  1.
        -11    1    3    3    0    0 -0.14881677316E+03 -0.12873409308E+03  0.40969165952E+03  0.45449549456E+03  0.00000000000E+00 0. -1.
         22    1    1    2    0    0  0.48865172561E+03  0.43441373212E+03 -0.18354715421E+04  0.19484485062E+04  0.00000000000E+00 0.  1.
<mgrwt>
<rscale>  0 0.31176744E+04</rscale>
<asrwt>0</asrwt>
<pdfrwt beam="1">  1        2 0.18829630E+00 0.31176744E+04</pdfrwt>
<pdfrwt beam="2">  1       -2 0.30544501E+00 0.31176744E+04</pdfrwt>
<totfact> 0.45727814E-01</totfact>
</mgrwt>
</event>
<event>
 6    1  0.1588846E-005  0.4132805E+04  0.7818608E-02  0.7978279E-01
          1   -1    0    0  501    0  0.00000000000E+00  0.00000000000E+00  0.29634737213E+04  0.29634737213E+04  0.00000000000E+00 0. -1.
         -1   -1    0    0    0  501 -0.00000000000E+00 -0.00000000000E+00 -0.14408831668E+04  0.14408831668E+04  0.00000000000E+00 0.  1.
         23    2    1    2    0    0 -0.14297343195E+03 -0.20099078523E+04  0.12449005884E+04  0.23703257442E+04  0.92172022920E+02 0.  0.
         11    1    3    3    0    0 -0.12132825907E+03 -0.11272180512E+04  0.67612183644E+03  0.13200309917E+04  0.00000000000E+00 0. -1.
        -11    1    3    3    0    0 -0.21645172877E+02 -0.88268980108E+03  0.56877875192E+03  0.10502947525E+04  0.00000000000E+00 0.  1.
         22    1    1    2    0    0  0.14297343195E+03  0.20099078523E+04  0.27768996613E+03  0.20340311438E+04  0.00000000000E+00 0. -1.
<mgrwt>
<rscale>  0 0.41328051E+04</rscale>
<asrwt>0</asrwt>
<pdfrwt beam="1">  1        1 0.45591903E+00 0.41328051E+04</pdfrwt>
<pdfrwt beam="2">  1       -1 0.22167433E+00 0.41328051E+04</pdfrwt>
<totfact> 0.52747319E-02</totfact>
</mgrwt>
</event>
<event>
 6    1  0.1588846E-005  0.1077485E+04  0.7818608E-02  0.9227418E-01
          2   -1    0    0  501    0  0.00000000000E+00  0.00000000000E+00  0.48906477722E+03  0.48906477722E+03  0.00000000000E+00 0. -1.
         -2   -1    0    0    0  501 -0.00000000000E+00 -0.00000000000E+00 -0.59346674821E+03  0.59346674821E+03  0.00000000000E+00 0.  1.
         23    2    1    2    0    0 -0.35882199827E+03  0.10448809762E+03  0.33259900740E+03  0.50751774811E+03  0.85329806850E+02 0.  0.
         13    1    3    3    0    0 -0.31664388453E+03  0.69863268415E+02  0.25432291345E+03  0.41209752509E+03  0.00000000000E+00 0.  1.
        -13    1    3    3    0    0 -0.42178113742E+02  0.34624829208E+02  0.78276093953E+02  0.95420223020E+02  0.00000000000E+00 0. -1.
         22    1    1    2    0    0  0.35882199827E+03 -0.10448809762E+03 -0.43700097839E+03  0.57501377732E+03  0.00000000000E+00 0.  1.
<mgrwt>
<rscale>  0 0.10774854E+04</rscale>
<asrwt>0</asrwt>
<pdfrwt beam="1">  1        2 0.75240735E-01 0.10774854E+04</pdfrwt>
<pdfrwt beam="2">  1       -2 0.91302576E-01 0.10774854E+04</pdfrwt>
<totfact> 0.64243646E+01</totfact>
</mgrwt>
</event>
<event>
 6    1  0.1976078E-005  0.3462153E+04  0.7818608E-02  0.8122818E-01
         -2   -1    0    0    0  501 -0.00000000000E+00  0.00000000000E+00  0.14197834543E+04  0.14197834543E+04  0.00000000000E+00 0.  1.
          2   -1    0    0  501    0  0.00000000000E+00 -0.00000000000E+00 -0.21106213769E+04  0.21106213769E+04  0.00000000000E+00 0. -1.
         23    2    1    2    0    0  0.74124438668E+03  0.38280385708E+03 -0.18909305041E+04  0.20688288879E+04  0.91938905668E+02 0.  0.
         13    1    3    3    0    0  0.49316763530E+03  0.21015466404E+03 -0.11604002897E+04  0.12782441596E+04  0.00000000000E+00 0. -1.
        -13    1    3    3    0    0  0.24807675138E+03  0.17264919304E+03 -0.73053021442E+03  0.79058472829E+03  0.00000000000E+00 0.  1.
         22    1    1    2    0    0 -0.74124438668E+03 -0.38280385708E+03  0.12000925815E+04  0.14615759432E+04  0.00000000000E+00 0.  1.
<mgrwt>
<rscale>  0 0.34621527E+04</rscale>
<asrwt>0</asrwt>
<pdfrwt beam="1">  1        2 0.32471098E+00 0.34621527E+04</pdfrwt>
<pdfrwt beam="2">  1       -2 0.21842823E+00 0.34621527E+04</pdfrwt>
<totfact> 0.48317230E-01</totfact>
</mgrwt>
</event>
<event>
 6    1  0.1588846E-005  0.2603030E+04  0.7818608E-02  0.8367173E-01
         -1   -1    0    0    0  501 -0.00000000000E+00  0.00000000000E+00  0.11197966218E+04  0.11197966218E+04  0.00000000000E+00 0.  1.
          1   -1    0    0  501    0  0.00000000000E+00 -0.00000000000E+00 -0.15127217362E+04  0.15127217362E+04  0.00000000000E+00 0. -1.
         23    2    1    2    0    0 -0.43188827117E+03  0.11568355767E+04  0.21393783388E+03  0.12566264043E+04  0.92436427042E+02 0.  0.
         11    1    3    3    0    0 -0.21170114390E+03  0.59767820326E+03  0.15543067065E+03  0.65283635190E+03  0.00000000000E+00 0.  1.
        -11    1    3    3    0    0 -0.22018712728E+03  0.55915737339E+03  0.58507163229E+02  0.60379005241E+03  0.00000000000E+00 0. -1.
         22    1    1    2    0    0  0.43188827117E+03 -0.11568355767E+04 -0.60686294835E+03  0.13758919537E+04  0.00000000000E+00 0.  1.
<mgrwt>
<rscale>  0 0.26030295E+04</rscale>
<asrwt>0</asrwt>
<pdfrwt beam="1">  1        1 0.23272642E+00 0.26030295E+04</pdfrwt>
<pdfrwt beam="2">  1       -1 0.17227640E+00 0.26030295E+04</pdfrwt>
<totfact> 0.13365045E+00</totfact>
</mgrwt>
</event>
<event>
 6    1  0.1588846E-005  0.5667307E+03  0.7818608E-02  0.9976939E-01
          1   -1    0    0  501    0  0.00000000000E+00  0.00000000000E+00  0.81747885795E+03  0.81747885795E+03  0.00000000000E+00 0. -1.
         -1   -1    0    0    0  501 -0.00000000000E+00 -0.00000000000E+00 -0.98223858888E+02  0.98223858888E+02  0.00000000000E+00 0.  1.
         23    2    1    2    0    0 -0.17707164859E+03  0.20960001513E+03  0.41401386738E+03  0.50526553096E+03  0.92732083557E+02 0.  0.
         11    1    3    3    0    0 -0.16576144247E+03  0.21630152768E+03  0.37128697018E+03  0.46056185352E+03  0.00000000000E+00 0.  1.
        -11    1    3    3    0    0 -0.11310206121E+02 -0.67015125566E+01  0.42726897199E+02  0.44703677447E+02  0.00000000000E+00 0. -1.
         22    1    1    2    0    0  0.17707164859E+03 -0.20960001513E+03  0.30524113168E+03  0.41043718587E+03  0.00000000000E+00 0. -1.
<mgrwt>
<rscale>  0 0.56673072E+03</rscale>
<asrwt>0</asrwt>
<pdfrwt beam="1">  1        1 0.12576597E+00 0.56673072E+03</pdfrwt>
<pdfrwt beam="2">  1       -1 0.15111363E-01 0.56673072E+03</pdfrwt>
<totfact> 0.70163835E+02</totfact>
</mgrwt>
</event>
<event>
 6    1  0.1588846E-005  0.1701727E+04  0.7818608E-02  0.8760380E-01
         -1   -1    0    0    0  501 -0.00000000000E+00  0.00000000000E+00  0.22628764567E+03  0.22628764567E+03  0.00000000000E+00 0. -1.
          1   -1    0    0  501    0  0.00000000000E+00 -0.00000000000E+00 -0.31993304642E+04  0.31993304642E+04  0.00000000000E+00 0.  1.
         23    2    1    2    0    0  0.67090076940E+03  0.78249027917E+01 -0.44532124129E+03  0.81036564720E+03  0.90622308145E+02 0.  0.
         13    1    3    3    0    0  0.12231921540E+03  0.26764949665E+02 -0.11322410940E+03  0.16881366040E+03  0.00000000000E+00 0.  1.
        -13    1    3    3    0    0  0.54858155399E+03 -0.18940046873E+02 -0.33209713189E+03  0.64155198680E+03  0.00000000000E+00 0. -1.
         22    1    1    2    0    0 -0.67090076940E+03 -0.78249027917E+01 -0.25277215772E+04  0.26152524627E+04  0.00000000000E+00 0.  1.
<mgrwt>
<rscale>  0 0.17017273E+04</rscale>
<asrwt>0</asrwt>
<pdfrwt beam="1">  1        1 0.49220463E+00 0.17017273E+04</pdfrwt>
<pdfrwt beam="2">  1       -1 0.34813488E-01 0.17017273E+04</pdfrwt>
<totfact> 0.31894857E+00</totfact>
</mgrwt>
</event>
<event>
 6    1  0.1588846E-005  0.1534161E+04  0.7818608E-02  0.8862049E-01
         -2   -1    0    0    0  501 -0.00000000000E+00  0.00000000000E+00  0.63736187761E+03  0.63736187761E+03  0.00000000000E+00 0.  1.
          2   -1    0    0  501    0  0.00000000000E+00 -0.00000000000E+00 -0.92320016284E+03  0.92320016284E+03  0.00000000000E+00 0. -1.
         23    2    1    2    0    0  0.73036046263E+03  0.22607972543E+03 -0.12860126389E+03  0.78000971773E+03  0.85664619672E+02 0.  0.
         13    1    3    3    0    0  0.52860717760E+03  0.13263847085E+03 -0.65685243673E+02  0.54893812347E+03  0.00000000000E+00 0.  1.
        -13    1    3    3    0    0  0.20175328503E+03  0.93441254572E+02 -0.62916020221E+02  0.23107159427E+03  0.00000000000E+00 0. -1.
         22    1    1    2    0    0 -0.73036046263E+03 -0.22607972543E+03 -0.15723702133E+03  0.78055232272E+03  0.00000000000E+00 0.  1.
<mgrwt>
<rscale>  0 0.15341611E+04</rscale>
<asrwt>0</asrwt>
<pdfrwt beam="1">  1        2 0.14203079E+00 0.15341611E+04</pdfrwt>
<pdfrwt beam="2">  1       -2 0.98055674E-01 0.15341611E+04</pdfrwt>
<totfact> 0.23591152E+01</totfact>
</mgrwt>
</event>
<event>
 6    1  0.1588846E-005  0.1311847E+04  0.7818608E-02  0.9020223E-01
         -2   -1    0    0    0  501 -0.00000000000E+00  0.00000000000E+00  0.69697048607E+03  0.69697048607E+03  0.00000000000E+00 0. -1.
          2   -1    0    0  501    0  0.00000000000E+00 -0.00000000000E+00 -0.61729377273E+03  0.61729377273E+03  0.00000000000E+00 0.  1.
         23    2    1    2    0    0  0.38872790161E+02 -0.63383506531E+03 -0.11154183960E+03  0.65107309568E+03  0.90535131880E+02 0.  0.
         11    1    3    3    0    0  0.15096359174E+02 -0.12567815072E+03 -0.58992870727E+02  0.13965334377E+03  0.00000000000E+00 0.  1.
        -11    1    3    3    0    0  0.23776430987E+02 -0.50815691459E+03 -0.52548968872E+02  0.51141975192E+03  0.00000000000E+00 0. -1.
         22    1    1    2    0    0 -0.38872790161E+02  0.63383506531E+03  0.19121855294E+03  0.66319116311E+03  0.00000000000E+00 0. -1.
<mgrwt>
<rscale>  0 0.13118469E+04</rscale>
<asrwt>0</asrwt>
<pdfrwt beam="1">  1        2 0.94968272E-01 0.13118469E+04</pdfrwt>
<pdfrwt beam="2">  1       -2 0.10722623E+00 0.13118469E+04</pdfrwt>
<totfact> 0.32796316E+01</totfact>
</mgrwt>
</event>
<event>
 6    1  0.1588846E-005  0.7336998E+03  0.7818608E-02  0.9661276E-01
         -2   -1    0    0    0  501 -0.00000000000E+00  0.00000000000E+00  0.32539855898E+03  0.32539855898E+03  0.00000000000E+00 0.  1.
          2   -1    0    0  501    0  0.00000000000E+00 -0.00000000000E+00 -0.41358160670E+03  0.41358160670E+03  0.00000000000E+00 0. -1.
         23    2    1    2    0    0 -0.35097384207E+03  0.60777068708E+02 -0.98459333451E+02  0.38263469854E+03  0.99189627896E+02 0.  0.
         13    1    3    3    0    0 -0.10012367798E+03  0.25828178264E+02 -0.76080719192E+02  0.12837492558E+03  0.00000000000E+00 0. -1.
        -13    1    3    3    0    0 -0.25085016410E+03  0.34948890445E+02 -0.22378614259E+02  0.25425977296E+03  0.00000000000E+00 0.  1.
         22    1    1    2    0    0  0.35097384207E+03 -0.60777068708E+02  0.10276285735E+02  0.35634546714E+03  0.00000000000E+00 0.  1.
<mgrwt>
<rscale>  0 0.73369983E+03</rscale>
<asrwt>0</asrwt>
<pdfrwt beam="1">  1        2 0.63627940E-01 0.73369983E+03</pdfrwt>
<pdfrwt beam="2">  1       -2 0.50061317E-01 0.73369983E+03</pdfrwt>
<totfact> 0.29155353E+02</totfact>
</mgrwt>
</event>
<event>
 6    1  0.1588846E-005  0.1726722E+04  0.7818608E-02  0.8746269E-01
         -2   -1    0    0    0  501 -0.00000000000E+00  0.00000000000E+00  0.32138648337E+03  0.32138648337E+03  0.00000000000E+00 0.  1.
          2   -1    0    0  501    0  0.00000000000E+00 -0.00000000000E+00 -0.23193022649E+04  0.23193022649E+04  0.00000000000E+00 0. -1.
         23    2    1    2    0    0  0.98129008212E+02  0.78400390099E+03 -0.15246991724E+04  0.17196972292E+04  0.91430710256E+02 0.  0.
         11    1    3    3    0    0  0.89911410831E+01  0.43419484254E+03 -0.84735675094E+03  0.95216567113E+03  0.00000000000E+00 0.  1.
        -11    1    3    3    0    0  0.89137867129E+02  0.34980905846E+03 -0.67734242149E+03  0.76753155811E+03  0.00000000000E+00 0. -1.
         22    1    1    2    0    0 -0.98129008212E+02 -0.78400390099E+03 -0.47321660912E+03  0.92099151906E+03  0.00000000000E+00 0.  1.
<mgrwt>
<rscale>  0 0.17267222E+04</rscale>
<asrwt>0</asrwt>
<pdfrwt beam="1">  1        2 0.35681573E+00 0.17267222E+04</pdfrwt>
<pdfrwt beam="2">  1       -2 0.49444075E-01 0.17267222E+04</pdfrwt>
<totfact> 0.16264320E+01</totfact>
</mgrwt>
</event>
<event>
 6    1  0.1588846E-005  0.1413534E+04  0.7818608E-02  0.8944080E-01
          1   -1    0    0  501    0  0.00000000000E+00  0.00000000000E+00  0.62677826488E+03  0.62677826488E+03  0.00000000000E+00 0. -1.
         -1   -1    0    0    0  501 -0.00000000000E+00 -0.00000000000E+00 -0.79696383727E+03  0.79696383727E+03  0.00000000000E+00 0.  1.
         23    2    1    2    0    0  0.43378456970E+03 -0.35348879922E+03 -0.51534518537E+03  0.76627838260E+03  0.92078854653E+02 0.  0.
         11    1    3    3    0    0  0.23585890566E+03 -0.13292524650E+03 -0.24865769654E+03  0.36759923094E+03  0.00000000000E+00 0. -1.
        -11    1    3    3    0    0  0.19792566404E+03 -0.22056355272E+03 -0.26668748882E+03  0.39867915166E+03  0.00000000000E+00 0.  1.
         22    1    1    2    0    0 -0.43378456970E+03  0.35348879922E+03  0.34515961298E+03  0.65746371954E+03  0.00000000000E+00 0. -1.
<mgrwt>
<rscale>  0 0.14135340E+04</rscale>
<asrwt>0</asrwt>
<pdfrwt beam="1">  1        1 0.96427425E-01 0.14135340E+04</pdfrwt>
<pdfrwt beam="2">  1       -1 0.12260982E+00 0.14135340E+04</pdfrwt>
<totfact> 0.18383858E+01</totfact>
</mgrwt>
</event>
<event>
 6    1  0.1588846E-005  0.2456408E+04  0.7818608E-02  0.8418682E-01
         -1   -1    0    0    0  501 -0.00000000000E+00  0.00000000000E+00  0.77751766081E+03  0.77751766081E+03  0.00000000000E+00 0.  1.
          1   -1    0    0  501    0  0.00000000000E+00 -0.00000000000E+00 -0.19401299299E+04  0.19401299299E+04  0.00000000000E+00 0. -1.
         23    2    1    2    0    0  0.16196326555E+03  0.12117355999E+04 -0.47336954857E+03  0.13142264881E+04  0.92613546145E+02 0.  0.
         13    1    3    3    0    0  0.15319186539E+03  0.99125268821E+03 -0.41865903644E+03  0.10868877717E+04  0.00000000000E+00 0. -1.
        -13    1    3    3    0    0  0.87714001596E+01  0.22048291171E+03 -0.54710512122E+02  0.22733871636E+03  0.00000000000E+00 0.  1.
         22    1    1    2    0    0 -0.16196326555E+03 -0.12117355999E+04 -0.68924272050E+03  0.14034211026E+04  0.00000000000E+00 0.  1.
<mgrwt>
<rscale>  0 0.24564082E+04</rscale>
<asrwt>0</asrwt>
<pdfrwt beam="1">  1        1 0.29848153E+00 0.24564082E+04</pdfrwt>
<pdfrwt beam="2">  1       -1 0.11961810E+00 0.24564082E+04</pdfrwt>
<totfact> 0.18204575E+00</totfact>
</mgrwt>
</event>
<event>
 6    1  0.1588846E-005  0.3081321E+04  0.7818608E-02  0.8220883E-01
          1   -1    0    0  501    0  0.00000000000E+00  0.00000000000E+00  0.92812765900E+03  0.92812765900E+03  0.00000000000E+00 0. -1.
         -1   -1    0    0    0  501 -0.00000000000E+00 -0.00000000000E+00 -0.25574447900E+04  0.25574447900E+04  0.00000000000E+00 0.  1.
         23    2    1    2    0    0 -0.16619411186E+03  0.90568289551E+03  0.57987953788E+03  0.10921581698E+04  0.93097794830E+02 0.  0.
         13    1    3    3    0    0 -0.67384695612E+02  0.19662178373E+03  0.10310773047E+03  0.23201729919E+03  0.00000000000E+00 0. -1.
        -13    1    3    3    0    0 -0.98809416244E+02  0.70906111177E+03  0.47677180742E+03  0.86014087062E+03  0.00000000000E+00 0.  1.
         22    1    1    2    0    0  0.16619411186E+03 -0.90568289551E+03 -0.22091966689E+04  0.23934142792E+04  0.00000000000E+00 0.  1.
<mgrwt>
<rscale>  0 0.30813213E+04</rscale>
<asrwt>0</asrwt>
<pdfrwt beam="1">  1        1 0.14278887E+00 0.30813213E+04</pdfrwt>
<pdfrwt beam="2">  1       -1 0.39345303E+00 0.30813213E+04</pdfrwt>
<totfact> 0.11559204E-01</totfact>
</mgrwt>
</event>
<event>
 6    1  0.1588846E-005  0.1960212E+04  0.7818608E-02  0.8625452E-01
         -2   -1    0    0    0  501 -0.00000000000E+00  0.00000000000E+00  0.75437136091E+03  0.75437136091E+03  0.00000000000E+00 0.  1.
          2   -1    0    0  501    0  0.00000000000E+00 -0.00000000000E+00 -0.12733884254E+04  0.12733884254E+04  0.00000000000E+00 0. -1.
         23    2    1    2    0    0 -0.61091650614E+03  0.52063968224E+03 -0.83798957990E+03  0.11640305916E+04  0.91956652853E+02 0.  0.
         11    1    3    3    0    0 -0.41738459789E+03  0.34040562743E+03 -0.62031608805E+03  0.82150955128E+03  0.00000000000E+00 0. -1.
        -11    1    3    3    0    0 -0.19353190824E+03  0.18023405480E+03 -0.21767349185E+03  0.34252104033E+03  0.00000000000E+00 0.  1.
         22    1    1    2    0    0  0.61091650614E+03 -0.52063968224E+03  0.31897251541E+03  0.86372919470E+03  0.00000000000E+00 0.  1.
<mgrwt>
<rscale>  0 0.19602120E+04</rscale>
<asrwt>0</asrwt>
<pdfrwt beam="1">  1        2 0.19590591E+00 0.19602120E+04</pdfrwt>
<pdfrwt beam="2">  1       -2 0.11605713E+00 0.19602120E+04</pdfrwt>
<totfact> 0.92104943E+00</totfact>
</mgrwt>
</event>
<event>
 6    1  0.1588846E-005  0.2436800E+04  0.7818608E-02  0.8425853E-01
         -1   -1    0    0    0  501 -0.00000000000E+00  0.00000000000E+00  0.14996216616E+04  0.14996216616E+04  0.00000000000E+00 0.  1.
          1   -1    0    0  501    0  0.00000000000E+00 -0.00000000000E+00 -0.98991543043E+03  0.98991543043E+03  0.00000000000E+00 0. -1.
         23    2    1    2    0    0 -0.10881495121E+04  0.13641477007E+03 -0.28340955230E+03  0.11361299115E+04  0.88271463602E+02 0.  0.
         13    1    3    3    0    0 -0.66798339824E+03  0.45527371549E+02 -0.15145173243E+03  0.68644897053E+03  0.00000000000E+00 0. -1.
        -13    1    3    3    0    0 -0.42016611389E+03  0.90887398519E+02 -0.13195781986E+03  0.44968094100E+03  0.00000000000E+00 0.  1.
         22    1    1    2    0    0  0.10881495121E+04 -0.13641477007E+03  0.79311578342E+03  0.13534071805E+04  0.00000000000E+00 0.  1.
<mgrwt>
<rscale>  0 0.24368001E+04</rscale>
<asrwt>0</asrwt>
<pdfrwt beam="1">  1        1 0.15229468E+00 0.24368001E+04</pdfrwt>
<pdfrwt beam="2">  1       -1 0.23071103E+00 0.24368001E+04</pdfrwt>
<totfact> 0.12851747E+00</totfact>
</mgrwt>
</event>
<event>
 6    1  0.1588846E-005  0.4281986E+04  0.7818608E-02  0.7949957E-01
         -3   -1    0    0    0  501 -0.00000000000E+00  0.00000000000E+00  0.15688085362E+04  0.15688085362E+04  0.00000000000E+00 0. -1.
          3   -1    0    0  501    0  0.00000000000E+00 -0.00000000000E+00 -0.29218675467E+04  0.29218675467E+04  0.00000000000E+00 0.  1.
         23    2    1    2    0    0  0.10168085535E+04 -0.13011515703E+04 -0.21043529458E+04  0.26764716786E+04  0.91127836190E+02 0.  0.
         11    1    3    3    0    0  0.45205695809E+03 -0.61993786082E+03 -0.91657976559E+03  0.11953229318E+04  0.00000000000E+00 0.  1.
        -11    1    3    3    0    0  0.56475159538E+03 -0.68121370949E+03 -0.11877731802E+04  0.14811487467E+04  0.00000000000E+00 0. -1.
         22    1    1    2    0    0 -0.10168085535E+04  0.13011515703E+04  0.75129393524E+03  0.18142044043E+04  0.00000000000E+00 0. -1.
<mgrwt>
<rscale>  0 0.42819859E+04</rscale>
<asrwt>0</asrwt>
<pdfrwt beam="1">  1        3 0.44951808E+00 0.42819859E+04</pdfrwt>
<pdfrwt beam="2">  1       -3 0.24135516E+00 0.42819859E+04</pdfrwt>
<totfact> 0.10005905E-03</totfact>
</mgrwt>
</event>
<event>
 6    1  0.1588846E-005  0.1198496E+04  0.7818608E-02  0.9114174E-01
         -2   -1    0    0    0  501 -0.00000000000E+00  0.00000000000E+00  0.11825170840E+04  0.11825170840E+04  0.00000000000E+00 0.  1.
          2   -1    0    0  501    0  0.00000000000E+00 -0.00000000000E+00 -0.30367283217E+03  0.30367283217E+03  0.00000000000E+00 0. -1.
         23    2    1    2    0    0 -0.45105909671E+03 -0.38764844263E+03  0.40479246503E+03  0.72563043766E+03  0.94641262179E+02 0.  0.
         13    1    3    3    0    0 -0.40466348430E+03 -0.36379445130E+03  0.33686614292E+03  0.63998260645E+03  0.00000000000E+00 0. -1.
        -13    1    3    3    0    0 -0.46395612409E+02 -0.23853991334E+02  0.67926322114E+02  0.85647831201E+02  0.00000000000E+00 0.  1.
         22    1    1    2    0    0  0.45105909671E+03  0.38764844263E+03  0.47405178681E+03  0.76055947853E+03  0.00000000000E+00 0. -1.
<mgrwt>
<rscale>  0 0.11984962E+04</rscale>
<asrwt>0</asrwt>
<pdfrwt beam="1">  1        2 0.46718898E-01 0.11984962E+04</pdfrwt>
<pdfrwt beam="2">  1       -2 0.18192570E+00 0.11984962E+04</pdfrwt>
<totfact> 0.18777550E+01</totfact>
</mgrwt>
</event>
<event>
 6    1  0.1588846E-005  0.2428789E+04  0.7818608E-02  0.8428803E-01
          2   -1    0    0  501    0  0.00000000000E+00  0.00000000000E+00  0.30547681198E+04  0.30547681198E+04  0.00000000000E+00 0.  1.
         -2   -1    0    0    0  501 -0.00000000000E+00 -0.00000000000E+00 -0.48277106702E+03  0.48277106702E+03  0.00000000000E+00 0. -1.
         23    2    1    2    0    0 -0.16902040712E+03  0.10256404525E+04  0.21974644039E+04  0.24326496263E+04  0.91805022299E+02 0.  0.
         11    1    3    3    0    0 -0.12323459428E+03  0.70931098293E+03  0.14208885171E+04  0.15928694277E+04  0.00000000000E+00 0. -1.
        -11    1    3    3    0    0 -0.45785812843E+02  0.31632946956E+03  0.77657588680E+03  0.83978019858E+03  0.00000000000E+00 0.  1.
         22    1    1    2    0    0  0.16902040712E+03 -0.10256404525E+04  0.37453264882E+03  0.11048895605E+04  0.00000000000E+00 0. -1.
<mgrwt>
<rscale>  0 0.24287887E+04</rscale>
<asrwt>0</asrwt>
<pdfrwt beam="1">  1        2 0.46996432E+00 0.24287887E+04</pdfrwt>
<pdfrwt beam="2">  1       -2 0.74272473E-01 0.24287887E+04</pdfrwt>
<totfact> 0.23549996E+00</totfact>
</mgrwt>
</event>
<event>
 6    1  0.1588846E-005  0.4802737E+04  0.7818608E-02  0.7859679E-01
         -2   -1    0    0    0  501 -0.00000000000E+00  0.00000000000E+00  0.35139787022E+04  0.35139787022E+04  0.00000000000E+00 0. -1.
          2   -1    0    0  501    0  0.00000000000E+00 -0.00000000000E+00 -0.16410372546E+04  0.16410372546E+04  0.00000000000E+00 0.  1.
         23    2    1    2    0    0 -0.90657849670E+03  0.22226173369E+04  0.96064673860E+03  0.25870996744E+04  0.91269776121E+02 0.  0.
         13    1    3    3    0    0 -0.35286362129E+03  0.76055691042E+03  0.31570488503E+03  0.89589571025E+03  0.00000000000E+00 0. -1.
        -13    1    3    3    0    0 -0.55371487541E+03  0.14620604265E+04  0.64494185357E+03  0.16912039642E+04  0.00000000000E+00 0.  1.
         22    1    1    2    0    0  0.90657849670E+03 -0.22226173369E+04  0.91229470905E+03  0.25679162823E+04  0.00000000000E+00 0.  1.
<mgrwt>
<rscale>  0 0.48027367E+04</rscale>
<asrwt>0</asrwt>
<pdfrwt beam="1">  1        2 0.25246727E+00 0.48027367E+04</pdfrwt>
<pdfrwt beam="2">  1       -2 0.54061211E+00 0.48027367E+04</pdfrwt>
<totfact> 0.75438576E-03</totfact>
</mgrwt>
</event>
<event>
 6    1  0.1588846E-005  0.2764178E+04  0.7818608E-02  0.8314477E-01
         -2   -1    0    0    0  501 -0.00000000000E+00  0.00000000000E+00  0.13001358380E+04  0.13001358380E+04  0.00000000000E+00 0.  1.
          2   -1    0    0  501    0  0.00000000000E+00 -0.00000000000E+00 -0.14692075188E+04  0.14692075188E+04  0.00000000000E+00 0. -1.
         23    2    1    2    0    0 -0.97911534026E+03  0.53116195231E+02  0.88899347188E+03  0.13267796503E+04  0.92448189403E+02 0.  0.
         13    1    3    3    0    0 -0.68645420959E+03  0.43343797061E+02  0.67843911477E+03  0.96611474425E+03  0.00000000000E+00 0.  1.
        -13    1    3    3    0    0 -0.29266113067E+03  0.97723981702E+01  0.21055435711E+03  0.36066490607E+03  0.00000000000E+00 0. -1.
         22    1    1    2    0    0  0.97911534026E+03 -0.53116195231E+02 -0.10580651528E+04  0.14425637065E+04  0.00000000000E+00 0. -1.
<mgrwt>
<rscale>  0 0.27641775E+04</rscale>
<asrwt>0</asrwt>
<pdfrwt beam="1">  1        2 0.22603193E+00 0.27641775E+04</pdfrwt>
<pdfrwt beam="2">  1       -2 0.20002090E+00 0.27641775E+04</pdfrwt>
<totfact> 0.15334075E+00</totfact>
</mgrwt>
</event>
<event>
 6    1  0.1588846E-005  0.1443253E+04  0.7818608E-02  0.8923091E-01
          2   -1    0    0  501    0  0.00000000000E+00  0.00000000000E+00  0.14632197596E+04  0.14632197596E+04  0.00000000000E+00 0. -1.
         -2   -1    0    0    0  501 -0.00000000000E+00 -0.00000000000E+00 -0.35588970558E+03  0.35588970558E+03  0.00000000000E+00 0.  1.
         23    2    1    2    0    0 -0.17430323712E+03  0.51688294624E+02  0.14325174709E+04  0.14465505378E+04  0.85725467662E+02 0.  0.
         13    1    3    3    0    0 -0.10169679452E+03 -0.24686570014E+01  0.54414016834E+03  0.55356738983E+03  0.00000000000E+00 0.  1.
        -13    1    3    3    0    0 -0.72606442604E+02  0.54156951626E+02  0.88837730255E+03  0.89298314800E+03  0.00000000000E+00 0. -1.
         22    1    1    2    0    0  0.17430323712E+03 -0.51688294624E+02 -0.32518741686E+03  0.37255892737E+03  0.00000000000E+00 0.  1.
<mgrwt>
<rscale>  0 0.14432531E+04</rscale>
<asrwt>0</asrwt>
<pdfrwt beam="1">  1        2 0.22511073E+00 0.14432531E+04</pdfrwt>
<pdfrwt beam="2">  1       -2 0.54752263E-01 0.14432531E+04</pdfrwt>
<totfact> 0.40545069E+01</totfact>
</mgrwt>
</event>
<event>
 6    1  0.1588846E-005  0.1791549E+04  0.7818608E-02  0.8710807E-01
         -1   -1    0    0    0  501 -0.00000000000E+00  0.00000000000E+00  0.42448726850E+03  0.42448726850E+03  0.00000000000E+00 0.  1.
          1   -1    0    0  501    0  0.00000000000E+00 -0.00000000000E+00 -0.18903078366E+04  0.18903078366E+04  0.00000000000E+00 0. -1.
         23    2    1    2    0    0 -0.28451817420E+03 -0.29709833838E+03  0.28992965713E+03  0.51149899310E+03  0.91400217415E+02 0.  0.
         13    1    3    3    0    0 -0.17721443325E+03 -0.24393755991E+03  0.21318064881E+03  0.36926477968E+03  0.00000000000E+00 0. -1.
        -13    1    3    3    0    0 -0.10730374095E+03 -0.53160778470E+02  0.76749008324E+02  0.14223421342E+03  0.00000000000E+00 0.  1.
         22    1    1    2    0    0  0.28451817420E+03  0.29709833838E+03 -0.17557502252E+04  0.18032961120E+04  0.00000000000E+00 0. -1.
<mgrwt>
<rscale>  0 0.17915486E+04</rscale>
<asrwt>0</asrwt>
<pdfrwt beam="1">  1        1 0.29081659E+00 0.17915486E+04</pdfrwt>
<pdfrwt beam="2">  1       -1 0.65305733E-01 0.17915486E+04</pdfrwt>
<totfact> 0.79400007E+00</totfact>
</mgrwt>
</event>
<event>
 6    1  0.1588846E-005  0.1793722E+04  0.7818608E-02  0.8709645E-01
          2   -1    0    0  501    0  0.00000000000E+00  0.00000000000E+00  0.17261126073E+04  0.17261126073E+04  0.00000000000E+00 0. -1.
         -2   -1    0    0    0  501 -0.00000000000E+00 -0.00000000000E+00 -0.46599467786E+03  0.46599467786E+03  0.00000000000E+00 0.  1.
         23    2    1    2    0    0 -0.53913268355E+03  0.58179582186E+03  0.12619096906E+03  0.80829343198E+03  0.90904800210E+02 0.  0.
         13    1    3    3    0    0 -0.48084706921E+03  0.48645488374E+03  0.85274817855E+02  0.68929242883E+03  0.00000000000E+00 0.  1.
        -13    1    3    3    0    0 -0.58285614334E+02  0.95340938128E+02  0.40916151201E+02  0.11900100315E+03  0.00000000000E+00 0. -1.
         22    1    1    2    0    0  0.53913268355E+03 -0.58179582186E+03  0.11339269604E+04  0.13838138532E+04  0.00000000000E+00 0. -1.
<mgrwt>
<rscale>  0 0.17937216E+04</rscale>
<asrwt>0</asrwt>
<pdfrwt beam="1">  1        2 0.26555578E+00 0.17937216E+04</pdfrwt>
<pdfrwt beam="2">  1       -2 0.71691490E-01 0.17937216E+04</pdfrwt>
<totfact> 0.15801786E+01</totfact>
</mgrwt>
</event>
<event>
 6    1  0.1588846E-005  0.2903794E+03  0.7818608E-02  0.1090151E+00
         -1   -1    0    0    0  501 -0.00000000000E+00  0.00000000000E+00  0.11752587660E+02  0.11752587660E+02  0.00000000000E+00 0.  1.
          1   -1    0    0  501    0  0.00000000000E+00 -0.00000000000E+00 -0.17936512401E+04  0.17936512401E+04  0.00000000000E+00 0. -1.
         23    2    1    2    0    0 -0.17521325394E+02 -0.75444071421E+02 -0.16358487076E+04  0.16400877937E+04  0.88815380664E+02 0.  0.
         13    1    3    3    0    0 -0.64217815117E+00 -0.70880392610E+02 -0.15794736389E+04  0.15810633821E+04  0.00000000000E+00 0.  1.
        -13    1    3    3    0    0 -0.16879147243E+02 -0.45636788108E+01 -0.56375068783E+02  0.59024411528E+02  0.00000000000E+00 0. -1.
         22    1    1    2    0    0  0.17521325394E+02  0.75444071421E+02 -0.14604994478E+03  0.16531603409E+03  0.00000000000E+00 0.  1.
<mgrwt>
<rscale>  0 0.29037936E+03</rscale>
<asrwt>0</asrwt>
<pdfrwt beam="1">  1        1 0.27594627E+00 0.29037936E+03</pdfrwt>
<pdfrwt beam="2">  1       -1 0.18080909E-02 0.29037936E+03</pdfrwt>
<totfact> 0.36508467E+03</totfact>
</mgrwt>
</event>
<event>
 6    1  0.1588846E-005  0.2099303E+04  0.7818608E-02  0.8561550E-01
         -1   -1    0    0    0  501 -0.00000000000E+00  0.00000000000E+00  0.97920664413E+03  0.97920664413E+03  0.00000000000E+00 0. -1.
          1   -1    0    0  501    0  0.00000000000E+00 -0.00000000000E+00 -0.11251644254E+04  0.11251644254E+04  0.00000000000E+00 0.  1.
         23    2    1    2    0    0  0.65239297701E+03 -0.23835242506E+03  0.71336487568E+03  0.99944396618E+03  0.87007589856E+02 0.  0.
         11    1    3    3    0    0  0.29444384811E+03 -0.62177560526E+02  0.29810230441E+03  0.42358967482E+03  0.00000000000E+00 0.  1.
        -11    1    3    3    0    0  0.35794912890E+03 -0.17617486453E+03  0.41526257127E+03  0.57585429136E+03  0.00000000000E+00 0. -1.
         22    1    1    2    0    0 -0.65239297701E+03  0.23835242506E+03 -0.85932265695E+03  0.11049271034E+04  0.00000000000E+00 0.  1.
<mgrwt>
<rscale>  0 0.20993032E+04</rscale>
<asrwt>0</asrwt>
<pdfrwt beam="1">  1        1 0.17310222E+00 0.20993032E+04</pdfrwt>
<pdfrwt beam="2">  1       -1 0.15064718E+00 0.20993032E+04</pdfrwt>
<totfact> 0.38505505E+00</totfact>
</mgrwt>
</event>
<event>
 6    1  0.1588846E-005  0.1668832E+04  0.7818608E-02  0.8779343E-01
          1   -1    0    0  501    0  0.00000000000E+00  0.00000000000E+00  0.23742802999E+04  0.23742802999E+04  0.00000000000E+00 0. -1.
         -1   -1    0    0    0  501 -0.00000000000E+00 -0.00000000000E+00 -0.29324664354E+03  0.29324664354E+03  0.00000000000E+00 0.  1.
         23    2    1    2    0    0  0.68418382597E+03 -0.39766639354E+03  0.63451212991E+03  0.10186877776E+04  0.94197011667E+02 0.  0.
         11    1    3    3    0    0  0.29563781440E+03 -0.12646869639E+03  0.22549024294E+03  0.39273642323E+03  0.00000000000E+00 0.  1.
        -11    1    3    3    0    0  0.38854601156E+03 -0.27119769716E+03  0.40902188697E+03  0.62595135439E+03  0.00000000000E+00 0. -1.
         22    1    1    2    0    0 -0.68418382597E+03  0.39766639354E+03  0.14465215265E+04  0.16488391658E+04  0.00000000000E+00 0. -1.
<mgrwt>
<rscale>  0 0.16688316E+04</rscale>
<asrwt>0</asrwt>
<pdfrwt beam="1">  1        1 0.36527388E+00 0.16688316E+04</pdfrwt>
<pdfrwt beam="2">  1       -1 0.45114870E-01 0.16688316E+04</pdfrwt>
<totfact> 0.77051551E+00</totfact>
</mgrwt>
</event>
<event>
 6    1  0.1588846E-005  0.3252989E+04  0.7818608E-02  0.8174962E-01
          2   -1    0    0  501    0  0.00000000000E+00  0.00000000000E+00  0.21156159739E+04  0.21156159739E+04  0.00000000000E+00 0. -1.
         -2   -1    0    0    0  501 -0.00000000000E+00 -0.00000000000E+00 -0.12504554863E+04  0.12504554863E+04  0.00000000000E+00 0.  1.
         23    2    1    2    0    0 -0.92464945341E+03 -0.12222843309E+04 -0.12677381026E+03  0.15404512235E+04  0.89234386319E+02 0.  0.
         11    1    3    3    0    0 -0.42370907930E+03 -0.52320131106E+03 -0.17269605917E+02  0.67347400474E+03  0.00000000000E+00 0. -1.
        -11    1    3    3    0    0 -0.50094037411E+03 -0.69908301983E+03 -0.10950420435E+03  0.86697721873E+03  0.00000000000E+00 0.  1.
         22    1    1    2    0    0  0.92464945341E+03  0.12222843309E+04  0.99193429785E+03  0.18256202367E+04  0.00000000000E+00 0. -1.
<mgrwt>
<rscale>  0 0.32529885E+04</rscale>
<asrwt>0</asrwt>
<pdfrwt beam="1">  1        2 0.32547938E+00 0.32529885E+04</pdfrwt>
<pdfrwt beam="2">  1       -2 0.19237777E+00 0.32529885E+04</pdfrwt>
<totfact> 0.72146106E-01</totfact>
</mgrwt>
</event>
<event>
 6    1  0.1588846E-005  0.2840415E+04  0.7818608E-02  0.8290830E-01
         -2   -1    0    0    0  501 -0.00000000000E+00  0.00000000000E+00  0.17219687017E+04  0.17219687017E+04  0.00000000000E+00 0.  1.
          2   -1    0    0  501    0  0.00000000000E+00 -0.00000000000E+00 -0.11713274917E+04  0.11713274917E+04  0.00000000000E+00 0. -1.
         23    2    1    2    0    0 -0.12913372954E+04 -0.10418285011E+03 -0.31365610685E+03  0.13359215022E+04  0.88882112912E+02 0.  0.
         11    1    3    3    0    0 -0.71154318060E+03 -0.10171511958E+03 -0.17227711565E+03  0.73913399867E+03  0.00000000000E+00 0. -1.
        -11    1    3    3    0    0 -0.57979411482E+03 -0.24677305359E+01 -0.14137899120E+03  0.59678750357E+03  0.00000000000E+00 0.  1.
         22    1    1    2    0    0  0.12913372954E+04  0.10418285011E+03  0.86429731679E+03  0.15573746911E+04  0.00000000000E+00 0.  1.
<mgrwt>
<rscale>  0 0.28404150E+04</rscale>
<asrwt>0</asrwt>
<pdfrwt beam="1">  1        2 0.18020423E+00 0.28404150E+04</pdfrwt>
<pdfrwt beam="2">  1       -2 0.26491826E+00 0.28404150E+04</pdfrwt>
<totfact> 0.88979009E-01</totfact>
</mgrwt>
</event>
<event>
 6    1  0.1588846E-005  0.2112370E+04  0.7818608E-02  0.8555814E-01
         -2   -1    0    0    0  501 -0.00000000000E+00  0.00000000000E+00  0.42082464892E+03  0.42082464892E+03  0.00000000000E+00 0.  1.
          2   -1    0    0  501    0  0.00000000000E+00 -0.00000000000E+00 -0.26508106849E+04  0.26508106849E+04  0.00000000000E+00 0. -1.
         23    2    1    2    0    0 -0.37643112250E+03  0.10413152364E+02 -0.25488802657E+04  0.25781757575E+04  0.91601331841E+02 0.  0.
         13    1    3    3    0    0 -0.30112128553E+03  0.57063209421E+01 -0.17487315954E+04  0.17744770451E+04  0.00000000000E+00 0.  1.
        -13    1    3    3    0    0 -0.75309836975E+02  0.47068314215E+01 -0.80014867025E+03  0.80369871240E+03  0.00000000000E+00 0. -1.
         22    1    1    2    0    0  0.37643112250E+03 -0.10413152364E+02  0.31889422971E+03  0.49345957633E+03  0.00000000000E+00 0.  1.
<mgrwt>
<rscale>  0 0.21123697E+04</rscale>
<asrwt>0</asrwt>
<pdfrwt beam="1">  1        2 0.40781704E+00 0.21123697E+04</pdfrwt>
<pdfrwt beam="2">  1       -2 0.64742253E-01 0.21123697E+04</pdfrwt>
<totfact> 0.57610566E+00</totfact>
</mgrwt>
</event>
<event>
 6    1  0.1588846E-005  0.1955763E+04  0.7818608E-02  0.8627587E-01
          1   -1    0    0  501    0  0.00000000000E+00  0.00000000000E+00  0.15605611471E+04  0.15605611471E+04  0.00000000000E+00 0. -1.
         -1   -1    0    0    0  501 -0.00000000000E+00 -0.00000000000E+00 -0.61276188944E+03  0.61276188944E+03  0.00000000000E+00 0.  1.
         23    2    1    2    0    0  0.95626370191E+03 -0.15608883821E+03  0.34661309921E+03  0.10330472847E+04  0.90785785916E+02 0.  0.
         13    1    3    3    0    0  0.48217741266E+03 -0.50459247294E+02  0.21117575718E+03  0.52880657460E+03  0.00000000000E+00 0. -1.
        -13    1    3    3    0    0  0.47408628925E+03 -0.10562959092E+03  0.13543734204E+03  0.50424071013E+03  0.00000000000E+00 0.  1.
         22    1    1    2    0    0 -0.95626370191E+03  0.15608883821E+03  0.60118615841E+03  0.11402757518E+04  0.00000000000E+00 0. -1.
<mgrwt>
<rscale>  0 0.19557632E+04</rscale>
<asrwt>0</asrwt>
<pdfrwt beam="1">  1        1 0.24008633E+00 0.19557632E+04</pdfrwt>
<pdfrwt beam="2">  1       -1 0.94271060E-01 0.19557632E+04</pdfrwt>
<totfact> 0.60256995E+00</totfact>
</mgrwt>
</event>
<event>
 6    1  0.1588846E-005  0.2504133E+04  0.7818608E-02  0.8401515E-01
          2   -1    0    0  501    0  0.00000000000E+00  0.00000000000E+00  0.11164419219E+04  0.11164419219E+04  0.00000000000E+00 0. -1.
         -2   -1    0    0    0  501 -0.00000000000E+00 -0.00000000000E+00 -0.14041669600E+04  0.14041669600E+04  0.00000000000E+00 0.  1.
         23    2    1    2    0    0 -0.91694041396E+03  0.66061957400E+03 -0.68268160576E+03  0.13234503149E+04  0.90931935644E+02 0.  0.
         13    1    3    3    0    0 -0.60906702294E+03  0.44780863868E+03 -0.50514037491E+03  0.90920955432E+03  0.00000000000E+00 0.  1.
        -13    1    3    3    0    0 -0.30787339102E+03  0.21281093532E+03 -0.17754123086E+03  0.41424076061E+03  0.00000000000E+00 0. -1.
         22    1    1    2    0    0  0.91694041396E+03 -0.66061957400E+03  0.39495656762E+03  0.11971585670E+04  0.00000000000E+00 0. -1.
<mgrwt>
<rscale>  0 0.25041333E+04</rscale>
<asrwt>0</asrwt>
<pdfrwt beam="1">  1        2 0.17176030E+00 0.25041333E+04</pdfrwt>
<pdfrwt beam="2">  1       -2 0.21602568E+00 0.25041333E+04</pdfrwt>
<totfact> 0.19877166E+00</totfact>
</mgrwt>
</event>
<event>
 6    1  0.1588846E-005  0.3130088E+04  0.7818608E-02  0.8207529E-01
          2   -1    0    0  501    0  0.00000000000E+00  0.00000000000E+00  0.34080692094E+04  0.34080692094E+04  0.00000000000E+00 0. -1.
         -2   -1    0    0    0  501 -0.00000000000E+00 -0.00000000000E+00 -0.71869524533E+03  0.71869524533E+03  0.00000000000E+00 0.  1.
         23    2    1    2    0    0  0.14791548627E+04  0.32728465969E+03  0.83471830462E+03  0.17320281496E+04  0.90291231913E+02 0.  0.
         11    1    3    3    0    0  0.11780518481E+03  0.51554990176E+02  0.67509316367E+02  0.14523596792E+03  0.00000000000E+00 0. -1.
        -11    1    3    3    0    0  0.13613496779E+04  0.27572966951E+03  0.76720898825E+03  0.15867921816E+04  0.00000000000E+00 0.  1.
         22    1    1    2    0    0 -0.14791548627E+04 -0.32728465969E+03  0.18546556594E+04  0.23947363051E+04  0.00000000000E+00 0. -1.
<mgrwt>
<rscale>  0 0.31300883E+04</rscale>
<asrwt>0</asrwt>
<pdfrwt beam="1">  1        2 0.52431833E+00 0.31300883E+04</pdfrwt>
<pdfrwt beam="2">  1       -2 0.11056850E+00 0.31300883E+04</pdfrwt>
<totfact> 0.51675393E-01</totfact>
</mgrwt>
</event>
<event>
 6    1  0.1588846E-005  0.7394445E+03  0.7818608E-02  0.9652057E-01
          1   -1    0    0  501    0  0.00000000000E+00  0.00000000000E+00  0.87998794846E+03  0.87998794846E+03  0.00000000000E+00 0. -1.
         -1   -1    0    0    0  501 -0.00000000000E+00 -0.00000000000E+00 -0.15533682021E+03  0.15533682021E+03  0.00000000000E+00 0.  1.
         23    2    1    2    0    0  0.35576784628E+03 -0.31389955502E+02  0.44298372684E+03  0.58047027020E+03  0.11469552122E+03 0.  0.
         13    1    3    3    0    0  0.14380778098E+03  0.41519723632E+02  0.20118823074E+03  0.25076137962E+03  0.00000000000E+00 0. -1.
        -13    1    3    3    0    0  0.21196006530E+03 -0.72909679134E+02  0.24179549610E+03  0.32970889058E+03  0.00000000000E+00 0.  1.
         22    1    1    2    0    0 -0.35576784628E+03  0.31389955502E+02  0.28166740141E+03  0.45485449846E+03  0.00000000000E+00 0. -1.
<mgrwt>
<rscale>  0 0.73944447E+03</rscale>
<asrwt>0</asrwt>
<pdfrwt beam="1">  1        1 0.13538276E+00 0.73944447E+03</pdfrwt>
<pdfrwt beam="2">  1       -1 0.23897973E-01 0.73944447E+03</pdfrwt>
<totfact> 0.28914128E+02</totfact>
</mgrwt>
</event>
<event>
 6    1  0.1588846E-005  0.2186423E+04  0.7818608E-02  0.8524101E-01
          2   -1    0    0  501    0  0.00000000000E+00  0.00000000000E+00  0.40739727709E+04  0.40739727709E+04  0.00000000000E+00 0.  1.
         -2   -1    0    0    0  501 -0.00000000000E+00 -0.00000000000E+00 -0.29335274389E+03  0.29335274389E+03  0.00000000000E+00 0. -1.
         23    2    1    2    0    0  0.69822956309E+03  0.60755786703E+03  0.30486681835E+04  0.31873235717E+04  0.89458217457E+02 0.  0.
         11    1    3    3    0    0  0.39528804060E+03  0.28823952391E+03  0.15529182577E+04  0.16281553284E+04  0.00000000000E+00 0.  1.
        -11    1    3    3    0    0  0.30294152250E+03  0.31931834312E+03  0.14957499258E+04  0.15591682432E+04  0.00000000000E+00 0. -1.
         22    1    1    2    0    0 -0.69822956309E+03 -0.60755786703E+03  0.73195184345E+03  0.11800019431E+04  0.00000000000E+00 0. -1.
<mgrwt>
<rscale>  0 0.21864227E+04</rscale>
<asrwt>0</asrwt>
<pdfrwt beam="1">  1        2 0.62676500E+00 0.21864227E+04</pdfrwt>
<pdfrwt beam="2">  1       -2 0.45131194E-01 0.21864227E+04</pdfrwt>
<totfact> 0.12777313E+00</totfact>
</mgrwt>
</event>
<event>
 6    1  0.1588846E-005  0.1683380E+04  0.7818608E-02  0.8770901E-01
         -1   -1    0    0    0  501 -0.00000000000E+00  0.00000000000E+00  0.92217201810E+03  0.92217201810E+03  0.00000000000E+00 0.  1.
          1   -1    0    0  501    0  0.00000000000E+00 -0.00000000000E+00 -0.76823168384E+03  0.76823168384E+03  0.00000000000E+00 0. -1.
         23    2    1    2    0    0 -0.46962396344E+03  0.18408307167E+03 -0.59646592741E+03  0.78622296677E+03  0.89116253233E+02 0.  0.
         11    1    3    3    0    0 -0.20142953614E+03  0.52580418321E+02 -0.19031800319E+03  0.28206293759E+03  0.00000000000E+00 0.  1.
        -11    1    3    3    0    0 -0.26819442730E+03  0.13150265335E+03 -0.40614792422E+03  0.50416002918E+03  0.00000000000E+00 0. -1.
         22    1    1    2    0    0  0.46962396344E+03 -0.18408307167E+03  0.75040626167E+03  0.90418073518E+03  0.00000000000E+00 0.  1.
<mgrwt>
<rscale>  0 0.16833797E+04</rscale>
<asrwt>0</asrwt>
<pdfrwt beam="1">  1        1 0.11818949E+00 0.16833797E+04</pdfrwt>
<pdfrwt beam="2">  1       -1 0.14187262E+00 0.16833797E+04</pdfrwt>
<totfact> 0.90988025E+00</totfact>
</mgrwt>
</event>
<event>
 6    1  0.1588846E-005  0.1259681E+04  0.7818608E-02  0.9062164E-01
          2   -1    0    0  501    0  0.00000000000E+00  0.00000000000E+00  0.15105920067E+04  0.15105920067E+04  0.00000000000E+00 0. -1.
         -2   -1    0    0    0  501 -0.00000000000E+00 -0.00000000000E+00 -0.26261157227E+03  0.26261157227E+03  0.00000000000E+00 0.  1.
         23    2    1    2    0    0 -0.24577561662E+03 -0.36442203087E+03  0.17216632189E+00  0.45023927700E+03  0.97500290295E+02 0.  0.
         13    1    3    3    0    0 -0.15949381093E+03 -0.30119431076E+03  0.20186285377E+02  0.34141437385E+03  0.00000000000E+00 0. -1.
        -13    1    3    3    0    0 -0.86281805691E+02 -0.63227720114E+02 -0.20014119055E+02  0.10882490315E+03  0.00000000000E+00 0.  1.
         22    1    1    2    0    0  0.24577561662E+03  0.36442203087E+03  0.12478082681E+04  0.13229643020E+04  0.00000000000E+00 0. -1.
<mgrwt>
<rscale>  0 0.12596808E+04</rscale>
<asrwt>0</asrwt>
<pdfrwt beam="1">  1        2 0.23239876E+00 0.12596808E+04</pdfrwt>
<pdfrwt beam="2">  1       -2 0.40401781E-01 0.12596808E+04</pdfrwt>
<totfact> 0.71332736E+01</totfact>
</mgrwt>
</event>
<event>
 6    1  0.1588846E-005  0.2182674E+04  0.7818608E-02  0.8525674E-01
         -2   -1    0    0    0  501 -0.00000000000E+00  0.00000000000E+00  0.72584931905E+03  0.72584931905E+03  0.00000000000E+00 0.  1.
          2   -1    0    0  501    0  0.00000000000E+00 -0.00000000000E+00 -0.16408593333E+04  0.16408593333E+04  0.00000000000E+00 0. -1.
         23    2    1    2    0    0 -0.34210480453E+03  0.54586774518E+03  0.49429594462E+03  0.81714401085E+03  0.91589088222E+02 0.  0.
         11    1    3    3    0    0 -0.18440197754E+03  0.37610800817E+03  0.31137634987E+03  0.52193539292E+03  0.00000000000E+00 0. -1.
        -11    1    3    3    0    0 -0.15770282699E+03  0.16975973701E+03  0.18291959475E+03  0.29520861792E+03  0.00000000000E+00 0.  1.
         22    1    1    2    0    0  0.34210480453E+03 -0.54586774518E+03 -0.14093059589E+04  0.15495646415E+04  0.00000000000E+00 0. -1.
<mgrwt>
<rscale>  0 0.21826742E+04</rscale>
<asrwt>0</asrwt>
<pdfrwt beam="1">  1        2 0.25243989E+00 0.21826742E+04</pdfrwt>
<pdfrwt beam="2">  1       -2 0.11166913E+00 0.21826742E+04</pdfrwt>
<totfact> 0.61352913E+00</totfact>
</mgrwt>
</event>
<event>
 6    1  0.1588846E-005  0.1255363E+04  0.7818608E-02  0.9065731E-01
         -1   -1    0    0    0  501 -0.00000000000E+00  0.00000000000E+00  0.62529254484E+03  0.62529254484E+03  0.00000000000E+00 0.  1.
          1   -1    0    0  501    0  0.00000000000E+00 -0.00000000000E+00 -0.63007995017E+03  0.63007995017E+03  0.00000000000E+00 0. -1.
         23    2    1    2    0    0 -0.40330095169E+03 -0.47409689266E+03 -0.51076370949E+02  0.63122332246E+03  0.91730942891E+02 0.  0.
         13    1    3    3    0    0 -0.10449693059E+03 -0.81072267660E+02  0.15008816111E+02  0.13310742146E+03  0.00000000000E+00 0. -1.
        -13    1    3    3    0    0 -0.29880402111E+03 -0.39302462500E+03 -0.66085187060E+02  0.49811590100E+03  0.00000000000E+00 0.  1.
         22    1    1    2    0    0  0.40330095169E+03  0.47409689266E+03  0.46288965621E+02  0.62414917256E+03  0.00000000000E+00 0. -1.
<mgrwt>
<rscale>  0 0.12553634E+04</rscale>
<asrwt>0</asrwt>
<pdfrwt beam="1">  1        1 0.96935377E-01 0.12553634E+04</pdfrwt>
<pdfrwt beam="2">  1       -1 0.96198853E-01 0.12553634E+04</pdfrwt>
<totfact> 0.32739573E+01</totfact>
</mgrwt>
</event>
<event>
 6    1  0.1588846E-005  0.5781437E+04  0.7818608E-02  0.7718108E-01
          2   -1    0    0  501    0  0.00000000000E+00  0.00000000000E+00  0.26290283856E+04  0.26290283856E+04  0.00000000000E+00 0. -1.
         -2   -1    0    0    0  501 -0.00000000000E+00 -0.00000000000E+00 -0.31784569681E+04  0.31784569681E+04  0.00000000000E+00 0.  1.
         23    2    1    2    0    0  0.13280466379E+04  0.23633472774E+04  0.73123658736E+03  0.28092823079E+04  0.90784981449E+02 0.  0.
         11    1    3    3    0    0  0.54783089002E+03  0.94204606320E+03  0.25101411424E+03  0.11182922493E+04  0.00000000000E+00 0.  1.
        -11    1    3    3    0    0  0.78021574789E+03  0.14213012142E+04  0.48022247312E+03  0.16909900587E+04  0.00000000000E+00 0. -1.
         22    1    1    2    0    0 -0.13280466379E+04 -0.23633472774E+04 -0.12806651699E+04  0.29982030457E+04  0.00000000000E+00 0.  1.
<mgrwt>
<rscale>  0 0.57814371E+04</rscale>
<asrwt>0</asrwt>
<pdfrwt beam="1">  1        2 0.40446591E+00 0.57814371E+04</pdfrwt>
<pdfrwt beam="2">  1       -2 0.48899338E+00 0.57814371E+04</pdfrwt>
<totfact> 0.39089859E-03</totfact>
</mgrwt>
</event>
<event>
 6    1  0.1693910E-005  0.4233896E+04  0.7818608E-02  0.7958956E-01
         -1   -1    0    0    0  501 -0.00000000000E+00  0.00000000000E+00  0.21234803336E+04  0.21234803336E+04  0.00000000000E+00 0.  1.
          1   -1    0    0  501    0  0.00000000000E+00 -0.00000000000E+00 -0.21104357837E+04  0.21104357837E+04  0.00000000000E+00 0. -1.
         23    2    1    2    0    0 -0.55574495690E+03  0.20094175452E+04  0.36765237026E+03  0.21191210836E+04  0.94311046267E+02 0.  0.
         11    1    3    3    0    0 -0.37367604024E+03  0.12319432626E+04  0.26042533051E+03  0.13134455977E+04  0.00000000000E+00 0.  1.
        -11    1    3    3    0    0 -0.18206891667E+03  0.77747428260E+03  0.10722703975E+03  0.80567548589E+03  0.00000000000E+00 0. -1.
         22    1    1    2    0    0  0.55574495690E+03 -0.20094175452E+04 -0.35460782031E+03  0.21147950337E+04  0.00000000000E+00 0. -1.
<mgrwt>
<rscale>  0 0.42338960E+04</rscale>
<asrwt>0</asrwt>
<pdfrwt beam="1">  1        1 0.32468243E+00 0.42338960E+04</pdfrwt>
<pdfrwt beam="2">  1       -1 0.32668928E+00 0.42338960E+04</pdfrwt>
<totfact> 0.42599888E-02</totfact>
</mgrwt>
</event>
<event>
 6    1  0.1588846E-005  0.8396067E+03  0.7818608E-02  0.9504394E-01
          1   -1    0    0  501    0  0.00000000000E+00  0.00000000000E+00  0.10143104618E+04  0.10143104618E+04  0.00000000000E+00 0. -1.
         -1   -1    0    0    0  501 -0.00000000000E+00 -0.00000000000E+00 -0.17374843301E+03  0.17374843301E+03  0.00000000000E+00 0.  1.
         23    2    1    2    0    0 -0.55652694524E+02  0.32604365262E+03  0.71190615222E+02  0.35060199571E+03  0.91934595672E+02 0.  0.
         11    1    3    3    0    0  0.76042434499E+01  0.68234815154E+01 -0.10941798804E+02  0.14970216415E+02  0.00000000000E+00 0.  1.
        -11    1    3    3    0    0 -0.63256937974E+02  0.31922017110E+03  0.82132414026E+02  0.33563177930E+03  0.00000000000E+00 0. -1.
         22    1    1    2    0    0  0.55652694524E+02 -0.32604365262E+03  0.76937141354E+03  0.83745689907E+03  0.00000000000E+00 0. -1.
<mgrwt>
<rscale>  0 0.83960670E+03</rscale>
<asrwt>0</asrwt>
<pdfrwt beam="1">  1        1 0.15604776E+00 0.83960670E+03</pdfrwt>
<pdfrwt beam="2">  1       -1 0.26730529E-01 0.83960670E+03</pdfrwt>
<totfact> 0.18560960E+02</totfact>
</mgrwt>
</event>
<event>
 6    1  0.1588846E-005  0.1360262E+04  0.7818608E-02  0.8983096E-01
         -2   -1    0    0    0  501 -0.00000000000E+00  0.00000000000E+00  0.23286922371E+03  0.23286922371E+03  0.00000000000E+00 0.  1.
          2   -1    0    0  501    0  0.00000000000E+00 -0.00000000000E+00 -0.19864283302E+04  0.19864283302E+04  0.00000000000E+00 0. -1.
         23    2    1    2    0    0 -0.42663817567E+03  0.50654714151E+03 -0.65122810480E+03  0.93331785859E+03  0.91509787341E+02 0.  0.
         11    1    3    3    0    0 -0.24356774535E+03  0.28582344713E+03 -0.30520247814E+03  0.48390995254E+03  0.00000000000E+00 0.  1.
        -11    1    3    3    0    0 -0.18307043032E+03  0.22072369437E+03 -0.34602562666E+03  0.44940790605E+03  0.00000000000E+00 0. -1.
         22    1    1    2    0    0  0.42663817567E+03 -0.50654714151E+03 -0.11023310017E+04  0.12859796954E+04  0.00000000000E+00 0. -1.
<mgrwt>
<rscale>  0 0.13602618E+04</rscale>
<asrwt>0</asrwt>
<pdfrwt beam="1">  1        2 0.30560435E+00 0.13602618E+04</pdfrwt>
<pdfrwt beam="2">  1       -2 0.35826035E-01 0.13602618E+04</pdfrwt>
<totfact> 0.48641108E+01</totfact>
</mgrwt>
</event>
<event>
 6    1  0.1588846E-005  0.1423575E+04  0.7818608E-02  0.8936928E-01
         -1   -1    0    0    0  501 -0.00000000000E+00  0.00000000000E+00  0.55712158059E+03  0.55712158059E+03  0.00000000000E+00 0.  1.
          1   -1    0    0  501    0  0.00000000000E+00 -0.00000000000E+00 -0.90939102809E+03  0.90939102809E+03  0.00000000000E+00 0. -1.
         23    2    1    2    0    0  0.17697112240E+03  0.52732723335E+03  0.27573912932E+03  0.62759213464E+03  0.91907729926E+02 0.  0.
         11    1    3    3    0    0  0.15895109518E+03  0.40930476518E+03  0.17996698343E+03  0.47453551668E+03  0.00000000000E+00 0.  1.
        -11    1    3    3    0    0  0.18020027218E+02  0.11802246817E+03  0.95772145884E+02  0.15305661796E+03  0.00000000000E+00 0. -1.
         22    1    1    2    0    0 -0.17697112240E+03 -0.52732723335E+03 -0.62800857682E+03  0.83892047404E+03  0.00000000000E+00 0. -1.
<mgrwt>
<rscale>  0 0.14235749E+04</rscale>
<asrwt>0</asrwt>
<pdfrwt beam="1">  1        1 0.13990631E+00 0.14235749E+04</pdfrwt>
<pdfrwt beam="2">  1       -1 0.85711013E-01 0.14235749E+04</pdfrwt>
<totfact> 0.23400805E+01</totfact>
</mgrwt>
</event>
<event>
 6    1  0.1588846E-005  0.2255045E+04  0.7818608E-02  0.8495860E-01
         -2   -1    0    0    0  501 -0.00000000000E+00  0.00000000000E+00  0.10371169057E+04  0.10371169057E+04  0.00000000000E+00 0.  1.
          2   -1    0    0  501    0  0.00000000000E+00 -0.00000000000E+00 -0.12258084976E+04  0.12258084976E+04  0.00000000000E+00 0. -1.
         23    2    1    2    0    0 -0.10095099621E+03  0.93641319658E+03 -0.71308837742E+03  0.11849398899E+04  0.92340296334E+02 0.  0.
         13    1    3    3    0    0 -0.11427923366E+03  0.81474676869E+03 -0.59967354429E+03  0.10180768144E+04  0.00000000000E+00 0. -1.
        -13    1    3    3    0    0  0.13328237450E+02  0.12166642789E+03 -0.11341483312E+03  0.16686307549E+03  0.00000000000E+00 0.  1.
         22    1    1    2    0    0  0.10095099621E+03 -0.93641319658E+03  0.52439678547E+03  0.10779855133E+04  0.00000000000E+00 0.  1.
<mgrwt>
<rscale>  0 0.22550448E+04</rscale>
<asrwt>0</asrwt>
<pdfrwt beam="1">  1        2 0.18858592E+00 0.22550448E+04</pdfrwt>
<pdfrwt beam="2">  1       -2 0.15955645E+00 0.22550448E+04</pdfrwt>
<totfact> 0.42223014E+00</totfact>
</mgrwt>
</event>
<event>
 6    1  0.1588846E-005  0.3792023E+04  0.7818608E-02  0.8047869E-01
          2   -1    0    0  501    0  0.00000000000E+00  0.00000000000E+00  0.13416434670E+04  0.13416434670E+04  0.00000000000E+00 0. -1.
         -2   -1    0    0    0  501 -0.00000000000E+00 -0.00000000000E+00 -0.26794441489E+04  0.26794441489E+04  0.00000000000E+00 0.  1.
         23    2    1    2    0    0 -0.51535899902E+03  0.79513403066E+03  0.10707628698E+04  0.14328427651E+04  0.93124871417E+02 0.  0.
         11    1    3    3    0    0 -0.37121673542E+03  0.50219557634E+03  0.73580179757E+03  0.96509406115E+03  0.00000000000E+00 0. -1.
        -11    1    3    3    0    0 -0.14414226360E+03  0.29293845432E+03  0.33496107222E+03  0.46774870398E+03  0.00000000000E+00 0.  1.
         22    1    1    2    0    0  0.51535899902E+03 -0.79513403066E+03 -0.24085635517E+04  0.25882448507E+04  0.00000000000E+00 0.  1.
<mgrwt>
<rscale>  0 0.37920225E+04</rscale>
<asrwt>0</asrwt>
<pdfrwt beam="1">  1        2 0.20640669E+00 0.37920225E+04</pdfrwt>
<pdfrwt beam="2">  1       -2 0.41222217E+00 0.37920225E+04</pdfrwt>
<totfact> 0.77352435E-02</totfact>
</mgrwt>
</event>
<event>
 6    1  0.1588846E-005  0.2685971E+04  0.7818608E-02  0.8339571E-01
          2   -1    0    0  501    0  0.00000000000E+00  0.00000000000E+00  0.33689749497E+04  0.33689749497E+04  0.00000000000E+00 0.  1.
         -2   -1    0    0    0  501 -0.00000000000E+00 -0.00000000000E+00 -0.53535857301E+03  0.53535857301E+03  0.00000000000E+00 0. -1.
         23    2    1    2    0    0 -0.51377558049E+03 -0.25750907507E+03 -0.34343221640E+03  0.67572483881E+03  0.91553807490E+02 0.  0.
         13    1    3    3    0    0 -0.35388197392E+03 -0.21468467681E+03 -0.21637842748E+03  0.46705629832E+03  0.00000000000E+00 0.  1.
        -13    1    3    3    0    0 -0.15989360657E+03 -0.42824398258E+02 -0.12705378893E+03  0.20866854048E+03  0.00000000000E+00 0. -1.
         22    1    1    2    0    0  0.51377558049E+03  0.25750907507E+03  0.31770485931E+04  0.32286086839E+04  0.00000000000E+00 0.  1.
<mgrwt>
<rscale>  0 0.26859707E+04</rscale>
<asrwt>0</asrwt>
<pdfrwt beam="1">  1        2 0.51830383E+00 0.26859707E+04</pdfrwt>
<pdfrwt beam="2">  1       -2 0.82362860E-01 0.26859707E+04</pdfrwt>
<totfact> 0.11379614E+00</totfact>
</mgrwt>
</event>
<event>
 6    1  0.1588846E-005  0.3108368E+04  0.7818608E-02  0.8213445E-01
          2   -1    0    0  501    0  0.00000000000E+00  0.00000000000E+00  0.22414713362E+04  0.22414713362E+04  0.00000000000E+00 0.  1.
         -2   -1    0    0    0  501 -0.00000000000E+00 -0.00000000000E+00 -0.10776347523E+04  0.10776347523E+04  0.00000000000E+00 0. -1.
         23    2    1    2    0    0  0.12564878352E+02 -0.79371761047E+03  0.20074759732E+04  0.21607136936E+04  0.92619442781E+02 0.  0.
         13    1    3    3    0    0  0.45743393528E+02 -0.58186260383E+03  0.15172185193E+04  0.16256102187E+04  0.00000000000E+00 0. -1.
        -13    1    3    3    0    0 -0.33178515176E+02 -0.21185500664E+03  0.49025745391E+03  0.53510347487E+03  0.00000000000E+00 0.  1.
         22    1    1    2    0    0 -0.12564878352E+02  0.79371761047E+03 -0.84363938936E+03  0.11583923949E+04  0.00000000000E+00 0. -1.
<mgrwt>
<rscale>  0 0.31083677E+04</rscale>
<asrwt>0</asrwt>
<pdfrwt beam="1">  1        2 0.34484174E+00 0.31083677E+04</pdfrwt>
<pdfrwt beam="2">  1       -2 0.16578996E+00 0.31083677E+04</pdfrwt>
<totfact> 0.94853500E-01</totfact>
</mgrwt>
</event>
<event>
 6    1  0.1588846E-005  0.1600823E+04  0.7818608E-02  0.8820042E-01
         -2   -1    0    0    0  501 -0.00000000000E+00  0.00000000000E+00  0.60649022238E+03  0.60649022238E+03  0.00000000000E+00 0.  1.
          2   -1    0    0  501    0  0.00000000000E+00 -0.00000000000E+00 -0.10563381912E+04  0.10563381912E+04  0.00000000000E+00 0. -1.
         23    2    1    2    0    0  0.40245105050E+03  0.14256412521E+03 -0.92568588090E+03  0.10235216826E+04  0.91710995744E+02 0.  0.
         11    1    3    3    0    0  0.23284019961E+03  0.11980403579E+03 -0.62329124144E+03  0.67606178505E+03  0.00000000000E+00 0.  1.
        -11    1    3    3    0    0  0.16961085089E+03  0.22760089427E+02 -0.30239463947E+03  0.34745989753E+03  0.00000000000E+00 0. -1.
         22    1    1    2    0    0 -0.40245105050E+03 -0.14256412521E+03  0.47583791204E+03  0.63930673106E+03  0.00000000000E+00 0.  1.
<mgrwt>
<rscale>  0 0.16008233E+04</rscale>
<asrwt>0</asrwt>
<pdfrwt beam="1">  1        2 0.16251357E+00 0.16008233E+04</pdfrwt>
<pdfrwt beam="2">  1       -2 0.93306188E-01 0.16008233E+04</pdfrwt>
<totfact> 0.21621732E+01</totfact>
</mgrwt>
</event>
<event>
 6    1  0.1588846E-005  0.3848307E+04  0.7818608E-02  0.8035867E-01
         -2   -1    0    0    0  501 -0.00000000000E+00  0.00000000000E+00  0.15775083591E+04  0.15775083591E+04  0.00000000000E+00 0.  1.
          2   -1    0    0  501    0  0.00000000000E+00 -0.00000000000E+00 -0.23469715606E+04  0.23469715606E+04  0.00000000000E+00 0. -1.
         23    2    1    2    0    0 -0.14331284611E+04  0.97397767479E+03 -0.12357226302E+04  0.21300754079E+04  0.87869945773E+02 0.  0.
         11    1    3    3    0    0 -0.57390774228E+03  0.37438613796E+03 -0.43861511898E+03  0.81358361558E+03  0.00000000000E+00 0.  1.
        -11    1    3    3    0    0 -0.85922071887E+03  0.59959153683E+03 -0.79710751126E+03  0.13164917923E+04  0.00000000000E+00 0. -1.
         22    1    1    2    0    0  0.14331284611E+04 -0.97397767479E+03  0.46625942865E+03  0.17944045118E+04  0.00000000000E+00 0.  1.
<mgrwt>
<rscale>  0 0.38483073E+04</rscale>
<asrwt>0</asrwt>
<pdfrwt beam="1">  1        2 0.36107255E+00 0.38483073E+04</pdfrwt>
<pdfrwt beam="2">  1       -2 0.24269359E+00 0.38483073E+04</pdfrwt>
<totfact> 0.24271618E-01</totfact>
</mgrwt>
</event>
<event>
 6    1  0.1588846E-005  0.2309900E+04  0.7818608E-02  0.8474028E-01
         -1   -1    0    0    0  501 -0.00000000000E+00  0.00000000000E+00  0.95534173364E+03  0.95534173364E+03  0.00000000000E+00 0.  1.
          1   -1    0    0  501    0  0.00000000000E+00 -0.00000000000E+00 -0.13962638607E+04  0.13962638607E+04  0.00000000000E+00 0. -1.
         23    2    1    2    0    0 -0.70430177786E+03 -0.77486229938E+02 -0.11473231822E+04  0.13510819511E+04  0.83826272670E+02 0.  0.
         13    1    3    3    0    0 -0.33128728473E+03 -0.89572445635E+00 -0.57624939306E+03  0.66469198156E+03  0.00000000000E+00 0.  1.
        -13    1    3    3    0    0 -0.37301449312E+03 -0.76590505482E+02 -0.57107378913E+03  0.68638996951E+03  0.00000000000E+00 0. -1.
         22    1    1    2    0    0  0.70430177786E+03  0.77486229938E+02  0.70640105511E+03  0.10005236433E+04  0.00000000000E+00 0.  1.
<mgrwt>
<rscale>  0 0.23098997E+04</rscale>
<asrwt>0</asrwt>
<pdfrwt beam="1">  1        1 0.21480982E+00 0.23098997E+04</pdfrwt>
<pdfrwt beam="2">  1       -1 0.14697565E+00 0.23098997E+04</pdfrwt>
<totfact> 0.25727372E+00</totfact>
</mgrwt>
</event>
<event>
 6    1  0.1588846E-005  0.4367116E+04  0.7818608E-02  0.7934323E-01
          2   -1    0    0  501    0  0.00000000000E+00  0.00000000000E+00  0.28263121469E+04  0.28263121469E+04  0.00000000000E+00 0. -1.
         -2   -1    0    0    0  501 -0.00000000000E+00 -0.00000000000E+00 -0.16869776676E+04  0.16869776676E+04  0.00000000000E+00 0.  1.
         23    2    1    2    0    0  0.17386289148E+04  0.11731107898E+04  0.11944562905E+04  0.24151816566E+04  0.85773983178E+02 0.  0.
         11    1    3    3    0    0  0.79618220546E+03  0.48818857477E+03  0.54628681141E+03  0.10819720279E+04  0.00000000000E+00 0.  1.
        -11    1    3    3    0    0  0.94244670929E+03  0.68492221499E+03  0.64816947908E+03  0.13332096287E+04  0.00000000000E+00 0. -1.
         22    1    1    2    0    0 -0.17386289148E+04 -0.11731107898E+04 -0.55121811196E+02  0.20981081579E+04  0.00000000000E+00 0.  1.
<mgrwt>
<rscale>  0 0.43671160E+04</rscale>
<asrwt>0</asrwt>
<pdfrwt beam="1">  1        2 0.43481725E+00 0.43671160E+04</pdfrwt>
<pdfrwt beam="2">  1       -2 0.25953503E+00 0.43671160E+04</pdfrwt>
<totfact> 0.95843572E-02</totfact>
</mgrwt>
</event>
<event>
 6    1  0.1588846E-005  0.2719892E+04  0.7818608E-02  0.8328579E-01
         -1   -1    0    0    0  501 -0.00000000000E+00  0.00000000000E+00  0.96700322660E+03  0.96700322660E+03  0.00000000000E+00 0.  1.
          1   -1    0    0  501    0  0.00000000000E+00 -0.00000000000E+00 -0.19125613347E+04  0.19125613347E+04  0.00000000000E+00 0. -1.
         23    2    1    2    0    0 -0.94039568598E+02 -0.12351119818E+04  0.11705028569E+03  0.12475469001E+04  0.91254865244E+02 0.  0.
         11    1    3    3    0    0 -0.27208023529E+02 -0.65889577901E+03  0.22722915447E+02  0.65984866070E+03  0.00000000000E+00 0. -1.
        -11    1    3    3    0    0 -0.66831545069E+02 -0.57621620278E+03  0.94327370242E+02  0.58769823936E+03  0.00000000000E+00 0.  1.
         22    1    1    2    0    0  0.94039568598E+02  0.12351119818E+04 -0.10626083938E+04  0.16320176613E+04  0.00000000000E+00 0. -1.
<mgrwt>
<rscale>  0 0.27198919E+04</rscale>
<asrwt>0</asrwt>
<pdfrwt beam="1">  1        1 0.29424020E+00 0.27198919E+04</pdfrwt>
<pdfrwt beam="2">  1       -1 0.14876973E+00 0.27198919E+04</pdfrwt>
<totfact> 0.10622492E+00</totfact>
</mgrwt>
</event>
<event>
 6    1  0.1588846E-005  0.1837575E+04  0.7818608E-02  0.8686569E-01
          2   -1    0    0  501    0  0.00000000000E+00  0.00000000000E+00  0.10220646565E+04  0.10220646565E+04  0.00000000000E+00 0. -1.
         -2   -1    0    0    0  501 -0.00000000000E+00 -0.00000000000E+00 -0.82594621572E+03  0.82594621572E+03  0.00000000000E+00 0.  1.
         23    2    1    2    0    0  0.65385807802E+03 -0.54873432439E+01  0.74398530930E+03  0.99494662925E+03  0.94043380853E+02 0.  0.
         11    1    3    3    0    0  0.30170721171E+03 -0.48998094200E+02  0.33483327935E+03  0.45336671668E+03  0.00000000000E+00 0. -1.
        -11    1    3    3    0    0  0.35215086631E+03  0.43510750956E+02  0.40915202995E+03  0.54157991257E+03  0.00000000000E+00 0.  1.
         22    1    1    2    0    0 -0.65385807802E+03  0.54873432439E+01 -0.54786686848E+03  0.85306424301E+03  0.00000000000E+00 0.  1.
<mgrwt>
<rscale>  0 0.18375750E+04</rscale>
<asrwt>0</asrwt>
<pdfrwt beam="1">  1        2 0.15724072E+00 0.18375750E+04</pdfrwt>
<pdfrwt beam="2">  1       -2 0.12706865E+00 0.18375750E+04</pdfrwt>
<totfact> 0.10558925E+01</totfact>
</mgrwt>
</event>
<event>
 6    1  0.1588846E-005  0.8057625E+03  0.7818608E-02  0.9551713E-01
         -2   -1    0    0    0  501 -0.00000000000E+00  0.00000000000E+00  0.70649914057E+02  0.70649914057E+02  0.00000000000E+00 0.  1.
          2   -1    0    0  501    0  0.00000000000E+00 -0.00000000000E+00 -0.22974310299E+04  0.22974310299E+04  0.00000000000E+00 0. -1.
         23    2    1    2    0    0 -0.29072837033E+03  0.26781069222E+03 -0.98801313933E+03  0.10677764981E+04  0.87926869084E+02 0.  0.
         13    1    3    3    0    0 -0.65193945484E+02  0.95165050676E+02 -0.37119201372E+03  0.38870316238E+03  0.00000000000E+00 0. -1.
        -13    1    3    3    0    0 -0.22553442484E+03  0.17264564154E+03 -0.61682112562E+03  0.67907333576E+03  0.00000000000E+00 0.  1.
         22    1    1    2    0    0  0.29072837033E+03 -0.26781069222E+03 -0.12387679765E+04  0.13003044458E+04  0.00000000000E+00 0. -1.
<mgrwt>
<rscale>  0 0.80576251E+03</rscale>
<asrwt>0</asrwt>
<pdfrwt beam="1">  1        2 0.35345087E+00 0.80576251E+03</pdfrwt>
<pdfrwt beam="2">  1       -2 0.10869219E-01 0.80576251E+03</pdfrwt>
<totfact> 0.27978234E+02</totfact>
</mgrwt>
</event>
<event>
 6    1  0.1588846E-005  0.1833816E+04  0.7818608E-02  0.8688520E-01
         -1   -1    0    0    0  501 -0.00000000000E+00  0.00000000000E+00  0.51828775324E+03  0.51828775324E+03  0.00000000000E+00 0.  1.
          1   -1    0    0  501    0  0.00000000000E+00 -0.00000000000E+00 -0.16221116248E+04  0.16221116248E+04  0.00000000000E+00 0. -1.
         23    2    1    2    0    0  0.81914617554E+03  0.26777101893E+03 -0.19650623381E+03  0.88902930038E+03  0.95166283588E+02 0.  0.
         11    1    3    3    0    0  0.17500838576E+03  0.17086990450E+02 -0.39458553083E+02  0.18021342276E+03  0.00000000000E+00 0.  1.
        -11    1    3    3    0    0  0.64413778978E+03  0.25068402848E+03 -0.15704768072E+03  0.70881587763E+03  0.00000000000E+00 0. -1.
         22    1    1    2    0    0 -0.81914617554E+03 -0.26777101893E+03 -0.90731763774E+03  0.12513700776E+04  0.00000000000E+00 0.  1.
<mgrwt>
<rscale>  0 0.18338163E+04</rscale>
<asrwt>0</asrwt>
<pdfrwt beam="1">  1        1 0.24955563E+00 0.18338163E+04</pdfrwt>
<pdfrwt beam="2">  1       -1 0.79736578E-01 0.18338163E+04</pdfrwt>
<totfact> 0.79636733E+00</totfact>
</mgrwt>
</event>
<event>
 6    1  0.1588846E-005  0.2062361E+04  0.7818608E-02  0.8578007E-01
         -1   -1    0    0    0  501 -0.00000000000E+00  0.00000000000E+00  0.91462760455E+03  0.91462760455E+03  0.00000000000E+00 0.  1.
          1   -1    0    0  501    0  0.00000000000E+00 -0.00000000000E+00 -0.11625861720E+04  0.11625861720E+04  0.00000000000E+00 0. -1.
         23    2    1    2    0    0  0.93433596667E+03  0.37351416875E+03 -0.34254499447E+03  0.10665490819E+04  0.87711675523E+02 0.  0.
         11    1    3    3    0    0  0.65801204086E+03  0.29792318651E+03 -0.26904419181E+03  0.77079364821E+03  0.00000000000E+00 0. -1.
        -11    1    3    3    0    0  0.27632392582E+03  0.75590982233E+02 -0.73500802654E+02  0.29575543370E+03  0.00000000000E+00 0.  1.
         22    1    1    2    0    0 -0.93433596667E+03 -0.37351416875E+03  0.94586426982E+02  0.10106646947E+04  0.00000000000E+00 0.  1.
<mgrwt>
<rscale>  0 0.20623612E+04</rscale>
<asrwt>0</asrwt>
<pdfrwt beam="1">  1        1 0.17885941E+00 0.20623612E+04</pdfrwt>
<pdfrwt beam="2">  1       -1 0.14071194E+00 0.20623612E+04</pdfrwt>
<totfact> 0.43454163E+00</totfact>
</mgrwt>
</event>
<event>
 6    1  0.1588846E-005  0.2011584E+04  0.7818608E-02  0.8601224E-01
         -2   -1    0    0    0  501 -0.00000000000E+00  0.00000000000E+00  0.48234841229E+03  0.48234841229E+03  0.00000000000E+00 0. -1.
          2   -1    0    0  501    0  0.00000000000E+00 -0.00000000000E+00 -0.20972745715E+04  0.20972745715E+04  0.00000000000E+00 0.  1.
         23    2    1    2    0    0  0.97194957236E+02 -0.64003174008E+03 -0.17922490745E+04  0.19084069944E+04  0.10379317608E+03 0.  0.
         13    1    3    3    0    0  0.60404218406E+02 -0.48227002145E+03 -0.12079156014E+04  0.13020342328E+04  0.00000000000E+00 0. -1.
        -13    1    3    3    0    0  0.36790738831E+02 -0.15776171863E+03 -0.58433347306E+03  0.60637276165E+03  0.00000000000E+00 0.  1.
         22    1    1    2    0    0 -0.97194957236E+02  0.64003174008E+03  0.17732291531E+03  0.67121598931E+03  0.00000000000E+00 0. -1.
<mgrwt>
<rscale>  0 0.20115835E+04</rscale>
<asrwt>0</asrwt>
<pdfrwt beam="1">  1        2 0.32265762E+00 0.20115835E+04</pdfrwt>
<pdfrwt beam="2">  1       -2 0.74207448E-01 0.20115835E+04</pdfrwt>
<totfact> 0.89472564E+00</totfact>
</mgrwt>
</event>
<event>
 6    1  0.1588846E-005  0.9168682E+03  0.7818608E-02  0.9404738E-01
         -2   -1    0    0    0  501 -0.00000000000E+00  0.00000000000E+00  0.14943793002E+03  0.14943793002E+03  0.00000000000E+00 0.  1.
          2   -1    0    0  501    0  0.00000000000E+00 -0.00000000000E+00 -0.14063487464E+04  0.14063487464E+04  0.00000000000E+00 0. -1.
         23    2    1    2    0    0  0.23076557210E+03 -0.17893979925E+03 -0.44955260067E+02  0.30914780669E+03  0.90990054130E+02 0.  0.
         11    1    3    3    0    0  0.14615785164E+03 -0.10503942008E+03 -0.71579583309E+02  0.19369830695E+03  0.00000000000E+00 0. -1.
        -11    1    3    3    0    0  0.84607720460E+02 -0.73900379171E+02  0.26624323242E+02  0.11544949974E+03  0.00000000000E+00 0.  1.
         22    1    1    2    0    0 -0.23076557210E+03  0.17893979925E+03 -0.12119555563E+04  0.12466388698E+04  0.00000000000E+00 0. -1.
<mgrwt>
<rscale>  0 0.91686825E+03</rscale>
<asrwt>0</asrwt>
<pdfrwt beam="1">  1        2 0.21636134E+00 0.91686825E+03</pdfrwt>
<pdfrwt beam="2">  1       -2 0.22990452E-01 0.91686825E+03</pdfrwt>
<totfact> 0.23975202E+02</totfact>
</mgrwt>
</event>
<event>
 6    1  0.1588846E-005  0.2008184E+04  0.7818608E-02  0.8602804E-01
         -2   -1    0    0    0  501 -0.00000000000E+00  0.00000000000E+00  0.55296481029E+03  0.55296481029E+03  0.00000000000E+00 0.  1.
          2   -1    0    0  501    0  0.00000000000E+00 -0.00000000000E+00 -0.18232632679E+04  0.18232632679E+04  0.00000000000E+00 0. -1.
         23    2    1    2    0    0  0.58610210823E+03  0.60831214750E+03 -0.12738460518E+04  0.15314962063E+04  0.96111997934E+02 0.  0.
         13    1    3    3    0    0  0.31083764688E+03  0.31634995159E+03 -0.58226311779E+03  0.73193419986E+03  0.00000000000E+00 0.  1.
        -13    1    3    3    0    0  0.27526446135E+03  0.29196219591E+03 -0.69158293396E+03  0.79956200640E+03  0.00000000000E+00 0. -1.
         22    1    1    2    0    0 -0.58610210823E+03 -0.60831214750E+03  0.35475941336E+01  0.84473187195E+03  0.00000000000E+00 0.  1.
<mgrwt>
<rscale>  0 0.20081837E+04</rscale>
<asrwt>0</asrwt>
<pdfrwt beam="1">  1        2 0.28050204E+00 0.20081837E+04</pdfrwt>
<pdfrwt beam="2">  1       -2 0.85071511E-01 0.20081837E+04</pdfrwt>
<totfact> 0.93516311E+00</totfact>
</mgrwt>
</event>
<event>
 6    1  0.1588846E-005  0.5871985E+04  0.7818608E-02  0.7706480E-01
          2   -1    0    0  501    0  0.00000000000E+00  0.00000000000E+00  0.36212284878E+04  0.36212284878E+04  0.00000000000E+00 0. -1.
         -2   -1    0    0    0  501 -0.00000000000E+00 -0.00000000000E+00 -0.23804223694E+04  0.23804223694E+04  0.00000000000E+00 0.  1.
         23    2    1    2    0    0 -0.16054064049E+04  0.97005893385E+03  0.29282838666E+04  0.34785723387E+04  0.85293918920E+02 0.  0.
         13    1    3    3    0    0 -0.62839569393E+03  0.36521737515E+03  0.10617092823E+04  0.12866590377E+04  0.00000000000E+00 0.  1.
        -13    1    3    3    0    0 -0.97701071094E+03  0.60484155869E+03  0.18665745843E+04  0.21919133010E+04  0.00000000000E+00 0. -1.
         22    1    1    2    0    0  0.16054064049E+04 -0.97005893385E+03 -0.16874777482E+04  0.25230785185E+04  0.00000000000E+00 0.  1.
<mgrwt>
<rscale>  0 0.58719855E+04</rscale>
<asrwt>0</asrwt>
<pdfrwt beam="1">  1        2 0.55711208E+00 0.58719855E+04</pdfrwt>
<pdfrwt beam="2">  1       -2 0.36621883E+00 0.58719855E+04</pdfrwt>
<totfact> 0.55478812E-03</totfact>
</mgrwt>
</event>
<event>
 6    1  0.1588846E-005  0.9205269E+03  0.7818608E-02  0.9400279E-01
         -2   -1    0    0    0  501 -0.00000000000E+00  0.00000000000E+00  0.27044905574E+03  0.27044905574E+03  0.00000000000E+00 0.  1.
          2   -1    0    0  501    0  0.00000000000E+00 -0.00000000000E+00 -0.78329890309E+03  0.78329890309E+03  0.00000000000E+00 0. -1.
         23    2    1    2    0    0 -0.14194355076E+03 -0.11362181509E+03  0.21919826066E+03  0.29945867686E+03  0.92572853477E+02 0.  0.
         11    1    3    3    0    0 -0.31735915534E+02  0.20313388090E+01  0.85220813469E+02  0.90960880165E+02  0.00000000000E+00 0. -1.
        -11    1    3    3    0    0 -0.11020763522E+03 -0.11565315390E+03  0.13397744719E+03  0.20849779669E+03  0.00000000000E+00 0.  1.
         22    1    1    2    0    0  0.14194355076E+03  0.11362181509E+03 -0.73204810801E+03  0.75428928197E+03  0.00000000000E+00 0. -1.
<mgrwt>
<rscale>  0 0.92052691E+03</rscale>
<asrwt>0</asrwt>
<pdfrwt beam="1">  1        2 0.12050752E+00 0.92052691E+03</pdfrwt>
<pdfrwt beam="2">  1       -2 0.41607548E-01 0.92052691E+03</pdfrwt>
<totfact> 0.19418400E+02</totfact>
</mgrwt>
</event>
<event>
 6    1  0.1588846E-005  0.2018732E+04  0.7818608E-02  0.8597913E-01
          1   -1    0    0  501    0  0.00000000000E+00  0.00000000000E+00  0.11067195804E+04  0.11067195804E+04  0.00000000000E+00 0. -1.
         -1   -1    0    0    0  501 -0.00000000000E+00 -0.00000000000E+00 -0.92057610935E+03  0.92057610935E+03  0.00000000000E+00 0.  1.
         23    2    1    2    0    0  0.40089930108E+03 -0.40619180194E+03 -0.74028262501E+03  0.93918846111E+03  0.91348623586E+02 0.  0.
         11    1    3    3    0    0  0.32575576015E+03 -0.27654187175E+03 -0.52569246635E+03  0.67745464149E+03  0.00000000000E+00 0.  1.
        -11    1    3    3    0    0  0.75143540935E+02 -0.12964993018E+03 -0.21459015865E+03  0.26173381962E+03  0.00000000000E+00 0. -1.
         22    1    1    2    0    0 -0.40089930108E+03  0.40619180194E+03  0.92642609604E+03  0.10881072286E+04  0.00000000000E+00 0. -1.
<mgrwt>
<rscale>  0 0.20187319E+04</rscale>
<asrwt>0</asrwt>
<pdfrwt beam="1">  1        1 0.17026455E+00 0.20187319E+04</pdfrwt>
<pdfrwt beam="2">  1       -1 0.14162709E+00 0.20187319E+04</pdfrwt>
<totfact> 0.47199992E+00</totfact>
</mgrwt>
</event>
<event>
 6    1  0.1588846E-005  0.2708358E+04  0.7818608E-02  0.8332298E-01
          2   -1    0    0  501    0  0.00000000000E+00  0.00000000000E+00  0.15524420672E+04  0.15524420672E+04  0.00000000000E+00 0.  1.
         -2   -1    0    0    0  501 -0.00000000000E+00 -0.00000000000E+00 -0.11812365550E+04  0.11812365550E+04  0.00000000000E+00 0. -1.
         23    2    1    2    0    0 -0.50511132566E+03  0.10594257372E+04 -0.49289049987E+03  0.12762211574E+04  0.90989305332E+02 0.  0.
         11    1    3    3    0    0 -0.75487476850E+02  0.15151611272E+03 -0.10674023811E+03  0.20012238757E+03  0.00000000000E+00 0. -1.
        -11    1    3    3    0    0 -0.42962384881E+03  0.90790962448E+03 -0.38615026176E+03  0.10760987698E+04  0.00000000000E+00 0.  1.
         22    1    1    2    0    0  0.50511132566E+03 -0.10594257372E+04  0.86409601202E+03  0.14574574649E+04  0.00000000000E+00 0.  1.
<mgrwt>
<rscale>  0 0.27083584E+04</rscale>
<asrwt>0</asrwt>
<pdfrwt beam="1">  1        2 0.23883724E+00 0.27083584E+04</pdfrwt>
<pdfrwt beam="2">  1       -2 0.18172870E+00 0.27083584E+04</pdfrwt>
<totfact> 0.18343710E+00</totfact>
</mgrwt>
</event>
<event>
 6    1  0.1588846E-005  0.6377341E+03  0.7818608E-02  0.9830071E-01
          2   -1    0    0  501    0  0.00000000000E+00  0.00000000000E+00  0.30379789523E+03  0.30379789523E+03  0.00000000000E+00 0. -1.
         -2   -1    0    0    0  501 -0.00000000000E+00 -0.00000000000E+00 -0.33468371685E+03  0.33468371685E+03  0.00000000000E+00 0.  1.
         23    2    1    2    0    0 -0.97486428060E+02  0.46878908954E+02 -0.30904741510E+03  0.34002707979E+03  0.91689009409E+02 0.  0.
         11    1    3    3    0    0 -0.11094831342E+03  0.21657231568E+02 -0.23972979854E+03  0.26504516642E+03  0.00000000000E+00 0.  1.
        -11    1    3    3    0    0  0.13461885360E+02  0.25221677386E+02 -0.69317616557E+02  0.74981913371E+02  0.00000000000E+00 0. -1.
         22    1    1    2    0    0  0.97486428060E+02 -0.46878908954E+02  0.27816159348E+03  0.29845453230E+03  0.00000000000E+00 0. -1.
<mgrwt>
<rscale>  0 0.63773414E+03</rscale>
<asrwt>0</asrwt>
<pdfrwt beam="1">  1        2 0.46738137E-01 0.63773414E+03</pdfrwt>
<pdfrwt beam="2">  1       -2 0.51489803E-01 0.63773414E+03</pdfrwt>
<totfact> 0.38939849E+02</totfact>
</mgrwt>
</event>
<event>
 6    1  0.1588846E-005  0.7788741E+03  0.7818608E-02  0.9591110E-01
          1   -1    0    0  501    0  0.00000000000E+00  0.00000000000E+00  0.82803771600E+03  0.82803771600E+03  0.00000000000E+00 0. -1.
         -1   -1    0    0    0  501 -0.00000000000E+00 -0.00000000000E+00 -0.18315735970E+03  0.18315735970E+03  0.00000000000E+00 0.  1.
         23    2    1    2    0    0 -0.21399997443E+03 -0.11957187960E+03 -0.57391850492E+02  0.26736735647E+03  0.89989195793E+02 0.  0.
         13    1    3    3    0    0 -0.16798631490E+03 -0.59797140291E+02 -0.10658224916E+02  0.17863005833E+03  0.00000000000E+00 0. -1.
        -13    1    3    3    0    0 -0.46013659525E+02 -0.59774739305E+02 -0.46733625576E+02  0.88737298142E+02  0.00000000000E+00 0.  1.
         22    1    1    2    0    0  0.21399997443E+03  0.11957187960E+03  0.70227220679E+03  0.74382771922E+03  0.00000000000E+00 0. -1.
<mgrwt>
<rscale>  0 0.77887406E+03</rscale>
<asrwt>0</asrwt>
<pdfrwt beam="1">  1        1 0.12739042E+00 0.77887406E+03</pdfrwt>
<pdfrwt beam="2">  1       -1 0.28178056E-01 0.77887406E+03</pdfrwt>
<totfact> 0.24049070E+02</totfact>
</mgrwt>
</event>
<event>
 6    1  0.1588846E-005  0.2347518E+04  0.7818608E-02  0.8459417E-01
         -2   -1    0    0    0  501 -0.00000000000E+00  0.00000000000E+00  0.13409118114E+04  0.13409118114E+04  0.00000000000E+00 0.  1.
          2   -1    0    0  501    0  0.00000000000E+00 -0.00000000000E+00 -0.10274431336E+04  0.10274431336E+04  0.00000000000E+00 0. -1.
         23    2    1    2    0    0  0.85607050802E+03  0.78200395886E+03 -0.14794704754E+02  0.11633056701E+04  0.93135882157E+02 0.  0.
         11    1    3    3    0    0  0.48370566966E+03  0.49659504667E+03 -0.30137335808E+02  0.69389197592E+03  0.00000000000E+00 0. -1.
        -11    1    3    3    0    0  0.37236483835E+03  0.28540891219E+03  0.15342631054E+02  0.46941369422E+03  0.00000000000E+00 0.  1.
         22    1    1    2    0    0 -0.85607050802E+03 -0.78200395886E+03  0.32826338256E+03  0.12050492748E+04  0.00000000000E+00 0. -1.
<mgrwt>
<rscale>  0 0.23475184E+04</rscale>
<asrwt>0</asrwt>
<pdfrwt beam="1">  1        2 0.15806817E+00 0.23475184E+04</pdfrwt>
<pdfrwt beam="2">  1       -2 0.20629412E+00 0.23475184E+04</pdfrwt>
<totfact> 0.26428533E+00</totfact>
</mgrwt>
</event>
<event>
 6    1  0.1588846E-005  0.1746231E+04  0.7818608E-02  0.8735427E-01
          2   -1    0    0  501    0  0.00000000000E+00  0.00000000000E+00  0.13992100276E+04  0.13992100276E+04  0.00000000000E+00 0. -1.
         -2   -1    0    0    0  501 -0.00000000000E+00 -0.00000000000E+00 -0.54482965026E+03  0.54482965026E+03  0.00000000000E+00 0.  1.
         23    2    1    2    0    0  0.58240363734E+03  0.20683551738E+03 -0.25443449666E+03  0.67461250277E+03  0.91597968110E+02 0.  0.
         11    1    3    3    0    0  0.20757005073E+03  0.93983545356E+02 -0.51165827369E+02  0.23352981533E+03  0.00000000000E+00 0. -1.
        -11    1    3    3    0    0  0.37483358661E+03  0.11285197202E+03 -0.20326866930E+03  0.44108268743E+03  0.00000000000E+00 0.  1.
         22    1    1    2    0    0 -0.58240363734E+03 -0.20683551738E+03  0.11088148740E+04  0.12694271751E+04  0.00000000000E+00 0. -1.
<mgrwt>
<rscale>  0 0.17462315E+04</rscale>
<asrwt>0</asrwt>
<pdfrwt beam="1">  1        2 0.21526308E+00 0.17462315E+04</pdfrwt>
<pdfrwt beam="2">  1       -2 0.83819947E-01 0.17462315E+04</pdfrwt>
<totfact> 0.17084042E+01</totfact>
</mgrwt>
</event>
<event>
 6    1  0.1588846E-005  0.9709443E+03  0.7818608E-02  0.9340999E-01
          1   -1    0    0  501    0  0.00000000000E+00  0.00000000000E+00  0.13712551425E+04  0.13712551425E+04  0.00000000000E+00 0. -1.
         -1   -1    0    0    0  501 -0.00000000000E+00 -0.00000000000E+00 -0.17187408495E+03  0.17187408495E+03  0.00000000000E+00 0.  1.
         23    2    1    2    0    0  0.84564771011E+02  0.40494592282E+03  0.21716223377E+03  0.47734959793E+03  0.97830475672E+02 0.  0.
         13    1    3    3    0    0  0.27770525594E+02  0.28256917151E+03  0.18426850870E+03  0.33848400564E+03  0.00000000000E+00 0.  1.
        -13    1    3    3    0    0  0.56794245418E+02  0.12237675131E+03  0.32893725074E+02  0.13886559229E+03  0.00000000000E+00 0. -1.
         22    1    1    2    0    0 -0.84564771011E+02 -0.40494592282E+03  0.98221882378E+03  0.10657796295E+04  0.00000000000E+00 0. -1.
<mgrwt>
<rscale>  0 0.97094433E+03</rscale>
<asrwt>0</asrwt>
<pdfrwt beam="1">  1        1 0.21096232E+00 0.97094433E+03</pdfrwt>
<pdfrwt beam="2">  1       -1 0.26442168E-01 0.97094433E+03</pdfrwt>
<totfact> 0.10273830E+02</totfact>
</mgrwt>
</event>
<event>
 6    1  0.1588846E-005  0.2632216E+04  0.7818608E-02  0.8357340E-01
         -1   -1    0    0    0  501 -0.00000000000E+00  0.00000000000E+00  0.91433133929E+03  0.91433133929E+03  0.00000000000E+00 0.  1.
          1   -1    0    0  501    0  0.00000000000E+00 -0.00000000000E+00 -0.18944340660E+04  0.18944340660E+04  0.00000000000E+00 0. -1.
         23    2    1    2    0    0 -0.13651426069E+03 -0.11597797813E+04 -0.11346198416E+04  0.16308007100E+04  0.91779553102E+02 0.  0.
         13    1    3    3    0    0 -0.84302821178E+02 -0.54189926814E+03 -0.47557767272E+03  0.72590350961E+03  0.00000000000E+00 0. -1.
        -13    1    3    3    0    0 -0.52211439514E+02 -0.61788051319E+03 -0.65904216885E+03  0.90489720041E+03  0.00000000000E+00 0.  1.
         22    1    1    2    0    0  0.13651426069E+03  0.11597797813E+04  0.15451711485E+03  0.11779646953E+04  0.00000000000E+00 0.  1.
<mgrwt>
<rscale>  0 0.26322161E+04</rscale>
<asrwt>0</asrwt>
<pdfrwt beam="1">  1        1 0.29145139E+00 0.26322161E+04</pdfrwt>
<pdfrwt beam="2">  1       -1 0.14066636E+00 0.26322161E+04</pdfrwt>
<totfact> 0.12777301E+00</totfact>
</mgrwt>
</event>
<event>
 6    1  0.1588846E-005  0.2010465E+04  0.7818608E-02  0.8601743E-01
          2   -1    0    0  501    0  0.00000000000E+00  0.00000000000E+00  0.25741663646E+04  0.25741663646E+04  0.00000000000E+00 0. -1.
         -2   -1    0    0    0  501 -0.00000000000E+00 -0.00000000000E+00 -0.39255143522E+03  0.39255143522E+03  0.00000000000E+00 0.  1.
         23    2    1    2    0    0 -0.17194928981E+03 -0.50034632695E+03 -0.16461643172E+03  0.56157443508E+03  0.91401703431E+02 0.  0.
         13    1    3    3    0    0 -0.59380166641E+02 -0.29017468178E+03 -0.65328226350E+02  0.30330698524E+03  0.00000000000E+00 0.  1.
        -13    1    3    3    0    0 -0.11256912316E+03 -0.21017164517E+03 -0.99288205370E+02  0.25826744984E+03  0.00000000000E+00 0. -1.
         22    1    1    2    0    0  0.17194928981E+03  0.50034632695E+03  0.23462313611E+04  0.24051433648E+04  0.00000000000E+00 0. -1.
<mgrwt>
<rscale>  0 0.20104653E+04</rscale>
<asrwt>0</asrwt>
<pdfrwt beam="1">  1        2 0.39602558E+00 0.20104653E+04</pdfrwt>
<pdfrwt beam="2">  1       -2 0.60392530E-01 0.20104653E+04</pdfrwt>
<totfact> 0.74776957E+00</totfact>
</mgrwt>
</event>
<event>
 6    1  0.1588846E-005  0.1343285E+04  0.7818608E-02  0.8995927E-01
         -1   -1    0    0    0  501 -0.00000000000E+00  0.00000000000E+00  0.20521882803E+03  0.20521882803E+03  0.00000000000E+00 0.  1.
          1   -1    0    0  501    0  0.00000000000E+00 -0.00000000000E+00 -0.21981590293E+04  0.21981590293E+04  0.00000000000E+00 0. -1.
         23    2    1    2    0    0 -0.50080105592E+03  0.43886016111E+03 -0.11014732231E+04  0.12906724553E+04  0.95875893604E+02 0.  0.
         11    1    3    3    0    0 -0.16726133760E+03  0.20029098260E+03 -0.38392233547E+03  0.46420813483E+03  0.00000000000E+00 0. -1.
        -11    1    3    3    0    0 -0.33353971831E+03  0.23856917851E+03 -0.71755088765E+03  0.82646432046E+03  0.00000000000E+00 0.  1.
         22    1    1    2    0    0  0.50080105592E+03 -0.43886016111E+03 -0.89146697817E+03  0.11127054021E+04  0.00000000000E+00 0. -1.
<mgrwt>
<rscale>  0 0.13432850E+04</rscale>
<asrwt>0</asrwt>
<pdfrwt beam="1">  1        1 0.33817830E+00 0.13432850E+04</pdfrwt>
<pdfrwt beam="2">  1       -1 0.31572128E-01 0.13432850E+04</pdfrwt>
<totfact> 0.19993761E+01</totfact>
</mgrwt>
</event>
<event>
 6    1  0.1588846E-005  0.1192367E+04  0.7818608E-02  0.9119564E-01
         -1   -1    0    0    0  501 -0.00000000000E+00  0.00000000000E+00  0.67576499813E+03  0.67576499813E+03  0.00000000000E+00 0.  1.
          1   -1    0    0  501    0  0.00000000000E+00 -0.00000000000E+00 -0.52597385769E+03  0.52597385769E+03  0.00000000000E+00 0. -1.
         23    2    1    2    0    0 -0.27799787889E+03 -0.11125319044E+03 -0.44084028801E+03  0.53954131933E+03  0.84288686595E+02 0.  0.
         11    1    3    3    0    0 -0.16156101909E+03 -0.10745525813E+03 -0.29063681971E+03  0.34945436950E+03  0.00000000000E+00 0. -1.
        -11    1    3    3    0    0 -0.11643685980E+03 -0.37979323100E+01 -0.15020346830E+03  0.19008694984E+03  0.00000000000E+00 0.  1.
         22    1    1    2    0    0  0.27799787889E+03  0.11125319044E+03  0.59063142845E+03  0.66219753648E+03  0.00000000000E+00 0.  1.
<mgrwt>
<rscale>  0 0.11923669E+04</rscale>
<asrwt>0</asrwt>
<pdfrwt beam="1">  1        1 0.80919055E-01 0.11923669E+04</pdfrwt>
<pdfrwt beam="2">  1       -1 0.10396385E+00 0.11923669E+04</pdfrwt>
<totfact> 0.35657428E+01</totfact>
</mgrwt>
</event>
<event>
 6    1  0.1588846E-005  0.1948969E+04  0.7818608E-02  0.8630858E-01
         -1   -1    0    0    0  501 -0.00000000000E+00  0.00000000000E+00  0.45856312099E+03  0.45856312099E+03  0.00000000000E+00 0.  1.
          1   -1    0    0  501    0  0.00000000000E+00 -0.00000000000E+00 -0.20708606935E+04  0.20708606935E+04  0.00000000000E+00 0. -1.
         23    2    1    2    0    0 -0.55593312201E+03 -0.30476971837E+03  0.14888099898E+03  0.65760753663E+03  0.91301166476E+02 0.  0.
         13    1    3    3    0    0 -0.34607608760E+03 -0.23871819259E+03  0.92103099797E+02  0.43039286108E+03  0.00000000000E+00 0. -1.
        -13    1    3    3    0    0 -0.20985703441E+03 -0.66051525780E+02  0.56777899179E+02  0.22721467555E+03  0.00000000000E+00 0.  1.
         22    1    1    2    0    0  0.55593312201E+03  0.30476971837E+03 -0.17611785715E+04  0.18718162779E+04  0.00000000000E+00 0. -1.
<mgrwt>
<rscale>  0 0.19489693E+04</rscale>
<asrwt>0</asrwt>
<pdfrwt beam="1">  1        1 0.31859396E+00 0.19489693E+04</pdfrwt>
<pdfrwt beam="2">  1       -1 0.70548171E-01 0.19489693E+04</pdfrwt>
<totfact> 0.50460043E+00</totfact>
</mgrwt>
</event>
<event>
 6    1  0.1588846E-005  0.1320411E+04  0.7818608E-02  0.9013534E-01
         -1   -1    0    0    0  501 -0.00000000000E+00  0.00000000000E+00  0.17226347694E+03  0.17226347694E+03  0.00000000000E+00 0.  1.
          1   -1    0    0  501    0  0.00000000000E+00 -0.00000000000E+00 -0.25302593508E+04  0.25302593508E+04  0.00000000000E+00 0. -1.
         23    2    1    2    0    0  0.81718117133E+02 -0.33785560752E+03 -0.23257992609E+04  0.23534370445E+04  0.92192506040E+02 0.  0.
         13    1    3    3    0    0  0.87149870441E+02 -0.16674963454E+03 -0.11718548389E+04  0.11868632204E+04  0.00000000000E+00 0.  1.
        -13    1    3    3    0    0 -0.54317533083E+01 -0.17110597298E+03 -0.11539444220E+04  0.11665738241E+04  0.00000000000E+00 0. -1.
         22    1    1    2    0    0 -0.81718117133E+02  0.33785560752E+03 -0.32196612987E+02  0.34908578328E+03  0.00000000000E+00 0.  1.
<mgrwt>
<rscale>  0 0.13204110E+04</rscale>
<asrwt>0</asrwt>
<pdfrwt beam="1">  1        1 0.38927066E+00 0.13204110E+04</pdfrwt>
<pdfrwt beam="2">  1       -1 0.26502074E-01 0.13204110E+04</pdfrwt>
<totfact> 0.16113401E+01</totfact>
</mgrwt>
</event>
<event>
 6    1  0.1588846E-005  0.1201798E+04  0.7818608E-02  0.9111284E-01
         -2   -1    0    0    0  501 -0.00000000000E+00  0.00000000000E+00  0.24303733044E+03  0.24303733044E+03  0.00000000000E+00 0.  1.
          2   -1    0    0  501    0  0.00000000000E+00 -0.00000000000E+00 -0.14856953319E+04  0.14856953319E+04  0.00000000000E+00 0. -1.
         23    2    1    2    0    0  0.64202867262E+02  0.69110007000E+02 -0.14735516043E+04  0.14793132224E+04  0.90083729114E+02 0.  0.
         11    1    3    3    0    0  0.53600400162E+01  0.28877539169E+02 -0.99958162040E+03  0.10000130290E+04  0.00000000000E+00 0. -1.
        -11    1    3    3    0    0  0.58842827246E+02  0.40232467831E+02 -0.47396998386E+03  0.47930019340E+03  0.00000000000E+00 0.  1.
         22    1    1    2    0    0 -0.64202867262E+02 -0.69110007000E+02  0.23089360279E+03  0.24941943998E+03  0.00000000000E+00 0.  1.
<mgrwt>
<rscale>  0 0.12017977E+04</rscale>
<asrwt>0</asrwt>
<pdfrwt beam="1">  1        2 0.22856851E+00 0.12017977E+04</pdfrwt>
<pdfrwt beam="2">  1       -2 0.37390359E-01 0.12017977E+04</pdfrwt>
<totfact> 0.86018038E+01</totfact>
</mgrwt>
</event>
<event>
 6    1  0.1588846E-005  0.2727073E+04  0.7818608E-02  0.8326274E-01
         -2   -1    0    0    0  501 -0.00000000000E+00  0.00000000000E+00  0.15545043142E+04  0.15545043142E+04  0.00000000000E+00 0.  1.
          2   -1    0    0  501    0  0.00000000000E+00 -0.00000000000E+00 -0.11960288520E+04  0.11960288520E+04  0.00000000000E+00 0. -1.
         23    2    1    2    0    0  0.88589977874E+03  0.59846613347E+03 -0.67157594005E+03  0.12659503891E+04  0.92930154446E+02 0.  0.
         11    1    3    3    0    0  0.75047232844E+03  0.50727900441E+03 -0.52769814719E+03  0.10483348886E+04  0.00000000000E+00 0. -1.
        -11    1    3    3    0    0  0.13542745030E+03  0.91187129068E+02 -0.14387779287E+03  0.21761550055E+03  0.00000000000E+00 0.  1.
         22    1    1    2    0    0 -0.88589977874E+03 -0.59846613347E+03  0.10300514023E+04  0.14845827771E+04  0.00000000000E+00 0.  1.
<mgrwt>
<rscale>  0 0.27270732E+04</rscale>
<asrwt>0</asrwt>
<pdfrwt beam="1">  1        2 0.18400444E+00 0.27270732E+04</pdfrwt>
<pdfrwt beam="2">  1       -2 0.23915451E+00 0.27270732E+04</pdfrwt>
<totfact> 0.12498794E+00</totfact>
</mgrwt>
</event>
<event>
 6    1  0.1588846E-005  0.2386391E+04  0.7818608E-02  0.8444616E-01
          2   -1    0    0  501    0  0.00000000000E+00  0.00000000000E+00  0.15180014671E+04  0.15180014671E+04  0.00000000000E+00 0. -1.
         -2   -1    0    0    0  501 -0.00000000000E+00 -0.00000000000E+00 -0.93788784889E+03  0.93788784889E+03  0.00000000000E+00 0.  1.
         23    2    1    2    0    0  0.11051498776E+04 -0.23689613002E+02 -0.16714648919E+03  0.11216048194E+04  0.90232878931E+02 0.  0.
         13    1    3    3    0    0  0.10363370835E+04 -0.35477445291E+02 -0.17404783924E+03  0.10514494044E+04  0.00000000000E+00 0.  1.
        -13    1    3    3    0    0  0.68812794117E+02  0.11787832290E+02  0.69013500537E+01  0.70155415021E+02  0.00000000000E+00 0. -1.
         22    1    1    2    0    0 -0.11051498776E+04  0.23689613002E+02  0.74726010745E+03  0.13342844966E+04  0.00000000000E+00 0. -1.
<mgrwt>
<rscale>  0 0.23863907E+04</rscale>
<asrwt>0</asrwt>
<pdfrwt beam="1">  1        2 0.23353869E+00 0.23863907E+04</pdfrwt>
<pdfrwt beam="2">  1       -2 0.14429044E+00 0.23863907E+04</pdfrwt>
<totfact> 0.37059343E+00</totfact>
</mgrwt>
</event>
<event>
 6    1  0.1588846E-005  0.4162238E+04  0.7818608E-02  0.7972594E-01
         -1   -1    0    0    0  501 -0.00000000000E+00  0.00000000000E+00  0.20831659531E+04  0.20831659531E+04  0.00000000000E+00 0.  1.
          1   -1    0    0  501    0  0.00000000000E+00 -0.00000000000E+00 -0.20790738433E+04  0.20790738433E+04  0.00000000000E+00 0. -1.
         23    2    1    2    0    0 -0.10042005546E+04  0.17638624219E+04  0.45730881605E+03  0.20825680002E+04  0.91261849826E+02 0.  0.
         13    1    3    3    0    0 -0.72669031157E+03  0.13489301101E+04  0.36129409625E+03  0.15742378076E+04  0.00000000000E+00 0. -1.
        -13    1    3    3    0    0 -0.27751024302E+03  0.41493231174E+03  0.96014719801E+02  0.50833019261E+03  0.00000000000E+00 0.  1.
         22    1    1    2    0    0  0.10042005546E+04 -0.17638624219E+04 -0.45321670617E+03  0.20796717962E+04  0.00000000000E+00 0. -1.
<mgrwt>
<rscale>  0 0.41622378E+04</rscale>
<asrwt>0</asrwt>
<pdfrwt beam="1">  1        1 0.31985752E+00 0.41622378E+04</pdfrwt>
<pdfrwt beam="2">  1       -1 0.32048707E+00 0.41622378E+04</pdfrwt>
<totfact> 0.49413273E-02</totfact>
</mgrwt>
</event>
<event>
 6    1  0.1588846E-005  0.2660295E+04  0.7818608E-02  0.8348004E-01
         -2   -1    0    0    0  501 -0.00000000000E+00  0.00000000000E+00  0.13585878676E+04  0.13585878676E+04  0.00000000000E+00 0.  1.
          2   -1    0    0  501    0  0.00000000000E+00 -0.00000000000E+00 -0.13023022140E+04  0.13023022140E+04  0.00000000000E+00 0. -1.
         23    2    1    2    0    0  0.44602254978E+03 -0.88499571486E+03 -0.85713460420E+03  0.13131178094E+04  0.86285117469E+02 0.  0.
         13    1    3    3    0    0  0.26142045892E+03 -0.50225786671E+03 -0.54473064298E+03  0.78570674836E+03  0.00000000000E+00 0.  1.
        -13    1    3    3    0    0  0.18460209087E+03 -0.38273784815E+03 -0.31240396121E+03  0.52741106107E+03  0.00000000000E+00 0. -1.
         22    1    1    2    0    0 -0.44602254978E+03  0.88499571486E+03  0.91342025785E+03  0.13477722722E+04  0.00000000000E+00 0.  1.
<mgrwt>
<rscale>  0 0.26602947E+04</rscale>
<asrwt>0</asrwt>
<pdfrwt beam="1">  1        2 0.20035419E+00 0.26602947E+04</pdfrwt>
<pdfrwt beam="2">  1       -2 0.20901352E+00 0.26602947E+04</pdfrwt>
<totfact> 0.16855468E+00</totfact>
</mgrwt>
</event>
<event>
 6    1  0.1588846E-005  0.2968161E+04  0.7818608E-02  0.8252882E-01
          1   -1    0    0  501    0  0.00000000000E+00  0.00000000000E+00  0.91460103824E+03  0.91460103824E+03  0.00000000000E+00 0. -1.
         -1   -1    0    0    0  501 -0.00000000000E+00 -0.00000000000E+00 -0.24081476758E+04  0.24081476758E+04  0.00000000000E+00 0.  1.
         23    2    1    2    0    0 -0.98231256812E+03  0.25433855426E+03  0.46240289940E+03  0.11192595099E+04  0.96433020536E+02 0.  0.
         13    1    3    3    0    0 -0.44920803953E+03  0.76314750716E+02  0.23817058595E+03  0.51413717232E+03  0.00000000000E+00 0.  1.
        -13    1    3    3    0    0 -0.53310452859E+03  0.17802380354E+03  0.22423231345E+03  0.60512233757E+03  0.00000000000E+00 0. -1.
         22    1    1    2    0    0  0.98231256812E+03 -0.25433855426E+03 -0.19559495370E+04  0.22034892042E+04  0.00000000000E+00 0.  1.
<mgrwt>
<rscale>  0 0.29681606E+04</rscale>
<asrwt>0</asrwt>
<pdfrwt beam="1">  1        1 0.14070785E+00 0.29681606E+04</pdfrwt>
<pdfrwt beam="2">  1       -1 0.37048425E+00 0.29681606E+04</pdfrwt>
<totfact> 0.17126109E-01</totfact>
</mgrwt>
</event>
<event>
 6    1  0.1588846E-005  0.3135386E+04  0.7818608E-02  0.8206093E-01
         -2   -1    0    0    0  501 -0.00000000000E+00  0.00000000000E+00  0.84405194343E+03  0.84405194343E+03  0.00000000000E+00 0.  1.
          2   -1    0    0  501    0  0.00000000000E+00 -0.00000000000E+00 -0.29117410693E+04  0.29117410693E+04  0.00000000000E+00 0. -1.
         23    2    1    2    0    0 -0.13663040161E+04  0.40599445012E+03 -0.25653049475E+03  0.14510340785E+04  0.89854573802E+02 0.  0.
         13    1    3    3    0    0 -0.24560346823E+03  0.10611956002E+03 -0.63145083273E+02  0.27489948375E+03  0.00000000000E+00 0.  1.
        -13    1    3    3    0    0 -0.11207005478E+04  0.29987489010E+03 -0.19338541148E+03  0.11761345947E+04  0.00000000000E+00 0. -1.
         22    1    1    2    0    0  0.13663040161E+04 -0.40599445012E+03 -0.18111586311E+04  0.23047589342E+04  0.00000000000E+00 0. -1.
<mgrwt>
<rscale>  0 0.31353856E+04</rscale>
<asrwt>0</asrwt>
<pdfrwt beam="1">  1        2 0.44796017E+00 0.31353856E+04</pdfrwt>
<pdfrwt beam="2">  1       -2 0.12985414E+00 0.31353856E+04</pdfrwt>
<totfact> 0.72807429E-01</totfact>
</mgrwt>
</event>
<event>
 6    1  0.1800319E-005  0.1628320E+04  0.7818608E-02  0.8803336E-01
          1   -1    0    0  501    0  0.00000000000E+00  0.00000000000E+00  0.19031819088E+04  0.19031819088E+04  0.00000000000E+00 0. -1.
         -1   -1    0    0    0  501 -0.00000000000E+00 -0.00000000000E+00 -0.34828870662E+03  0.34828870662E+03  0.00000000000E+00 0.  1.
         23    2    1    2    0    0 -0.20613936837E+03 -0.49277478713E+03 -0.65080981818E+02  0.54570486749E+03  0.90762537338E+02 0.  0.
         11    1    3    3    0    0 -0.35089905251E+02 -0.13470719618E+03 -0.52208087647E+02  0.14867082622E+03  0.00000000000E+00 0. -1.
        -11    1    3    3    0    0 -0.17104946312E+03 -0.35806759095E+03 -0.12872894171E+02  0.39703404127E+03  0.00000000000E+00 0.  1.
         22    1    1    2    0    0  0.20613936837E+03  0.49277478713E+03  0.16199741840E+04  0.17057657479E+04  0.00000000000E+00 0. -1.
<mgrwt>
<rscale>  0 0.16283203E+04</rscale>
<asrwt>0</asrwt>
<pdfrwt beam="1">  1        1 0.29279721E+00 0.16283203E+04</pdfrwt>
<pdfrwt beam="2">  1       -1 0.53582879E-01 0.16283203E+04</pdfrwt>
<totfact> 0.11666379E+01</totfact>
</mgrwt>
</event>
<event>
 6    1  0.1588846E-005  0.3243939E+04  0.7818608E-02  0.8177308E-01
          2   -1    0    0  501    0  0.00000000000E+00  0.00000000000E+00  0.38363292445E+04  0.38363292445E+04  0.00000000000E+00 0.  1.
         -2   -1    0    0    0  501 -0.00000000000E+00 -0.00000000000E+00 -0.68575600516E+03  0.68575600516E+03  0.00000000000E+00 0. -1.
         23    2    1    2    0    0 -0.13952712598E+04 -0.86446380936E+02  0.43184841734E+03  0.14650082923E+04  0.74171259860E+02 0.  0.
         13    1    3    3    0    0 -0.28541934873E+03 -0.40133142973E+02  0.10999453001E+03  0.30850230214E+03  0.00000000000E+00 0.  1.
        -13    1    3    3    0    0 -0.11098519111E+04 -0.46313237963E+02  0.32185388733E+03  0.11565059902E+04  0.00000000000E+00 0. -1.
         22    1    1    2    0    0  0.13952712598E+04  0.86446380936E+02  0.27187248221E+04  0.30570769574E+04  0.00000000000E+00 0.  1.
<mgrwt>
<rscale>  0 0.32439395E+04</rscale>
<asrwt>0</asrwt>
<pdfrwt beam="1">  1        2 0.59020449E+00 0.32439395E+04</pdfrwt>
<pdfrwt beam="2">  1       -2 0.10550093E+00 0.32439395E+04</pdfrwt>
<totfact> 0.28040477E-01</totfact>
</mgrwt>
</event>
<event>
 6    1  0.1588846E-005  0.1907989E+04  0.7818608E-02  0.8650890E-01
         -2   -1    0    0    0  501 -0.00000000000E+00  0.00000000000E+00  0.24905062763E+03  0.24905062763E+03  0.00000000000E+00 0. -1.
          2   -1    0    0  501    0  0.00000000000E+00 -0.00000000000E+00 -0.36542987469E+04  0.36542987469E+04  0.00000000000E+00 0.  1.
         23    2    1    2    0    0  0.62964265906E+03 -0.63275631287E+03 -0.10300782081E+04  0.13659762178E+04  0.89439829946E+02 0.  0.
         11    1    3    3    0    0  0.35616238811E+03 -0.41964895076E+03 -0.63147382883E+03  0.83768495574E+03  0.00000000000E+00 0. -1.
        -11    1    3    3    0    0  0.27348027095E+03 -0.21310736211E+03 -0.39860437927E+03  0.52829126205E+03  0.00000000000E+00 0.  1.
         22    1    1    2    0    0 -0.62964265906E+03  0.63275631287E+03 -0.23751699112E+04  0.25373731567E+04  0.00000000000E+00 0. -1.
<mgrwt>
<rscale>  0 0.19079889E+04</rscale>
<asrwt>0</asrwt>
<pdfrwt beam="1">  1        2 0.56219980E+00 0.19079889E+04</pdfrwt>
<pdfrwt beam="2">  1       -2 0.38315482E-01 0.19079889E+04</pdfrwt>
<totfact> 0.38282140E+00</totfact>
</mgrwt>
</event>
<event>
 6    1  0.1588846E-005  0.1051418E+04  0.7818608E-02  0.9253881E-01
         -1   -1    0    0    0  501 -0.00000000000E+00  0.00000000000E+00  0.68862167349E+03  0.68862167349E+03  0.00000000000E+00 0.  1.
          1   -1    0    0  501    0  0.00000000000E+00 -0.00000000000E+00 -0.40133782256E+03  0.40133782256E+03  0.00000000000E+00 0. -1.
         23    2    1    2    0    0 -0.19175269530E+03 -0.82946650552E+02 -0.35120263703E+03  0.41816024158E+03  0.88687385750E+02 0.  0.
         13    1    3    3    0    0 -0.53443411736E+02 -0.19794018881E+02 -0.18183634038E+03  0.19055827488E+03  0.00000000000E+00 0.  1.
        -13    1    3    3    0    0 -0.13830928356E+03 -0.63152631671E+02 -0.16936629664E+03  0.22760196670E+03  0.00000000000E+00 0. -1.
         22    1    1    2    0    0  0.19175269530E+03  0.82946650552E+02  0.63848648796E+03  0.67179925446E+03  0.00000000000E+00 0.  1.
<mgrwt>
<rscale>  0 0.10514179E+04</rscale>
<asrwt>0</asrwt>
<pdfrwt beam="1">  1        1 0.61744281E-01 0.10514179E+04</pdfrwt>
<pdfrwt beam="2">  1       -1 0.10594180E+00 0.10514179E+04</pdfrwt>
<totfact> 0.49806090E+01</totfact>
</mgrwt>
</event>
<event>
 6    1  0.1588846E-005  0.4862910E+04  0.7818608E-02  0.7850010E-01
         -2   -1    0    0    0  501 -0.00000000000E+00  0.00000000000E+00  0.24326167295E+04  0.24326167295E+04  0.00000000000E+00 0. -1.
          2   -1    0    0  501    0  0.00000000000E+00 -0.00000000000E+00 -0.24302933433E+04  0.24302933433E+04  0.00000000000E+00 0.  1.
         23    2    1    2    0    0  0.17288440194E+04  0.14109087006E+04  0.96477042369E+03  0.24327106354E+04  0.87943506470E+02 0.  0.
         11    1    3    3    0    0  0.76325114579E+03  0.66588053449E+03  0.40679340225E+03  0.10915264861E+04  0.00000000000E+00 0.  1.
        -11    1    3    3    0    0  0.96559287364E+03  0.74502816614E+03  0.55797702144E+03  0.13411841493E+04  0.00000000000E+00 0. -1.
         22    1    1    2    0    0 -0.17288440194E+04 -0.14109087006E+04 -0.96244703747E+03  0.24301994373E+04  0.00000000000E+00 0.  1.
<mgrwt>
<rscale>  0 0.48629095E+04</rscale>
<asrwt>0</asrwt>
<pdfrwt beam="1">  1        2 0.37389129E+00 0.48629095E+04</pdfrwt>
<pdfrwt beam="2">  1       -2 0.37424873E+00 0.48629095E+04</pdfrwt>
<totfact> 0.30656995E-02</totfact>
</mgrwt>
</event>
<event>
 6    1  0.1588846E-005  0.9359364E+03  0.7818608E-02  0.9381742E-01
         -2   -1    0    0    0  501 -0.00000000000E+00  0.00000000000E+00  0.48822737330E+03  0.48822737330E+03  0.00000000000E+00 0. -1.
          2   -1    0    0  501    0  0.00000000000E+00 -0.00000000000E+00 -0.44854967898E+03  0.44854967898E+03  0.00000000000E+00 0.  1.
         23    2    1    2    0    0  0.44200598421E+03 -0.24494020299E+01 -0.12508050725E+03  0.46505620831E+03  0.72504165008E+02 0.  0.
         13    1    3    3    0    0  0.33482315532E+03 -0.26023236923E+02 -0.73441197474E+02  0.34376934664E+03  0.00000000000E+00 0.  1.
        -13    1    3    3    0    0  0.10718282889E+03  0.23573834893E+02 -0.51639309777E+02  0.12128686167E+03  0.00000000000E+00 0. -1.
         22    1    1    2    0    0 -0.44200598421E+03  0.24494020299E+01  0.16475820157E+03  0.47172084397E+03  0.00000000000E+00 0. -1.
<mgrwt>
<rscale>  0 0.93593639E+03</rscale>
<asrwt>0</asrwt>
<pdfrwt beam="1">  1        2 0.69007643E-01 0.93593639E+03</pdfrwt>
<pdfrwt beam="2">  1       -2 0.75111904E-01 0.93593639E+03</pdfrwt>
<totfact> 0.11136348E+02</totfact>
</mgrwt>
</event>
<event>
 6    1  0.1588846E-005  0.2066284E+04  0.7818608E-02  0.8576243E-01
         -1   -1    0    0    0  501 -0.00000000000E+00  0.00000000000E+00  0.10734086865E+04  0.10734086865E+04  0.00000000000E+00 0.  1.
          1   -1    0    0  501    0  0.00000000000E+00 -0.00000000000E+00 -0.99438568001E+03  0.99438568001E+03  0.00000000000E+00 0. -1.
         23    2    1    2    0    0  0.75078404928E+02 -0.60067635614E+03 -0.79576599942E+03  0.10039782844E+04  0.90994604018E+02 0.  0.
         13    1    3    3    0    0  0.32513585097E+02 -0.18962201723E+03 -0.32394835000E+03  0.37677072086E+03  0.00000000000E+00 0.  1.
        -13    1    3    3    0    0  0.42564819831E+02 -0.41105433891E+03 -0.47181764943E+03  0.62720756352E+03  0.00000000000E+00 0. -1.
         22    1    1    2    0    0 -0.75078404928E+02  0.60067635614E+03  0.87478900587E+03  0.10638160821E+04  0.00000000000E+00 0.  1.
<mgrwt>
<rscale>  0 0.20662838E+04</rscale>
<asrwt>0</asrwt>
<pdfrwt beam="1">  1        1 0.15298241E+00 0.20662838E+04</pdfrwt>
<pdfrwt beam="2">  1       -1 0.16513980E+00 0.20662838E+04</pdfrwt>
<totfact> 0.37692731E+00</totfact>
</mgrwt>
</event>
<event>
 6    1  0.1588846E-005  0.1920716E+04  0.7818608E-02  0.8644613E-01
         -2   -1    0    0    0  501 -0.00000000000E+00  0.00000000000E+00  0.77169399364E+03  0.77169399364E+03  0.00000000000E+00 0. -1.
          2   -1    0    0  501    0  0.00000000000E+00 -0.00000000000E+00 -0.11951460978E+04  0.11951460978E+04  0.00000000000E+00 0.  1.
         23    2    1    2    0    0  0.31738745991E+03 -0.61377895770E+03  0.46738587981E+03  0.83943079472E+03  0.93461702591E+02 0.  0.
         13    1    3    3    0    0  0.12031569779E+03 -0.25001314147E+03  0.24275739998E+03  0.36866460813E+03  0.00000000000E+00 0. -1.
        -13    1    3    3    0    0  0.19707176213E+03 -0.36376581624E+03  0.22462847983E+03  0.47076618659E+03  0.00000000000E+00 0.  1.
         22    1    1    2    0    0 -0.31738745991E+03  0.61377895770E+03 -0.89083798393E+03  0.11274092967E+04  0.00000000000E+00 0.  1.
<mgrwt>
<rscale>  0 0.19207156E+04</rscale>
<asrwt>0</asrwt>
<pdfrwt beam="1">  1        2 0.18386863E+00 0.19207156E+04</pdfrwt>
<pdfrwt beam="2">  1       -2 0.11872215E+00 0.19207156E+04</pdfrwt>
<totfact> 0.97239202E+00</totfact>
</mgrwt>
</event>
<event>
 6    1  0.1588846E-005  0.4022827E+04  0.7818608E-02  0.7999957E-01
          2   -1    0    0  501    0  0.00000000000E+00  0.00000000000E+00  0.12230089512E+04  0.12230089512E+04  0.00000000000E+00 0. -1.
         -2   -1    0    0    0  501 -0.00000000000E+00 -0.00000000000E+00 -0.33080573530E+04  0.33080573530E+04  0.00000000000E+00 0.  1.
         23    2    1    2    0    0  0.32285818026E+03 -0.16833073244E+04  0.14066133692E+03  0.17218769560E+04  0.85520096237E+02 0.  0.
         13    1    3    3    0    0  0.11372483809E+03 -0.39958407614E+03  0.30262527557E+02  0.41655322982E+03  0.00000000000E+00 0.  1.
        -13    1    3    3    0    0  0.20913334217E+03 -0.12837232483E+04  0.11039880936E+03  0.13053237262E+04  0.00000000000E+00 0. -1.
         22    1    1    2    0    0 -0.32285818026E+03  0.16833073244E+04 -0.22257097388E+04  0.28091893482E+04  0.00000000000E+00 0.  1.
<mgrwt>
<rscale>  0 0.40228267E+04</rscale>
<asrwt>0</asrwt>
<pdfrwt beam="1">  1        2 0.18815523E+00 0.40228267E+04</pdfrwt>
<pdfrwt beam="2">  1       -2 0.50893189E+00 0.40228267E+04</pdfrwt>
<totfact> 0.21043015E-02</totfact>
</mgrwt>
</event>
<event>
 6    1  0.1588846E-005  0.1364211E+04  0.7818608E-02  0.8980140E-01
         -2   -1    0    0    0  501 -0.00000000000E+00  0.00000000000E+00  0.22924961055E+03  0.22924961055E+03  0.00000000000E+00 0.  1.
          2   -1    0    0  501    0  0.00000000000E+00 -0.00000000000E+00 -0.20295250408E+04  0.20295250408E+04  0.00000000000E+00 0. -1.
         23    2    1    2    0    0  0.59687120698E+03  0.16984731648E+03 -0.13612295978E+04  0.14986005978E+04  0.88058987814E+02 0.  0.
         11    1    3    3    0    0  0.18345288764E+03  0.37677916510E+02 -0.50581152968E+03  0.53936990177E+03  0.00000000000E+00 0.  1.
        -11    1    3    3    0    0  0.41341831933E+03  0.13216939997E+03 -0.85541806810E+03  0.95923069607E+03  0.00000000000E+00 0. -1.
         22    1    1    2    0    0 -0.59687120698E+03 -0.16984731648E+03 -0.43904583248E+03  0.76017405352E+03  0.00000000000E+00 0.  1.
<mgrwt>
<rscale>  0 0.13642109E+04</rscale>
<asrwt>0</asrwt>
<pdfrwt beam="1">  1        2 0.31223462E+00 0.13642109E+04</pdfrwt>
<pdfrwt beam="2">  1       -2 0.35269172E-01 0.13642109E+04</pdfrwt>
<totfact> 0.47427317E+01</totfact>
</mgrwt>
</event>
<event>
 6    1  0.2205958E-005  0.2902665E+04  0.7818608E-02  0.8272085E-01
          2   -1    0    0  501    0  0.00000000000E+00  0.00000000000E+00  0.26733857066E+04  0.26733857066E+04  0.00000000000E+00 0. -1.
         -2   -1    0    0    0  501 -0.00000000000E+00 -0.00000000000E+00 -0.78790201418E+03  0.78790201418E+03  0.00000000000E+00 0.  1.
         23    2    1    2    0    0  0.45676665527E+03 -0.89646533867E+03 -0.30128904569E+03  0.10541606180E+04  0.90518720088E+02 0.  0.
         11    1    3    3    0    0  0.30309929205E+03 -0.54774042299E+03 -0.14704938619E+03  0.64304920014E+03  0.00000000000E+00 0.  1.
        -11    1    3    3    0    0  0.15366736323E+03 -0.34872491568E+03 -0.15423965950E+03  0.41111141786E+03  0.00000000000E+00 0. -1.
         22    1    1    2    0    0 -0.45676665527E+03  0.89646533867E+03  0.21867727381E+04  0.24071271028E+04  0.00000000000E+00 0. -1.
<mgrwt>
<rscale>  0 0.29026650E+04</rscale>
<asrwt>0</asrwt>
<pdfrwt beam="1">  1        2 0.41129010E+00 0.29026650E+04</pdfrwt>
<pdfrwt beam="2">  1       -2 0.12121570E+00 0.29026650E+04</pdfrwt>
<totfact> 0.12302031E+00</totfact>
</mgrwt>
</event>
<event>
 6    1  0.1588846E-005  0.2886392E+04  0.7818608E-02  0.8276938E-01
         -2   -1    0    0    0  501 -0.00000000000E+00  0.00000000000E+00  0.16624139852E+04  0.16624139852E+04  0.00000000000E+00 0.  1.
          2   -1    0    0  501    0  0.00000000000E+00 -0.00000000000E+00 -0.12528858073E+04  0.12528858073E+04  0.00000000000E+00 0. -1.
         23    2    1    2    0    0 -0.15240350620E+03 -0.12014424194E+04 -0.58519459544E+03  0.13480843920E+04  0.90488107647E+02 0.  0.
         13    1    3    3    0    0 -0.74206560302E+02 -0.85597134567E+03 -0.43968350355E+03  0.96515032067E+03  0.00000000000E+00 0. -1.
        -13    1    3    3    0    0 -0.78196945895E+02 -0.34547107374E+03 -0.14551109189E+03  0.38293407135E+03  0.00000000000E+00 0.  1.
         22    1    1    2    0    0  0.15240350620E+03  0.12014424194E+04  0.99472277331E+03  0.15672154005E+04  0.00000000000E+00 0.  1.
<mgrwt>
<rscale>  0 0.28863921E+04</rscale>
<asrwt>0</asrwt>
<pdfrwt beam="1">  1        2 0.19275166E+00 0.28863921E+04</pdfrwt>
<pdfrwt beam="2">  1       -2 0.25575600E+00 0.28863921E+04</pdfrwt>
<totfact> 0.90172368E-01</totfact>
</mgrwt>
</event>
<event>
 6    1  0.1588846E-005  0.1130996E+04  0.7818608E-02  0.9175497E-01
         -1   -1    0    0    0  501 -0.00000000000E+00  0.00000000000E+00  0.61334176984E+03  0.61334176984E+03  0.00000000000E+00 0.  1.
          1   -1    0    0  501    0  0.00000000000E+00 -0.00000000000E+00 -0.52138648045E+03  0.52138648045E+03  0.00000000000E+00 0. -1.
         23    2    1    2    0    0 -0.69356751606E+02 -0.21018455584E+03 -0.47190066389E+03  0.52898784174E+03  0.90277315124E+02 0.  0.
         11    1    3    3    0    0 -0.70160214690E+02 -0.13774078098E+03 -0.39068451701E+03  0.42015398404E+03  0.00000000000E+00 0. -1.
        -11    1    3    3    0    0  0.80346308409E+00 -0.72443774868E+02 -0.81216146879E+02  0.10883385771E+03  0.00000000000E+00 0.  1.
         22    1    1    2    0    0  0.69356751606E+02  0.21018455584E+03  0.56385595327E+03  0.60574040855E+03  0.00000000000E+00 0.  1.
<mgrwt>
<rscale>  0 0.11309962E+04</rscale>
<asrwt>0</asrwt>
<pdfrwt beam="1">  1        1 0.80213304E-01 0.11309962E+04</pdfrwt>
<pdfrwt beam="2">  1       -1 0.94360273E-01 0.11309962E+04</pdfrwt>
<totfact> 0.45233669E+01</totfact>
</mgrwt>
</event>
<event>
 6    1  0.1588846E-005  0.1975346E+04  0.7818608E-02  0.8618235E-01
         -1   -1    0    0    0  501 -0.00000000000E+00  0.00000000000E+00  0.82919363363E+03  0.82919363363E+03  0.00000000000E+00 0.  1.
          1   -1    0    0  501    0  0.00000000000E+00 -0.00000000000E+00 -0.11764418828E+04  0.11764418828E+04  0.00000000000E+00 0. -1.
         23    2    1    2    0    0  0.49065316863E+03 -0.80403325543E+03 -0.46901761507E+03  0.10558788181E+04  0.87707168886E+02 0.  0.
         13    1    3    3    0    0  0.42220414187E+03 -0.63401498508E+03 -0.39680336686E+03  0.85888547006E+03  0.00000000000E+00 0. -1.
        -13    1    3    3    0    0  0.68449026757E+02 -0.17001827035E+03 -0.72214248211E+02  0.19699334801E+03  0.00000000000E+00 0.  1.
         22    1    1    2    0    0 -0.49065316863E+03  0.80403325543E+03  0.12176936586E+03  0.94975669841E+03  0.00000000000E+00 0. -1.
<mgrwt>
<rscale>  0 0.19753462E+04</rscale>
<asrwt>0</asrwt>
<pdfrwt beam="1">  1        1 0.18099106E+00 0.19753462E+04</pdfrwt>
<pdfrwt beam="2">  1       -1 0.12756825E+00 0.19753462E+04</pdfrwt>
<totfact> 0.54986429E+00</totfact>
</mgrwt>
</event>
<event>
 6    1  0.1588846E-005  0.3411385E+04  0.7818608E-02  0.8135118E-01
         -1   -1    0    0    0  501 -0.00000000000E+00  0.00000000000E+00  0.18536156425E+04  0.18536156425E+04  0.00000000000E+00 0.  1.
          1   -1    0    0  501    0  0.00000000000E+00 -0.00000000000E+00 -0.15695736376E+04  0.15695736376E+04  0.00000000000E+00 0. -1.
         23    2    1    2    0    0  0.77676933230E+03 -0.11682179847E+04  0.11135206836E+04  0.17934228140E+04  0.91286480029E+02 0.  0.
         13    1    3    3    0    0  0.41307028066E+03 -0.56239425938E+03  0.51249369188E+03  0.86577372562E+03  0.00000000000E+00 0.  1.
        -13    1    3    3    0    0  0.36369905164E+03 -0.60582372535E+03  0.60102699173E+03  0.92764908837E+03  0.00000000000E+00 0. -1.
         22    1    1    2    0    0 -0.77676933230E+03  0.11682179847E+04 -0.82947867877E+03  0.16297664661E+04  0.00000000000E+00 0.  1.
<mgrwt>
<rscale>  0 0.34113846E+04</rscale>
<asrwt>0</asrwt>
<pdfrwt beam="1">  1        1 0.24147287E+00 0.34113846E+04</pdfrwt>
<pdfrwt beam="2">  1       -1 0.28517163E+00 0.34113846E+04</pdfrwt>
<totfact> 0.19829784E-01</totfact>
</mgrwt>
</event>
<event>
 6    1  0.1588846E-005  0.2795543E+04  0.7818608E-02  0.8304653E-01
         -2   -1    0    0    0  501 -0.00000000000E+00  0.00000000000E+00  0.18855011054E+04  0.18855011054E+04  0.00000000000E+00 0. -1.
          2   -1    0    0  501    0  0.00000000000E+00 -0.00000000000E+00 -0.10362048195E+04  0.10362048195E+04  0.00000000000E+00 0.  1.
         23    2    1    2    0    0 -0.50605238668E+03 -0.12731923812E+04  0.70758935093E+03  0.15443211880E+04  0.84483043040E+02 0.  0.
         11    1    3    3    0    0 -0.32814527846E+03 -0.78727769645E+03  0.48335831714E+03  0.98036766463E+03  0.00000000000E+00 0. -1.
        -11    1    3    3    0    0 -0.17790710822E+03 -0.48591468479E+03  0.22423103379E+03  0.56395352341E+03  0.00000000000E+00 0.  1.
         22    1    1    2    0    0  0.50605238668E+03  0.12731923812E+04  0.14170693495E+03  0.13773847368E+04  0.00000000000E+00 0.  1.
<mgrwt>
<rscale>  0 0.27955431E+04</rscale>
<asrwt>0</asrwt>
<pdfrwt beam="1">  1        2 0.15941613E+00 0.27955431E+04</pdfrwt>
<pdfrwt beam="2">  1       -2 0.29007709E+00 0.27955431E+04</pdfrwt>
<totfact> 0.75983839E-01</totfact>
</mgrwt>
</event>
<event>
 6    1  0.1588846E-005  0.5104944E+04  0.7818608E-02  0.7812519E-01
         -1   -1    0    0    0  501 -0.00000000000E+00  0.00000000000E+00  0.17798042508E+04  0.17798042508E+04  0.00000000000E+00 0.  1.
          1   -1    0    0  501    0  0.00000000000E+00 -0.00000000000E+00 -0.36605785746E+04  0.36605785746E+04  0.00000000000E+00 0. -1.
         23    2    1    2    0    0  0.23546402513E+04  0.16935983395E+01  0.10716132799E+03  0.23587888001E+04  0.89819107012E+02 0.  0.
         11    1    3    3    0    0  0.54486139412E+03  0.36460879328E+02  0.36460239075E+02  0.54729579165E+03  0.00000000000E+00 0.  1.
        -11    1    3    3    0    0  0.18097788572E+04 -0.34767280989E+02  0.70701088917E+02  0.18114930085E+04  0.00000000000E+00 0. -1.
         22    1    1    2    0    0 -0.23546402513E+04 -0.16935983395E+01 -0.19879356518E+04  0.30815940253E+04  0.00000000000E+00 0. -1.
<mgrwt>
<rscale>  0 0.51049440E+04</rscale>
<asrwt>0</asrwt>
<pdfrwt beam="1">  1        1 0.56316593E+00 0.51049440E+04</pdfrwt>
<pdfrwt beam="2">  1       -1 0.27381604E+00 0.51049440E+04</pdfrwt>
<totfact> 0.64825746E-03</totfact>
</mgrwt>
</event>
<event>
 6    1  0.1588846E-005  0.2907610E+04  0.7818608E-02  0.8270617E-01
          2   -1    0    0  501    0  0.00000000000E+00  0.00000000000E+00  0.77691594871E+03  0.77691594871E+03  0.00000000000E+00 0.  1.
         -2   -1    0    0    0  501 -0.00000000000E+00 -0.00000000000E+00 -0.27204342166E+04  0.27204342166E+04  0.00000000000E+00 0. -1.
         23    2    1    2    0    0  0.19213492070E+03  0.13900134004E+04 -0.51971003098E+03  0.14982796372E+04  0.75433904216E+02 0.  0.
         13    1    3    3    0    0  0.11800198112E+03  0.62641673282E+03 -0.21345712575E+03  0.67222491418E+03  0.00000000000E+00 0.  1.
        -13    1    3    3    0    0  0.74132939582E+02  0.76359666755E+03 -0.30625290523E+03  0.82605472299E+03  0.00000000000E+00 0. -1.
         22    1    1    2    0    0 -0.19213492070E+03 -0.13900134004E+04 -0.14238082369E+04  0.19990705281E+04  0.00000000000E+00 0. -1.
<mgrwt>
<rscale>  0 0.29076098E+04</rscale>
<asrwt>0</asrwt>
<pdfrwt beam="1">  1        2 0.11952553E+00 0.29076098E+04</pdfrwt>
<pdfrwt beam="2">  1       -2 0.41852834E+00 0.29076098E+04</pdfrwt>
<totfact> 0.17303473E-01</totfact>
</mgrwt>
</event>
<event>
 6    1  0.1588846E-005  0.3495236E+04  0.7818608E-02  0.8114920E-01
         -2   -1    0    0    0  501 -0.00000000000E+00  0.00000000000E+00  0.10298331353E+04  0.10298331353E+04  0.00000000000E+00 0.  1.
          2   -1    0    0  501    0  0.00000000000E+00 -0.00000000000E+00 -0.29656930282E+04  0.29656930282E+04  0.00000000000E+00 0. -1.
         23    2    1    2    0    0  0.98564392461E+03  0.14407447946E+04 -0.90962028957E+03  0.19705799339E+04  0.92394240252E+02 0.  0.
         13    1    3    3    0    0  0.75038662919E+03  0.11226001710E+04 -0.74331237357E+03  0.15413709878E+04  0.00000000000E+00 0. -1.
        -13    1    3    3    0    0  0.23525729542E+03  0.31814462359E+03 -0.16630791599E+03  0.42920894619E+03  0.00000000000E+00 0.  1.
         22    1    1    2    0    0 -0.98564392461E+03 -0.14407447946E+04 -0.10262396033E+04  0.20249462296E+04  0.00000000000E+00 0. -1.
<mgrwt>
<rscale>  0 0.34952362E+04</rscale>
<asrwt>0</asrwt>
<pdfrwt beam="1">  1        2 0.45626046E+00 0.34952362E+04</pdfrwt>
<pdfrwt beam="2">  1       -2 0.15843587E+00 0.34952362E+04</pdfrwt>
<totfact> 0.38878957E-01</totfact>
</mgrwt>
</event>
<event>
 6    1  0.1588846E-005  0.4410361E+04  0.7818608E-02  0.7926521E-01
         -2   -1    0    0    0  501 -0.00000000000E+00  0.00000000000E+00  0.19500510796E+04  0.19500510796E+04  0.00000000000E+00 0.  1.
          2   -1    0    0  501    0  0.00000000000E+00 -0.00000000000E+00 -0.24936890998E+04  0.24936890998E+04  0.00000000000E+00 0. -1.
         23    2    1    2    0    0 -0.50140804231E+03  0.15953968758E+04  0.11748900174E+04  0.20458161122E+04  0.91081259006E+02 0.  0.
         13    1    3    3    0    0 -0.31858114390E+03  0.86252477990E+03  0.64439140546E+03  0.11228015072E+04  0.00000000000E+00 0. -1.
        -13    1    3    3    0    0 -0.18282689841E+03  0.73287209589E+03  0.53049861190E+03  0.92301460494E+03  0.00000000000E+00 0.  1.
         22    1    1    2    0    0  0.50140804231E+03 -0.15953968758E+04 -0.17185280376E+04  0.23979240672E+04  0.00000000000E+00 0. -1.
<mgrwt>
<rscale>  0 0.44103610E+04</rscale>
<asrwt>0</asrwt>
<pdfrwt beam="1">  1        2 0.38364447E+00 0.44103610E+04</pdfrwt>
<pdfrwt beam="2">  1       -2 0.30000786E+00 0.44103610E+04</pdfrwt>
<totfact> 0.85149318E-02</totfact>
</mgrwt>
</event>
<event>
 6    1  0.1588846E-005  0.2191237E+04  0.7818608E-02  0.8522084E-01
          2   -1    0    0  501    0  0.00000000000E+00  0.00000000000E+00  0.55375202728E+03  0.55375202728E+03  0.00000000000E+00 0.  1.
         -2   -1    0    0    0  501 -0.00000000000E+00 -0.00000000000E+00 -0.21677205603E+04  0.21677205603E+04  0.00000000000E+00 0. -1.
         23    2    1    2    0    0 -0.37842218357E+03  0.51829989789E+03  0.29167430436E+03  0.71067355315E+03  0.90248912222E+02 0.  0.
         11    1    3    3    0    0 -0.25186247094E+03  0.38633277357E+03  0.17233341958E+03  0.49232765889E+03  0.00000000000E+00 0. -1.
        -11    1    3    3    0    0 -0.12655971262E+03  0.13196712432E+03  0.11934088478E+03  0.21834589426E+03  0.00000000000E+00 0.  1.
         22    1    1    2    0    0  0.37842218357E+03 -0.51829989789E+03 -0.19056428374E+04  0.20107990345E+04  0.00000000000E+00 0. -1.
<mgrwt>
<rscale>  0 0.21912368E+04</rscale>
<asrwt>0</asrwt>
<pdfrwt beam="1">  1        2 0.85192621E-01 0.21912368E+04</pdfrwt>
<pdfrwt beam="2">  1       -2 0.33349546E+00 0.21912368E+04</pdfrwt>
<totfact> 0.98741286E-01</totfact>
</mgrwt>
</event>
<event>
 6    1  0.1588846E-005  0.2478790E+04  0.7818608E-02  0.8410581E-01
         -2   -1    0    0    0  501 -0.00000000000E+00  0.00000000000E+00  0.12656171720E+04  0.12656171720E+04  0.00000000000E+00 0. -1.
          2   -1    0    0  501    0  0.00000000000E+00 -0.00000000000E+00 -0.12137158185E+04  0.12137158185E+04  0.00000000000E+00 0.  1.
         23    2    1    2    0    0  0.11112974241E+04 -0.48219849829E+03  0.27977117644E+03  0.12466846170E+04  0.91941647574E+02 0.  0.
         11    1    3    3    0    0  0.53608681795E+03 -0.18422207454E+03  0.14241701186E+03  0.58447365586E+03  0.00000000000E+00 0. -1.
        -11    1    3    3    0    0  0.57521060612E+03 -0.29797642375E+03  0.13735416458E+03  0.66221096113E+03  0.00000000000E+00 0.  1.
         22    1    1    2    0    0 -0.11112974241E+04  0.48219849829E+03 -0.22786982286E+03  0.12326483735E+04  0.00000000000E+00 0. -1.
<mgrwt>
<rscale>  0 0.24787897E+04</rscale>
<asrwt>0</asrwt>
<pdfrwt beam="1">  1        2 0.18672551E+00 0.24787897E+04</pdfrwt>
<pdfrwt beam="2">  1       -2 0.19471033E+00 0.24787897E+04</pdfrwt>
<totfact> 0.23938474E+00</totfact>
</mgrwt>
</event>
<event>
 6    1  0.1588846E-005  0.2942961E+04  0.7818608E-02  0.8260209E-01
          1   -1    0    0  501    0  0.00000000000E+00  0.00000000000E+00  0.78511642853E+03  0.78511642853E+03  0.00000000000E+00 0. -1.
         -1   -1    0    0    0  501 -0.00000000000E+00 -0.00000000000E+00 -0.27578769133E+04  0.27578769133E+04  0.00000000000E+00 0.  1.
         23    2    1    2    0    0 -0.44445027828E+03  0.74910442556E+03  0.43819438465E+03  0.97951974675E+03  0.93547449320E+02 0.  0.
         11    1    3    3    0    0 -0.26332776804E+03  0.52686708879E+03  0.28196910941E+03  0.65302145549E+03  0.00000000000E+00 0.  1.
        -11    1    3    3    0    0 -0.18112251024E+03  0.22223733678E+03  0.15622527524E+03  0.32649829126E+03  0.00000000000E+00 0. -1.
         22    1    1    2    0    0  0.44445027828E+03 -0.74910442556E+03 -0.24109548694E+04  0.25634735951E+04  0.00000000000E+00 0.  1.
<mgrwt>
<rscale>  0 0.29429607E+04</rscale>
<asrwt>0</asrwt>
<pdfrwt beam="1">  1        1 0.12078714E+00 0.29429607E+04</pdfrwt>
<pdfrwt beam="2">  1       -1 0.42428876E+00 0.29429607E+04</pdfrwt>
<totfact> 0.94823534E-02</totfact>
</mgrwt>
</event>
<event>
 6    1  0.1588846E-005  0.1955548E+04  0.7818608E-02  0.8627690E-01
          1   -1    0    0  501    0  0.00000000000E+00  0.00000000000E+00  0.32598253373E+04  0.32598253373E+04  0.00000000000E+00 0. -1.
         -1   -1    0    0    0  501 -0.00000000000E+00 -0.00000000000E+00 -0.29328003728E+03  0.29328003728E+03  0.00000000000E+00 0.  1.
         23    2    1    2    0    0  0.40041941027E+03 -0.86871622869E+03  0.18355200064E+04  0.20718147869E+04  0.90990260487E+02 0.  0.
         13    1    3    3    0    0  0.29729080448E+03 -0.70737361100E+03  0.15211310849E+04  0.17037015658E+04  0.00000000000E+00 0. -1.
        -13    1    3    3    0    0  0.10312860580E+03 -0.16134261769E+03  0.31438892151E+03  0.36811322115E+03  0.00000000000E+00 0.  1.
         22    1    1    2    0    0 -0.40041941027E+03  0.86871622869E+03  0.11310252936E+04  0.14812905876E+04  0.00000000000E+00 0.  1.
<mgrwt>
<rscale>  0 0.19555477E+04</rscale>
<asrwt>0</asrwt>
<pdfrwt beam="1">  1        1 0.50151157E+00 0.19555477E+04</pdfrwt>
<pdfrwt beam="2">  1       -1 0.45120008E-01 0.19555477E+04</pdfrwt>
<totfact> 0.17444908E+00</totfact>
</mgrwt>
</event>
<event>
 6    1  0.1588846E-005  0.1057059E+04  0.7818608E-02  0.9248086E-01
          1   -1    0    0  501    0  0.00000000000E+00  0.00000000000E+00  0.14122567189E+04  0.14122567189E+04  0.00000000000E+00 0. -1.
         -1   -1    0    0    0  501 -0.00000000000E+00 -0.00000000000E+00 -0.19779931544E+03  0.19779931544E+03  0.00000000000E+00 0.  1.
         23    2    1    2    0    0  0.46241837010E+03  0.24467515464E+03  0.67554398637E+03  0.85897391404E+03  0.88203328593E+02 0.  0.
         11    1    3    3    0    0  0.28453023276E+03  0.11287056504E+03  0.43675975561E+03  0.53334444960E+03  0.00000000000E+00 0.  1.
        -11    1    3    3    0    0  0.17788813734E+03  0.13180458960E+03  0.23878423077E+03  0.32562946444E+03  0.00000000000E+00 0. -1.
         22    1    1    2    0    0 -0.46241837010E+03 -0.24467515464E+03  0.53891341705E+03  0.75108212026E+03  0.00000000000E+00 0.  1.
<mgrwt>
<rscale>  0 0.10570590E+04</rscale>
<asrwt>0</asrwt>
<pdfrwt beam="1">  1        1 0.21727026E+00 0.10570590E+04</pdfrwt>
<pdfrwt beam="2">  1       -1 0.30430665E-01 0.10570590E+04</pdfrwt>
<totfact> 0.74852548E+01</totfact>
</mgrwt>
</event>
<event>
 6    1  0.1588846E-005  0.1504570E+04  0.7818608E-02  0.8881420E-01
         -1   -1    0    0    0  501 -0.00000000000E+00  0.00000000000E+00  0.24574218188E+03  0.24574218188E+03  0.00000000000E+00 0.  1.
          1   -1    0    0  501    0  0.00000000000E+00 -0.00000000000E+00 -0.23029531055E+04  0.23029531055E+04  0.00000000000E+00 0. -1.
         23    2    1    2    0    0 -0.58130107017E+03 -0.31734956931E+03 -0.43827672964E+03  0.79953274269E+03  0.92436094529E+02 0.  0.
         11    1    3    3    0    0 -0.52988238115E+03 -0.30417314107E+03 -0.37476439888E+03  0.71676006605E+03  0.00000000000E+00 0.  1.
        -11    1    3    3    0    0 -0.51418689015E+02 -0.13176428237E+02 -0.63512330755E+02  0.82772676646E+02  0.00000000000E+00 0. -1.
         22    1    1    2    0    0  0.58130107017E+03  0.31734956931E+03 -0.16189341939E+04  0.17491625446E+04  0.00000000000E+00 0. -1.
<mgrwt>
<rscale>  0 0.15045700E+04</rscale>
<asrwt>0</asrwt>
<pdfrwt beam="1">  1        1 0.35430046E+00 0.15045700E+04</pdfrwt>
<pdfrwt beam="2">  1       -1 0.37806492E-01 0.15045700E+04</pdfrwt>
<totfact> 0.12113467E+01</totfact>
</mgrwt>
</event>
<event>
 6    1  0.1588846E-005  0.2385123E+04  0.7818608E-02  0.8445094E-01
          2   -1    0    0  501    0  0.00000000000E+00  0.00000000000E+00  0.24330296856E+04  0.24330296856E+04  0.00000000000E+00 0. -1.
         -2   -1    0    0    0  501 -0.00000000000E+00 -0.00000000000E+00 -0.58453975347E+03  0.58453975347E+03  0.00000000000E+00 0.  1.
         23    2    1    2    0    0  0.83003630993E+03  0.84845443093E+02 -0.14921522308E+03  0.85262488731E+03  0.92439118638E+02 0.  0.
         11    1    3    3    0    0  0.12947044431E+03 -0.19479404718E+02 -0.30828948709E+02  0.13450824227E+03  0.00000000000E+00 0. -1.
        -11    1    3    3    0    0  0.70056586561E+03  0.10432484781E+03 -0.11838627437E+03  0.71811664505E+03  0.00000000000E+00 0.  1.
         22    1    1    2    0    0 -0.83003630993E+03 -0.84845443093E+02  0.19977051552E+04  0.21649445517E+04  0.00000000000E+00 0. -1.
<mgrwt>
<rscale>  0 0.23851227E+04</rscale>
<asrwt>0</asrwt>
<pdfrwt beam="1">  1        2 0.37431225E+00 0.23851227E+04</pdfrwt>
<pdfrwt beam="2">  1       -2 0.89929194E-01 0.23851227E+04</pdfrwt>
<totfact> 0.36269921E+00</totfact>
</mgrwt>
</event>
<event>
 6    1  0.1588846E-005  0.2922899E+04  0.7818608E-02  0.8266097E-01
         -2   -1    0    0    0  501 -0.00000000000E+00  0.00000000000E+00  0.90504847247E+03  0.90504847247E+03  0.00000000000E+00 0.  1.
          2   -1    0    0  501    0  0.00000000000E+00 -0.00000000000E+00 -0.23599111545E+04  0.23599111545E+04  0.00000000000E+00 0. -1.
         23    2    1    2    0    0  0.52713831511E+03  0.13490603817E+04 -0.93344171860E+03  0.17255706125E+04  0.91879158673E+02 0.  0.
         13    1    3    3    0    0  0.86496867112E+02  0.23662455264E+03 -0.12260882730E+03  0.28018888533E+03  0.00000000000E+00 0.  1.
        -13    1    3    3    0    0  0.44064144800E+03  0.11124358291E+04 -0.81083289130E+03  0.14453817271E+04  0.00000000000E+00 0. -1.
         22    1    1    2    0    0 -0.52713831511E+03 -0.13490603817E+04 -0.52142096341E+03  0.15393890145E+04  0.00000000000E+00 0.  1.
<mgrwt>
<rscale>  0 0.29228986E+04</rscale>
<asrwt>0</asrwt>
<pdfrwt beam="1">  1        2 0.36306325E+00 0.29228986E+04</pdfrwt>
<pdfrwt beam="2">  1       -2 0.13923823E+00 0.29228986E+04</pdfrwt>
<totfact> 0.13150818E+00</totfact>
</mgrwt>
</event>
<event>
 6    1  0.1588846E-005  0.4326574E+04  0.7818608E-02  0.7941722E-01
         -2   -1    0    0    0  501 -0.00000000000E+00  0.00000000000E+00  0.19907659174E+04  0.19907659174E+04  0.00000000000E+00 0.  1.
          2   -1    0    0  501    0  0.00000000000E+00 -0.00000000000E+00 -0.23507592879E+04  0.23507592879E+04  0.00000000000E+00 0. -1.
         23    2    1    2    0    0 -0.39053909446E+03 -0.12256099695E+04  0.15640640728E+04  0.20270841007E+04  0.90182845658E+02 0.  0.
         11    1    3    3    0    0 -0.11780247192E+03 -0.44052793416E+03  0.49617683211E+03  0.67389445160E+03  0.00000000000E+00 0.  1.
        -11    1    3    3    0    0 -0.27273662254E+03 -0.78508203533E+03  0.10678872407E+04  0.13531896491E+04  0.00000000000E+00 0. -1.
         22    1    1    2    0    0  0.39053909446E+03  0.12256099695E+04 -0.19240574433E+04  0.23144411046E+04  0.00000000000E+00 0. -1.
<mgrwt>
<rscale>  0 0.43265744E+04</rscale>
<asrwt>0</asrwt>
<pdfrwt beam="1">  1        2 0.36165527E+00 0.43265744E+04</pdfrwt>
<pdfrwt beam="2">  1       -2 0.30627168E+00 0.43265744E+04</pdfrwt>
<totfact> 0.94817801E-02</totfact>
</mgrwt>
</event>
<event>
 6    1  0.1588846E-005  0.1850232E+04  0.7818608E-02  0.8680034E-01
          2   -1    0    0  501    0  0.00000000000E+00  0.00000000000E+00  0.18091737076E+04  0.18091737076E+04  0.00000000000E+00 0. -1.
         -2   -1    0    0    0  501 -0.00000000000E+00 -0.00000000000E+00 -0.47305533909E+03  0.47305533909E+03  0.00000000000E+00 0.  1.
         23    2    1    2    0    0 -0.69108652212E+03  0.61010666772E+03  0.72362204610E+03  0.11754397840E+04  0.90548844092E+02 0.  0.
         13    1    3    3    0    0 -0.15252569735E+03  0.96573062840E+02  0.16959211925E+03  0.24769322100E+03  0.00000000000E+00 0. -1.
        -13    1    3    3    0    0 -0.53856082476E+03  0.51353360488E+03  0.55402992685E+03  0.92774656300E+03  0.00000000000E+00 0.  1.
         22    1    1    2    0    0  0.69108652212E+03 -0.61010666772E+03  0.61249632242E+03  0.11067892627E+04  0.00000000000E+00 0.  1.
<mgrwt>
<rscale>  0 0.18502316E+04</rscale>
<asrwt>0</asrwt>
<pdfrwt beam="1">  1        2 0.27833441E+00 0.18502316E+04</pdfrwt>
<pdfrwt beam="2">  1       -2 0.72777745E-01 0.18502316E+04</pdfrwt>
<totfact> 0.13684305E+01</totfact>
</mgrwt>
</event>
<event>
 6    1  0.1588846E-005  0.3495482E+04  0.7818608E-02  0.8114862E-01
          2   -1    0    0  501    0  0.00000000000E+00  0.00000000000E+00  0.17103487425E+04  0.17103487425E+04  0.00000000000E+00 0. -1.
         -2   -1    0    0    0  501 -0.00000000000E+00 -0.00000000000E+00 -0.17859504462E+04  0.17859504462E+04  0.00000000000E+00 0.  1.
         23    2    1    2    0    0 -0.13053413952E+04 -0.11482464887E+04  0.12986318015E+03  0.17456987274E+04  0.90628054900E+02 0.  0.
         11    1    3    3    0    0 -0.42488912918E+03 -0.34399351434E+03  0.76620923027E+02  0.55202633619E+03  0.00000000000E+00 0. -1.
        -11    1    3    3    0    0 -0.88045226597E+03 -0.80425297441E+03  0.53242257120E+02  0.11936723912E+04  0.00000000000E+00 0.  1.
         22    1    1    2    0    0  0.13053413952E+04  0.11482464887E+04 -0.20546488388E+03  0.17506004614E+04  0.00000000000E+00 0. -1.
<mgrwt>
<rscale>  0 0.34954817E+04</rscale>
<asrwt>0</asrwt>
<pdfrwt beam="1">  1        2 0.26313058E+00 0.34954817E+04</pdfrwt>
<pdfrwt beam="2">  1       -2 0.27476161E+00 0.34954817E+04</pdfrwt>
<totfact> 0.36059913E-01</totfact>
</mgrwt>
</event>
<event>
 6    1  0.1588846E-005  0.2231263E+04  0.7818608E-02  0.8505527E-01
         -1   -1    0    0    0  501 -0.00000000000E+00  0.00000000000E+00  0.72990878277E+03  0.72990878277E+03  0.00000000000E+00 0.  1.
          1   -1    0    0  501    0  0.00000000000E+00 -0.00000000000E+00 -0.17051906239E+04  0.17051906239E+04  0.00000000000E+00 0. -1.
         23    2    1    2    0    0  0.10355810442E+04 -0.12749143672E+03 -0.63434237139E+02  0.10494052779E+04  0.92441166503E+02 0.  0.
         13    1    3    3    0    0  0.51311663527E+03 -0.65176645475E+02  0.14812742971E+02  0.51745153769E+03  0.00000000000E+00 0.  1.
        -13    1    3    3    0    0  0.52246440896E+03 -0.62314791250E+02 -0.78246980110E+02  0.53195374022E+03  0.00000000000E+00 0. -1.
         22    1    1    2    0    0 -0.10355810442E+04  0.12749143672E+03 -0.91184760402E+03  0.13856941288E+04  0.00000000000E+00 0. -1.
<mgrwt>
<rscale>  0 0.22312630E+04</rscale>
<asrwt>0</asrwt>
<pdfrwt beam="1">  1        1 0.26233702E+00 0.22312630E+04</pdfrwt>
<pdfrwt beam="2">  1       -1 0.11229366E+00 0.22312630E+04</pdfrwt>
<totfact> 0.31230959E+00</totfact>
</mgrwt>
</event>
<event>
 6    1  0.1588846E-005  0.1052614E+04  0.7818608E-02  0.9252649E-01
         -2   -1    0    0    0  501 -0.00000000000E+00  0.00000000000E+00  0.52741417961E+03  0.52741417961E+03  0.00000000000E+00 0.  1.
          2   -1    0    0  501    0  0.00000000000E+00 -0.00000000000E+00 -0.52520214275E+03  0.52520214275E+03  0.00000000000E+00 0. -1.
         23    2    1    2    0    0 -0.49730915419E+03  0.57875764543E+02 -0.14811344436E+03  0.52986996966E+03  0.90324932278E+02 0.  0.
         13    1    3    3    0    0 -0.38361755679E+03  0.80278563971E+02 -0.10062326696E+03  0.40463825767E+03  0.00000000000E+00 0. -1.
        -13    1    3    3    0    0 -0.11369159739E+03 -0.22402799429E+02 -0.47490177401E+02  0.12523171200E+03  0.00000000000E+00 0.  1.
         22    1    1    2    0    0  0.49730915419E+03 -0.57875764543E+02  0.15032548123E+03  0.52274635270E+03  0.00000000000E+00 0.  1.
<mgrwt>
<rscale>  0 0.10526140E+04</rscale>
<asrwt>0</asrwt>
<pdfrwt beam="1">  1        2 0.80800329E-01 0.10526140E+04</pdfrwt>
<pdfrwt beam="2">  1       -2 0.81140643E-01 0.10526140E+04</pdfrwt>
<totfact> 0.77543146E+01</totfact>
</mgrwt>
</event>
<event>
 6    1  0.1588846E-005  0.2759977E+04  0.7818608E-02  0.8315803E-01
          1   -1    0    0  501    0  0.00000000000E+00  0.00000000000E+00  0.23275602105E+04  0.23275602105E+04  0.00000000000E+00 0. -1.
         -1   -1    0    0    0  501 -0.00000000000E+00 -0.00000000000E+00 -0.81818242567E+03  0.81818242567E+03  0.00000000000E+00 0.  1.
         23    2    1    2    0    0  0.13395895945E+04 -0.10519283797E+03  0.11061144028E+04  0.17428216940E+04  0.91501750487E+02 0.  0.
         11    1    3    3    0    0  0.37433846310E+03 -0.64461306091E+02  0.28432404555E+03  0.47447308439E+03  0.00000000000E+00 0.  1.
        -11    1    3    3    0    0  0.96525113136E+03 -0.40731531879E+02  0.82179035723E+03  0.12683486096E+04  0.00000000000E+00 0. -1.
         22    1    1    2    0    0 -0.13395895945E+04  0.10519283797E+03  0.40326338209E+03  0.14029209422E+04  0.00000000000E+00 0.  1.
<mgrwt>
<rscale>  0 0.27599774E+04</rscale>
<asrwt>0</asrwt>
<pdfrwt beam="1">  1        1 0.35808618E+00 0.27599774E+04</pdfrwt>
<pdfrwt beam="2">  1       -1 0.12587422E+00 0.27599774E+04</pdfrwt>
<totfact> 0.85102942E-01</totfact>
</mgrwt>
</event>
<event>
 6    1  0.1588846E-005  0.1132673E+04  0.7818608E-02  0.9173919E-01
          2   -1    0    0  501    0  0.00000000000E+00  0.00000000000E+00  0.53329448188E+03  0.53329448188E+03  0.00000000000E+00 0. -1.
         -2   -1    0    0    0  501 -0.00000000000E+00 -0.00000000000E+00 -0.60142561557E+03  0.60142561557E+03  0.00000000000E+00 0.  1.
         23    2    1    2    0    0  0.32093095648E+03 -0.25607819375E+03 -0.41964291802E+03  0.59422656865E+03  0.91827643489E+02 0.  0.
         13    1    3    3    0    0  0.20060587033E+03 -0.20651674734E+03 -0.25698197962E+03  0.38591659720E+03  0.00000000000E+00 0. -1.
        -13    1    3    3    0    0  0.12032508615E+03 -0.49561446409E+02 -0.16266093840E+03  0.20830997145E+03  0.00000000000E+00 0.  1.
         22    1    1    2    0    0 -0.32093095648E+03  0.25607819375E+03  0.35151178433E+03  0.54049352879E+03  0.00000000000E+00 0. -1.
<mgrwt>
<rscale>  0 0.11326729E+04</rscale>
<asrwt>0</asrwt>
<pdfrwt beam="1">  1        2 0.82045305E-01 0.11326729E+04</pdfrwt>
<pdfrwt beam="2">  1       -2 0.92527017E-01 0.11326729E+04</pdfrwt>
<totfact> 0.56101573E+01</totfact>
</mgrwt>
</event>
<event>
 6    1  0.1588846E-005  0.4036059E+04  0.7818608E-02  0.7997312E-01
         -1   -1    0    0    0  501 -0.00000000000E+00  0.00000000000E+00  0.11109611247E+04  0.11109611247E+04  0.00000000000E+00 0.  1.
          1   -1    0    0  501    0  0.00000000000E+00 -0.00000000000E+00 -0.36656931531E+04  0.36656931531E+04  0.00000000000E+00 0. -1.
         23    2    1    2    0    0  0.14054461315E+04 -0.11843366343E+04 -0.22613799790E+04  0.29154752115E+04  0.90687416382E+02 0.  0.
         11    1    3    3    0    0  0.16337665490E+03 -0.17678217245E+03 -0.30571491877E+03  0.38910857022E+03  0.00000000000E+00 0. -1.
        -11    1    3    3    0    0  0.12420694766E+04 -0.10075544618E+04 -0.19556650603E+04  0.25263666413E+04  0.00000000000E+00 0.  1.
         22    1    1    2    0    0 -0.14054461315E+04  0.11843366343E+04 -0.29335204931E+03  0.18611790663E+04  0.00000000000E+00 0.  1.
<mgrwt>
<rscale>  0 0.40360588E+04</rscale>
<asrwt>0</asrwt>
<pdfrwt beam="1">  1        1 0.56395279E+00 0.40360588E+04</pdfrwt>
<pdfrwt beam="2">  1       -1 0.17091710E+00 0.40360588E+04</pdfrwt>
<totfact> 0.34723404E-02</totfact>
</mgrwt>
</event>
<event>
 6    1  0.1588846E-005  0.2622336E+04  0.7818608E-02  0.8360653E-01
         -2   -1    0    0    0  501 -0.00000000000E+00  0.00000000000E+00  0.76325196280E+03  0.76325196280E+03  0.00000000000E+00 0.  1.
          2   -1    0    0  501    0  0.00000000000E+00 -0.00000000000E+00 -0.22524175262E+04  0.22524175262E+04  0.00000000000E+00 0. -1.
         23    2    1    2    0    0  0.76306010400E+03  0.44003169559E+03  0.36860233012E+03  0.95965631744E+03  0.95832950385E+02 0.  0.
         13    1    3    3    0    0  0.10460639594E+03  0.10089214126E+03  0.56691527723E+02  0.15599888318E+03  0.00000000000E+00 0.  1.
        -13    1    3    3    0    0  0.65845370807E+03  0.33913955433E+03  0.31191080240E+03  0.80365743425E+03  0.00000000000E+00 0. -1.
         22    1    1    2    0    0 -0.76306010400E+03 -0.44003169559E+03 -0.18577678936E+04  0.20560131716E+04  0.00000000000E+00 0. -1.
<mgrwt>
<rscale>  0 0.26223364E+04</rscale>
<asrwt>0</asrwt>
<pdfrwt beam="1">  1        2 0.34652577E+00 0.26223364E+04</pdfrwt>
<pdfrwt beam="2">  1       -2 0.11742338E+00 0.26223364E+04</pdfrwt>
<totfact> 0.23861062E+00</totfact>
</mgrwt>
</event>
<event>
 6    1  0.1588846E-005  0.1221990E+04  0.7818608E-02  0.9093824E-01
         -1   -1    0    0    0  501 -0.00000000000E+00  0.00000000000E+00  0.39060350949E+03  0.39060350949E+03  0.00000000000E+00 0.  1.
          1   -1    0    0  501    0  0.00000000000E+00 -0.00000000000E+00 -0.95573793276E+03  0.95573793276E+03  0.00000000000E+00 0. -1.
         23    2    1    2    0    0  0.14811342587E+03 -0.53899006770E+03 -0.54643923254E+03  0.78705851728E+03  0.91746361007E+02 0.  0.
         13    1    3    3    0    0  0.36813458397E+02 -0.22065139749E+03 -0.16532849249E+03  0.27816502361E+03  0.00000000000E+00 0.  1.
        -13    1    3    3    0    0  0.11129996748E+03 -0.31833867021E+03 -0.38111074006E+03  0.50889349367E+03  0.00000000000E+00 0. -1.
         22    1    1    2    0    0 -0.14811342587E+03  0.53899006770E+03 -0.18695190724E+02  0.55928292497E+03  0.00000000000E+00 0.  1.
<mgrwt>
<rscale>  0 0.12219895E+04</rscale>
<asrwt>0</asrwt>
<pdfrwt beam="1">  1        1 0.14703661E+00 0.12219895E+04</pdfrwt>
<pdfrwt beam="2">  1       -1 0.60092847E-01 0.12219895E+04</pdfrwt>
<totfact> 0.45507303E+01</totfact>
</mgrwt>
</event>
<event>
 6    1  0.1588846E-005  0.2086366E+04  0.7818608E-02  0.8567273E-01
         -1   -1    0    0    0  501 -0.00000000000E+00  0.00000000000E+00  0.98064703722E+03  0.98064703722E+03  0.00000000000E+00 0.  1.
          1   -1    0    0  501    0  0.00000000000E+00 -0.00000000000E+00 -0.11097068172E+04  0.11097068172E+04  0.00000000000E+00 0. -1.
         23    2    1    2    0    0  0.70124201782E+03  0.32421866087E+02 -0.83530596114E+03  0.10945751575E+04  0.86989549511E+02 0.  0.
         13    1    3    3    0    0  0.64630560897E+03  0.51732520492E+02 -0.75177485089E+03  0.99275002911E+03  0.00000000000E+00 0.  1.
        -13    1    3    3    0    0  0.54936408857E+02 -0.19310654405E+02 -0.83531110252E+02  0.10182512839E+03  0.00000000000E+00 0. -1.
         22    1    1    2    0    0 -0.70124201782E+03 -0.32421866087E+02  0.70624618112E+03  0.99577869696E+03  0.00000000000E+00 0.  1.
<mgrwt>
<rscale>  0 0.20863659E+04</rscale>
<asrwt>0</asrwt>
<pdfrwt beam="1">  1        1 0.17072413E+00 0.20863659E+04</pdfrwt>
<pdfrwt beam="2">  1       -1 0.15086878E+00 0.20863659E+04</pdfrwt>
<totfact> 0.39434181E+00</totfact>
</mgrwt>
</event>
<event>
 6    1  0.1588846E-005  0.3130511E+04  0.7818608E-02  0.8207414E-01
         -1   -1    0    0    0  501 -0.00000000000E+00  0.00000000000E+00  0.22702937740E+04  0.22702937740E+04  0.00000000000E+00 0.  1.
          1   -1    0    0  501    0  0.00000000000E+00 -0.00000000000E+00 -0.10791666906E+04  0.10791666906E+04  0.00000000000E+00 0. -1.
         23    2    1    2    0    0  0.86083304804E+03 -0.12992622375E+04  0.45773180770E+03  0.16269667698E+04  0.91578183694E+02 0.  0.
         11    1    3    3    0    0  0.20025266755E+03 -0.36572942860E+03  0.10124644431E+03  0.42908039840E+03  0.00000000000E+00 0. -1.
        -11    1    3    3    0    0  0.66058038048E+03 -0.93353280891E+03  0.35648536338E+03  0.11978863714E+04  0.00000000000E+00 0.  1.
         22    1    1    2    0    0 -0.86083304804E+03  0.12992622375E+04  0.73339527572E+03  0.17224936949E+04  0.00000000000E+00 0.  1.
<mgrwt>
<rscale>  0 0.31305114E+04</rscale>
<asrwt>0</asrwt>
<pdfrwt beam="1">  1        1 0.16602565E+00 0.31305114E+04</pdfrwt>
<pdfrwt beam="2">  1       -1 0.34927596E+00 0.31305114E+04</pdfrwt>
<totfact> 0.17377699E-01</totfact>
</mgrwt>
</event>
<event>
 6    1  0.1588846E-005  0.1725619E+04  0.7818608E-02  0.8746886E-01
          1   -1    0    0  501    0  0.00000000000E+00  0.00000000000E+00  0.58995999556E+03  0.58995999556E+03  0.00000000000E+00 0. -1.
         -1   -1    0    0    0  501 -0.00000000000E+00 -0.00000000000E+00 -0.12618484251E+04  0.12618484251E+04  0.00000000000E+00 0.  1.
         23    2    1    2    0    0  0.73698097757E+03  0.44181513301E+03 -0.38883625915E+03  0.94712057158E+03  0.86615054199E+02 0.  0.
         11    1    3    3    0    0  0.60221603871E+03  0.38727419675E+03 -0.34816218384E+03  0.79615473810E+03  0.00000000000E+00 0. -1.
        -11    1    3    3    0    0  0.13476493886E+03  0.54540936266E+02 -0.40674075314E+02  0.15096583347E+03  0.00000000000E+00 0.  1.
         22    1    1    2    0    0 -0.73698097757E+03 -0.44181513301E+03 -0.28305217034E+03  0.90468784904E+03  0.00000000000E+00 0. -1.
<mgrwt>
<rscale>  0 0.17256188E+04</rscale>
<asrwt>0</asrwt>
<pdfrwt beam="1">  1        1 0.90763077E-01 0.17256188E+04</pdfrwt>
<pdfrwt beam="2">  1       -1 0.19413053E+00 0.17256188E+04</pdfrwt>
<totfact> 0.55078480E+00</totfact>
</mgrwt>
</event>
<event>
 6    1  0.1588846E-005  0.2807763E+04  0.7818608E-02  0.8300862E-01
         -2   -1    0    0    0  501 -0.00000000000E+00  0.00000000000E+00  0.79598391062E+03  0.79598391062E+03  0.00000000000E+00 0. -1.
          2   -1    0    0  501    0  0.00000000000E+00 -0.00000000000E+00 -0.24760337228E+04  0.24760337228E+04  0.00000000000E+00 0.  1.
         23    2    1    2    0    0  0.98889543950E+02 -0.10444624603E+04 -0.19253870951E+04  0.21945802313E+04  0.91574848042E+02 0.  0.
         13    1    3    3    0    0  0.88279441191E+00 -0.11077458982E+03 -0.26373159672E+03  0.28605269477E+03  0.00000000000E+00 0.  1.
        -13    1    3    3    0    0  0.98006749538E+02 -0.93368787048E+03 -0.16616554984E+04  0.19085275366E+04  0.00000000000E+00 0. -1.
         22    1    1    2    0    0 -0.98889543950E+02  0.10444624603E+04  0.24533728299E+03  0.10774374020E+04  0.00000000000E+00 0. -1.
<mgrwt>
<rscale>  0 0.28077628E+04</rscale>
<asrwt>0</asrwt>
<pdfrwt beam="1">  1        2 0.38092826E+00 0.28077628E+04</pdfrwt>
<pdfrwt beam="2">  1       -2 0.12245907E+00 0.28077628E+04</pdfrwt>
<totfact> 0.15774457E+00</totfact>
</mgrwt>
</event>
<event>
 6    1  0.1588846E-005  0.1858915E+04  0.7818608E-02  0.8675582E-01
          1   -1    0    0  501    0  0.00000000000E+00  0.00000000000E+00  0.23657091680E+04  0.23657091680E+04  0.00000000000E+00 0. -1.
         -1   -1    0    0    0  501 -0.00000000000E+00 -0.00000000000E+00 -0.36517222055E+03  0.36517222055E+03  0.00000000000E+00 0.  1.
         23    2    1    2    0    0 -0.24914119049E+03  0.63460062869E+03  0.19258171469E+04  0.20450444259E+04  0.92982416894E+02 0.  0.
         13    1    3    3    0    0 -0.20106609848E+03  0.58303064429E+03  0.16957457408E+04  0.18044129033E+04  0.00000000000E+00 0. -1.
        -13    1    3    3    0    0 -0.48075092002E+02  0.51569984398E+02  0.23007140614E+03  0.24063152263E+03  0.00000000000E+00 0.  1.
         22    1    1    2    0    0  0.24914119049E+03 -0.63460062869E+03  0.74719800526E+02  0.68583696263E+03  0.00000000000E+00 0.  1.
<mgrwt>
<rscale>  0 0.18589150E+04</rscale>
<asrwt>0</asrwt>
<pdfrwt beam="1">  1        1 0.36395525E+00 0.18589150E+04</pdfrwt>
<pdfrwt beam="2">  1       -1 0.56180343E-01 0.18589150E+04</pdfrwt>
<totfact> 0.50517380E+00</totfact>
</mgrwt>
</event>
<event>
 6    1  0.1588846E-005  0.1549584E+04  0.7818608E-02  0.8852134E-01
          2   -1    0    0  501    0  0.00000000000E+00  0.00000000000E+00  0.10067826928E+04  0.10067826928E+04  0.00000000000E+00 0. -1.
         -2   -1    0    0    0  501 -0.00000000000E+00 -0.00000000000E+00 -0.59625805129E+03  0.59625805129E+03  0.00000000000E+00 0.  1.
         23    2    1    2    0    0  0.20519214554E+03  0.52013735358E+03 -0.34489897048E+03  0.66319420516E+03  0.90689419130E+02 0.  0.
         13    1    3    3    0    0  0.17615171454E+03  0.33158407614E+03 -0.23716767719E+03  0.44410126457E+03  0.00000000000E+00 0. -1.
        -13    1    3    3    0    0  0.29040431005E+02  0.18855327743E+03 -0.10773129329E+03  0.21909294060E+03  0.00000000000E+00 0.  1.
         22    1    1    2    0    0 -0.20519214554E+03 -0.52013735358E+03  0.75542361196E+03  0.93984653890E+03  0.00000000000E+00 0. -1.
<mgrwt>
<rscale>  0 0.15495835E+04</rscale>
<asrwt>0</asrwt>
<pdfrwt beam="1">  1        2 0.15488965E+00 0.15495835E+04</pdfrwt>
<pdfrwt beam="2">  1       -2 0.91732008E-01 0.15495835E+04</pdfrwt>
<totfact> 0.24278613E+01</totfact>
</mgrwt>
</event>
<event>
 6    1  0.1588846E-005  0.1639806E+04  0.7818608E-02  0.8796460E-01
          2   -1    0    0  501    0  0.00000000000E+00  0.00000000000E+00  0.71943460673E+03  0.71943460673E+03  0.00000000000E+00 0.  1.
         -2   -1    0    0    0  501 -0.00000000000E+00 -0.00000000000E+00 -0.93440215744E+03  0.93440215744E+03  0.00000000000E+00 0. -1.
         23    2    1    2    0    0 -0.44667156729E+02  0.80953124712E+03 -0.33801856389E+01  0.81591957971E+03  0.91527809685E+02 0.  0.
         13    1    3    3    0    0  0.27411235777E+02  0.18610708149E+03 -0.87722640080E+01  0.18831934113E+03  0.00000000000E+00 0. -1.
        -13    1    3    3    0    0 -0.72078392506E+02  0.62342416563E+03  0.53920783691E+01  0.62760023858E+03  0.00000000000E+00 0.  1.
         22    1    1    2    0    0  0.44667156729E+02 -0.80953124712E+03 -0.21158736507E+03  0.83791718446E+03  0.00000000000E+00 0. -1.
<mgrwt>
<rscale>  0 0.16398064E+04</rscale>
<asrwt>0</asrwt>
<pdfrwt beam="1">  1        2 0.11068225E+00 0.16398064E+04</pdfrwt>
<pdfrwt beam="2">  1       -2 0.14375418E+00 0.16398064E+04</pdfrwt>
<totfact> 0.12673096E+01</totfact>
</mgrwt>
</event>
<event>
 6    1  0.1588846E-005  0.1426766E+04  0.7818608E-02  0.8934669E-01
         -1   -1    0    0    0  501 -0.00000000000E+00  0.00000000000E+00  0.10129359167E+04  0.10129359167E+04  0.00000000000E+00 0.  1.
          1   -1    0    0  501    0  0.00000000000E+00 -0.00000000000E+00 -0.50241592527E+03  0.50241592527E+03  0.00000000000E+00 0. -1.
         23    2    1    2    0    0 -0.29008589659E+03  0.60687870909E+03  0.49909055197E+03  0.84260952356E+03  0.91912105722E+02 0.  0.
         11    1    3    3    0    0 -0.49722099839E+02  0.49910057352E+02  0.34059673054E+02  0.78251916052E+02  0.00000000000E+00 0.  1.
        -11    1    3    3    0    0 -0.24036379675E+03  0.55696865174E+03  0.46503087892E+03  0.76435760751E+03  0.00000000000E+00 0. -1.
         22    1    1    2    0    0  0.29008589659E+03 -0.60687870909E+03  0.11429439501E+02  0.67274231845E+03  0.00000000000E+00 0.  1.
<mgrwt>
<rscale>  0 0.14267658E+04</rscale>
<asrwt>0</asrwt>
<pdfrwt beam="1">  1        1 0.77294758E-01 0.14267658E+04</pdfrwt>
<pdfrwt beam="2">  1       -1 0.15583629E+00 0.14267658E+04</pdfrwt>
<totfact> 0.13470408E+01</totfact>
</mgrwt>
</event>
<event>
 6    1  0.1588846E-005  0.1004714E+04  0.7818608E-02  0.9303390E-01
         -2   -1    0    0    0  501 -0.00000000000E+00  0.00000000000E+00  0.29173842486E+03  0.29173842486E+03  0.00000000000E+00 0. -1.
          2   -1    0    0  501    0  0.00000000000E+00 -0.00000000000E+00 -0.86502951488E+03  0.86502951488E+03  0.00000000000E+00 0.  1.
         23    2    1    2    0    0 -0.15332118279E+03 -0.37791527404E+03  0.39402358843E+02  0.42075122681E+03  0.95664567815E+02 0.  0.
         13    1    3    3    0    0 -0.43577332910E+02 -0.22252669786E+03  0.14004174988E+01  0.22675774821E+03  0.00000000000E+00 0. -1.
        -13    1    3    3    0    0 -0.10974384988E+03 -0.15538857618E+03  0.38001941344E+02  0.19399347860E+03  0.00000000000E+00 0.  1.
         22    1    1    2    0    0  0.15332118279E+03  0.37791527404E+03 -0.61269344886E+03  0.73601671293E+03  0.00000000000E+00 0.  1.
<mgrwt>
<rscale>  0 0.10047136E+04</rscale>
<asrwt>0</asrwt>
<pdfrwt beam="1">  1        2 0.13308146E+00 0.10047136E+04</pdfrwt>
<pdfrwt beam="2">  1       -2 0.44882836E-01 0.10047136E+04</pdfrwt>
<totfact> 0.14553253E+02</totfact>
</mgrwt>
</event>
<event>
 6    1  0.1588846E-005  0.3863197E+04  0.7818608E-02  0.8032727E-01
         -2   -1    0    0    0  501 -0.00000000000E+00  0.00000000000E+00  0.26289161228E+04  0.26289161228E+04  0.00000000000E+00 0.  1.
          2   -1    0    0  501    0  0.00000000000E+00 -0.00000000000E+00 -0.14192435819E+04  0.14192435819E+04  0.00000000000E+00 0. -1.
         23    2    1    2    0    0  0.13109035787E+04 -0.16872306144E+03  0.20796853570E+04  0.24658013495E+04  0.90274285705E+02 0.  0.
         13    1    3    3    0    0  0.53195553722E+03 -0.99112586861E+02  0.91115423298E+03  0.10597179034E+04  0.00000000000E+00 0. -1.
        -13    1    3    3    0    0  0.77894804144E+03 -0.69610474577E+02  0.11685311241E+04  0.14060834461E+04  0.00000000000E+00 0.  1.
         22    1    1    2    0    0 -0.13109035787E+04  0.16872306144E+03 -0.87001281618E+03  0.15823583552E+04  0.00000000000E+00 0. -1.
<mgrwt>
<rscale>  0 0.38631968E+04</rscale>
<asrwt>0</asrwt>
<pdfrwt beam="1">  1        2 0.21834517E+00 0.38631968E+04</pdfrwt>
<pdfrwt beam="2">  1       -2 0.40444863E+00 0.38631968E+04</pdfrwt>
<totfact> 0.78060729E-02</totfact>
</mgrwt>
</event>
<event>
 6    1  0.1588846E-005  0.2763554E+04  0.7818608E-02  0.8314674E-01
         -1   -1    0    0    0  501 -0.00000000000E+00  0.00000000000E+00  0.12133292747E+04  0.12133292747E+04  0.00000000000E+00 0.  1.
          1   -1    0    0  501    0  0.00000000000E+00 -0.00000000000E+00 -0.15736104952E+04  0.15736104952E+04  0.00000000000E+00 0. -1.
         23    2    1    2    0    0 -0.83284303068E+02 -0.44328845415E+03  0.11351891270E+04  0.12249306505E+04  0.91432027253E+02 0.  0.
         11    1    3    3    0    0 -0.35741838433E+02 -0.19224976349E+03  0.37448458638E+03  0.42246438431E+03  0.00000000000E+00 0.  1.
        -11    1    3    3    0    0 -0.47542464634E+02 -0.25103869067E+03  0.76070454065E+03  0.80246626616E+03  0.00000000000E+00 0. -1.
         22    1    1    2    0    0  0.83284303068E+02  0.44328845415E+03 -0.14954703475E+04  0.15620091194E+04  0.00000000000E+00 0. -1.
<mgrwt>
<rscale>  0 0.27635540E+04</rscale>
<asrwt>0</asrwt>
<pdfrwt beam="1">  1        1 0.24209392E+00 0.27635540E+04</pdfrwt>
<pdfrwt beam="2">  1       -1 0.18666604E+00 0.27635540E+04</pdfrwt>
<totfact> 0.94254352E-01</totfact>
</mgrwt>
</event>
<event>
 6    1  0.1588846E-005  0.1429065E+04  0.7818608E-02  0.8933044E-01
          1   -1    0    0  501    0  0.00000000000E+00  0.00000000000E+00  0.80506196184E+03  0.80506196184E+03  0.00000000000E+00 0. -1.
         -1   -1    0    0    0  501 -0.00000000000E+00 -0.00000000000E+00 -0.63418324956E+03  0.63418324956E+03  0.00000000000E+00 0.  1.
         23    2    1    2    0    0  0.64769961174E+03  0.17551932788E+03 -0.15268309330E+03  0.69425255134E+03  0.91392869318E+02 0.  0.
         13    1    3    3    0    0  0.16128759712E+03  0.52928618137E+01 -0.24633697829E+02  0.16324375160E+03  0.00000000000E+00 0.  1.
        -13    1    3    3    0    0  0.48641201462E+03  0.17022646607E+03 -0.12804939547E+03  0.53100879974E+03  0.00000000000E+00 0. -1.
         22    1    1    2    0    0 -0.64769961174E+03 -0.17551932788E+03  0.32356180559E+03  0.74499266006E+03  0.00000000000E+00 0. -1.
<mgrwt>
<rscale>  0 0.14290652E+04</rscale>
<asrwt>0</asrwt>
<pdfrwt beam="1">  1        1 0.12385569E+00 0.14290652E+04</pdfrwt>
<pdfrwt beam="2">  1       -1 0.97566653E-01 0.14290652E+04</pdfrwt>
<totfact> 0.21474026E+01</totfact>
</mgrwt>
</event>
<event>
 6    1  0.1588846E-005  0.3993096E+04  0.7818608E-02  0.8005941E-01
         -2   -1    0    0    0  501 -0.00000000000E+00  0.00000000000E+00  0.12552433614E+04  0.12552433614E+04  0.00000000000E+00 0.  1.
          2   -1    0    0  501    0  0.00000000000E+00 -0.00000000000E+00 -0.31756428250E+04  0.31756428250E+04  0.00000000000E+00 0. -1.
         23    2    1    2    0    0  0.13654293009E+04 -0.14546713422E+04 -0.99063740818E+03  0.22297675233E+04  0.10017406791E+03 0.  0.
         13    1    3    3    0    0  0.81415941710E+03 -0.92338755662E+03 -0.64420699838E+03  0.13894253463E+04  0.00000000000E+00 0.  1.
        -13    1    3    3    0    0  0.55126988381E+03 -0.53128378557E+03 -0.34643040981E+03  0.84034217700E+03  0.00000000000E+00 0. -1.
         22    1    1    2    0    0 -0.13654293009E+04  0.14546713422E+04 -0.92976205538E+03  0.22011186631E+04  0.00000000000E+00 0.  1.
<mgrwt>
<rscale>  0 0.39930963E+04</rscale>
<asrwt>0</asrwt>
<pdfrwt beam="1">  1        2 0.48856043E+00 0.39930963E+04</pdfrwt>
<pdfrwt beam="2">  1       -2 0.19311437E+00 0.39930963E+04</pdfrwt>
<totfact> 0.15669067E-01</totfact>
</mgrwt>
</event>
<event>
 6    1  0.1588846E-005  0.6083764E+04  0.7818608E-02  0.7680102E-01
          1   -1    0    0  501    0  0.00000000000E+00  0.00000000000E+00  0.21390339600E+04  0.21390339600E+04  0.00000000000E+00 0. -1.
         -1   -1    0    0    0  501 -0.00000000000E+00 -0.00000000000E+00 -0.43258067338E+04  0.43258067338E+04  0.00000000000E+00 0.  1.
         23    2    1    2    0    0 -0.11273710546E+04 -0.22358556546E+04 -0.29276419154E+04  0.38535377455E+04  0.93005206798E+02 0.  0.
         13    1    3    3    0    0 -0.51332854271E+03 -0.11094711069E+04 -0.13952869379E+04  0.18550627938E+04  0.00000000000E+00 0. -1.
        -13    1    3    3    0    0 -0.61404251191E+03 -0.11263845477E+04 -0.15323549775E+04  0.19984749517E+04  0.00000000000E+00 0.  1.
         22    1    1    2    0    0  0.11273710546E+04  0.22358556546E+04  0.74086914157E+03  0.26113029483E+04  0.00000000000E+00 0. -1.
<mgrwt>
<rscale>  0 0.60837645E+04</rscale>
<asrwt>0</asrwt>
<pdfrwt beam="1">  1        1 0.32908215E+00 0.60837645E+04</pdfrwt>
<pdfrwt beam="2">  1       -1 0.66550873E+00 0.60837645E+04</pdfrwt>
<totfact> 0.42367661E-04</totfact>
</mgrwt>
</event>
<event>
 6    1  0.1588846E-005  0.2396232E+04  0.7818608E-02  0.8440916E-01
         -2   -1    0    0    0  501 -0.00000000000E+00  0.00000000000E+00  0.60115934169E+03  0.60115934169E+03  0.00000000000E+00 0.  1.
          2   -1    0    0  501    0  0.00000000000E+00 -0.00000000000E+00 -0.23878558226E+04  0.23878558226E+04  0.00000000000E+00 0. -1.
         23    2    1    2    0    0  0.95057289980E+03 -0.35649319125E+03 -0.10885164582E+03  0.10279339513E+04  0.11884146686E+03 0.  0.
         11    1    3    3    0    0  0.90678818251E+03 -0.31087428168E+03 -0.10835091044E+03  0.96470075503E+03  0.00000000000E+00 0. -1.
        -11    1    3    3    0    0  0.43784717286E+02 -0.45618909566E+02 -0.50073538312E+00  0.63233196296E+02  0.00000000000E+00 0.  1.
         22    1    1    2    0    0 -0.95057289980E+03  0.35649319125E+03 -0.16778448350E+04  0.19610812129E+04  0.00000000000E+00 0. -1.
<mgrwt>
<rscale>  0 0.23962319E+04</rscale>
<asrwt>0</asrwt>
<pdfrwt beam="1">  1        2 0.36736243E+00 0.23962319E+04</pdfrwt>
<pdfrwt beam="2">  1       -2 0.92486053E-01 0.23962319E+04</pdfrwt>
<totfact> 0.36047345E+00</totfact>
</mgrwt>
</event>
<event>
 6    1  0.1588846E-005  0.6860239E+03  0.7818608E-02  0.9741436E-01
          3   -1    0    0  501    0  0.00000000000E+00  0.00000000000E+00  0.16576343956E+04  0.16576343956E+04  0.00000000000E+00 0. -1.
         -3   -1    0    0    0  501 -0.00000000000E+00 -0.00000000000E+00 -0.70978985649E+02  0.70978985649E+02  0.00000000000E+00 0.  1.
         23    2    1    2    0    0  0.77644088896E+02 -0.16573408280E+02  0.16325071010E+04  0.16369309948E+04  0.90334735731E+02 0.  0.
         13    1    3    3    0    0  0.58327569427E+01 -0.23217045630E+02  0.10063154918E+04  0.10066001794E+04  0.00000000000E+00 0.  1.
        -13    1    3    3    0    0  0.71811331953E+02  0.66436373502E+01  0.62619160925E+03  0.63033081537E+03  0.00000000000E+00 0. -1.
         22    1    1    2    0    0 -0.77644088896E+02  0.16573408280E+02 -0.45851691095E+02  0.91682386415E+02  0.00000000000E+00 0.  1.
<mgrwt>
<rscale>  0 0.68602393E+03</rscale>
<asrwt>0</asrwt>
<pdfrwt beam="1">  1        3 0.25502065E+00 0.68602393E+03</pdfrwt>
<pdfrwt beam="2">  1       -3 0.10919845E-01 0.68602393E+03</pdfrwt>
<totfact> 0.12337711E+01</totfact>
</mgrwt>
</event>
<event>
 6    1  0.1588846E-005  0.2738940E+04  0.7818608E-02  0.8322480E-01
         -2   -1    0    0    0  501 -0.00000000000E+00  0.00000000000E+00  0.70706349008E+03  0.70706349008E+03  0.00000000000E+00 0.  1.
          2   -1    0    0  501    0  0.00000000000E+00 -0.00000000000E+00 -0.26524457371E+04  0.26524457371E+04  0.00000000000E+00 0. -1.
         23    2    1    2    0    0  0.89153341188E+03 -0.42887262276E+02  0.29790051417E+03  0.94517936397E+03  0.89152520800E+02 0.  0.
         13    1    3    3    0    0  0.22390999725E+03 -0.44059731211E+02  0.97183034863E+02  0.24803525768E+03  0.00000000000E+00 0.  1.
        -13    1    3    3    0    0  0.66762341462E+03  0.11724689355E+01  0.20071747931E+03  0.69714410629E+03  0.00000000000E+00 0. -1.
         22    1    1    2    0    0 -0.89153341188E+03  0.42887262276E+02 -0.22432827612E+04  0.24143298632E+04  0.00000000000E+00 0. -1.
<mgrwt>
<rscale>  0 0.27389396E+04</rscale>
<asrwt>0</asrwt>
<pdfrwt beam="1">  1        2 0.40806858E+00 0.27389396E+04</pdfrwt>
<pdfrwt beam="2">  1       -2 0.10877900E+00 0.27389396E+04</pdfrwt>
<totfact> 0.16724286E+00</totfact>
</mgrwt>
</event>
<event>
 6    1  0.1869159E-005  0.2960039E+04  0.7818608E-02  0.8255235E-01
          2   -1    0    0  501    0  0.00000000000E+00  0.00000000000E+00  0.26797079034E+04  0.26797079034E+04  0.00000000000E+00 0. -1.
         -2   -1    0    0    0  501 -0.00000000000E+00 -0.00000000000E+00 -0.81742431626E+03  0.81742431626E+03  0.00000000000E+00 0.  1.
         23    2    1    2    0    0 -0.20351014961E+03  0.96861082505E+03 -0.36584416731E+03  0.10590640086E+04  0.90284595748E+02 0.  0.
         11    1    3    3    0    0 -0.12603478867E+03  0.40498993095E+03 -0.13528822914E+03  0.44520165888E+03  0.00000000000E+00 0. -1.
        -11    1    3    3    0    0 -0.77475360943E+02  0.56362089410E+03 -0.23055593817E+03  0.61386234975E+03  0.00000000000E+00 0.  1.
         22    1    1    2    0    0  0.20351014961E+03 -0.96861082505E+03  0.22281277544E+04  0.24380682110E+04  0.00000000000E+00 0. -1.
<mgrwt>
<rscale>  0 0.29600395E+04</rscale>
<asrwt>0</asrwt>
<pdfrwt beam="1">  1        2 0.41226275E+00 0.29600395E+04</pdfrwt>
<pdfrwt beam="2">  1       -2 0.12575759E+00 0.29600395E+04</pdfrwt>
<totfact> 0.11070204E+00</totfact>
</mgrwt>
</event>
<event>
 6    1  0.1588846E-005  0.3306819E+04  0.7818608E-02  0.8161162E-01
         -1   -1    0    0    0  501 -0.00000000000E+00  0.00000000000E+00  0.17400190488E+04  0.17400190488E+04  0.00000000000E+00 0.  1.
          1   -1    0    0  501    0  0.00000000000E+00 -0.00000000000E+00 -0.15711110168E+04  0.15711110168E+04  0.00000000000E+00 0. -1.
         23    2    1    2    0    0  0.82005820607E+03  0.18490733296E+03 -0.13396844645E+04  0.15841276036E+04  0.89552314023E+02 0.  0.
         11    1    3    3    0    0  0.26414468756E+03  0.57466305128E+02 -0.35511963052E+03  0.44630118101E+03  0.00000000000E+00 0. -1.
        -11    1    3    3    0    0  0.55591351851E+03  0.12744102783E+03 -0.98456483398E+03  0.11378264226E+04  0.00000000000E+00 0.  1.
         22    1    1    2    0    0 -0.82005820607E+03 -0.18490733296E+03  0.15085924965E+04  0.17270024619E+04  0.00000000000E+00 0.  1.
<mgrwt>
<rscale>  0 0.33068191E+04</rscale>
<asrwt>0</asrwt>
<pdfrwt beam="1">  1        1 0.24170939E+00 0.33068191E+04</pdfrwt>
<pdfrwt beam="2">  1       -1 0.26769524E+00 0.33068191E+04</pdfrwt>
<totfact> 0.25901704E-01</totfact>
</mgrwt>
</event>
<event>
 6    1  0.1588846E-005  0.4376585E+04  0.7818608E-02  0.7932607E-01
          2   -1    0    0  501    0  0.00000000000E+00  0.00000000000E+00  0.25142808645E+04  0.25142808645E+04  0.00000000000E+00 0.  1.
         -2   -1    0    0    0  501 -0.00000000000E+00 -0.00000000000E+00 -0.19045704560E+04  0.19045704560E+04  0.00000000000E+00 0. -1.
         23    2    1    2    0    0  0.70706771846E+03  0.15011150565E+04  0.17439474480E+04  0.24089297218E+04  0.91096279216E+02 0.  0.
         13    1    3    3    0    0  0.18388934046E+03  0.48925456979E+03  0.54312687791E+03  0.75377193442E+03  0.00000000000E+00 0. -1.
        -13    1    3    3    0    0  0.52317837800E+03  0.10118604867E+04  0.12008205701E+04  0.16551577874E+04  0.00000000000E+00 0.  1.
         22    1    1    2    0    0 -0.70706771846E+03 -0.15011150565E+04 -0.11342370395E+04  0.20099215987E+04  0.00000000000E+00 0. -1.
<mgrwt>
<rscale>  0 0.43765855E+04</rscale>
<asrwt>0</asrwt>
<pdfrwt beam="1">  1        2 0.38681244E+00 0.43765855E+04</pdfrwt>
<pdfrwt beam="2">  1       -2 0.29301084E+00 0.43765855E+04</pdfrwt>
<totfact> 0.91667096E-02</totfact>
</mgrwt>
</event>
<event>
 6    1  0.1588846E-005  0.3213994E+04  0.7818608E-02  0.8185131E-01
          2   -1    0    0  501    0  0.00000000000E+00  0.00000000000E+00  0.24026341165E+04  0.24026341165E+04  0.00000000000E+00 0. -1.
         -2   -1    0    0    0  501 -0.00000000000E+00 -0.00000000000E+00 -0.10748370291E+04  0.10748370291E+04  0.00000000000E+00 0.  1.
         23    2    1    2    0    0  0.99434498674E+01 -0.53395201649E+03 -0.97378924290E+03  0.11147389847E+04  0.95780407264E+02 0.  0.
         11    1    3    3    0    0  0.44376495467E+02 -0.27971298385E+03 -0.56711391613E+03  0.63389811528E+03  0.00000000000E+00 0. -1.
        -11    1    3    3    0    0 -0.34433045600E+02 -0.25423903265E+03 -0.40667532677E+03  0.48084086947E+03  0.00000000000E+00 0.  1.
         22    1    1    2    0    0 -0.99434498674E+01  0.53395201649E+03  0.23015863303E+04  0.23627321609E+04  0.00000000000E+00 0. -1.
<mgrwt>
<rscale>  0 0.32139945E+04</rscale>
<asrwt>0</asrwt>
<pdfrwt beam="1">  1        2 0.36963602E+00 0.32139945E+04</pdfrwt>
<pdfrwt beam="2">  1       -2 0.16535954E+00 0.32139945E+04</pdfrwt>
<totfact> 0.76674533E-01</totfact>
</mgrwt>
</event>
<event>
 6    1  0.1588846E-005  0.2226469E+04  0.7818608E-02  0.8507491E-01
          1   -1    0    0  501    0  0.00000000000E+00  0.00000000000E+00  0.42796560063E+04  0.42796560063E+04  0.00000000000E+00 0. -1.
         -1   -1    0    0    0  501 -0.00000000000E+00 -0.00000000000E+00 -0.28957719549E+03  0.28957719549E+03  0.00000000000E+00 0.  1.
         23    2    1    2    0    0  0.81122168271E+03  0.76962198377E+02  0.44734940743E+03  0.93399793786E+03  0.90702023814E+02 0.  0.
         13    1    3    3    0    0  0.44777405375E+03 -0.25088416570E+00  0.26169140703E+03  0.51863673093E+03  0.00000000000E+00 0.  1.
        -13    1    3    3    0    0  0.36344762896E+03  0.77213082542E+02  0.18565800039E+03  0.41536120693E+03  0.00000000000E+00 0. -1.
         22    1    1    2    0    0 -0.81122168271E+03 -0.76962198377E+02  0.35427294034E+04  0.36352352639E+04  0.00000000000E+00 0. -1.
<mgrwt>
<rscale>  0 0.22264688E+04</rscale>
<asrwt>0</asrwt>
<pdfrwt beam="1">  1        1 0.65840857E+00 0.22264688E+04</pdfrwt>
<pdfrwt beam="2">  1       -1 0.44550341E-01 0.22264688E+04</pdfrwt>
<totfact> 0.24329580E-01</totfact>
</mgrwt>
</event>
<event>
 6    1  0.1588846E-005  0.5197498E+04  0.7818608E-02  0.7798743E-01
          2   -1    0    0  501    0  0.00000000000E+00  0.00000000000E+00  0.34901402044E+04  0.34901402044E+04  0.00000000000E+00 0. -1.
         -2   -1    0    0    0  501 -0.00000000000E+00 -0.00000000000E+00 -0.19350211891E+04  0.19350211891E+04  0.00000000000E+00 0.  1.
         23    2    1    2    0    0 -0.21914588484E+04  0.32855735952E+03 -0.63759196515E+03  0.23077228189E+04  0.92840035176E+02 0.  0.
         11    1    3    3    0    0 -0.77094143196E+03  0.10873305124E+03 -0.26975222826E+03  0.82397805347E+03  0.00000000000E+00 0.  1.
        -11    1    3    3    0    0 -0.14205174164E+04  0.21982430828E+03 -0.36783973689E+03  0.14837447654E+04  0.00000000000E+00 0. -1.
         22    1    1    2    0    0  0.21914588484E+04 -0.32855735952E+03  0.21927109804E+04  0.31174385746E+04  0.00000000000E+00 0.  1.
<mgrwt>
<rscale>  0 0.51974976E+04</rscale>
<asrwt>0</asrwt>
<pdfrwt beam="1">  1        2 0.53694465E+00 0.51974976E+04</pdfrwt>
<pdfrwt beam="2">  1       -2 0.29769557E+00 0.51974976E+04</pdfrwt>
<totfact> 0.19399127E-02</totfact>
</mgrwt>
</event>
<event>
 6    1  0.1588846E-005  0.3701447E+04  0.7818608E-02  0.8067641E-01
          2   -1    0    0  501    0  0.00000000000E+00  0.00000000000E+00  0.10994793633E+04  0.10994793633E+04  0.00000000000E+00 0.  1.
         -2   -1    0    0    0  501 -0.00000000000E+00 -0.00000000000E+00 -0.31152721882E+04  0.31152721882E+04  0.00000000000E+00 0. -1.
         23    2    1    2    0    0  0.79989472004E+03 -0.10843664876E+04 -0.24512473907E+04  0.27986643644E+04  0.90698463520E+02 0.  0.
         11    1    3    3    0    0  0.67558770476E+03 -0.96217848538E+03 -0.21606690843E+04  0.24598164721E+04  0.00000000000E+00 0.  1.
        -11    1    3    3    0    0  0.12430701528E+03 -0.12218800225E+03 -0.29057830644E+03  0.33884789230E+03  0.00000000000E+00 0. -1.
         22    1    1    2    0    0 -0.79989472004E+03  0.10843664876E+04  0.43545456582E+03  0.14160871871E+04  0.00000000000E+00 0.  1.
<mgrwt>
<rscale>  0 0.37014470E+04</rscale>
<asrwt>0</asrwt>
<pdfrwt beam="1">  1        2 0.16915067E+00 0.37014470E+04</pdfrwt>
<pdfrwt beam="2">  1       -2 0.47927264E+00 0.37014470E+04</pdfrwt>
<totfact> 0.39319666E-02</totfact>
</mgrwt>
</event>
<event>
 6    1  0.1588846E-005  0.2065779E+04  0.7818608E-02  0.8576470E-01
         -2   -1    0    0    0  501 -0.00000000000E+00  0.00000000000E+00  0.42819103665E+03  0.42819103665E+03  0.00000000000E+00 0.  1.
          2   -1    0    0  501    0  0.00000000000E+00 -0.00000000000E+00 -0.24915535658E+04  0.24915535658E+04  0.00000000000E+00 0. -1.
         23    2    1    2    0    0 -0.39299522970E+03 -0.12671819468E+03 -0.23688646647E+04  0.24060965651E+04  0.85311956446E+02 0.  0.
         13    1    3    3    0    0 -0.31830901190E+03 -0.69942553973E+02 -0.19291990485E+04  0.19565330451E+04  0.00000000000E+00 0. -1.
        -13    1    3    3    0    0 -0.74686217801E+02 -0.56775640705E+02 -0.43966561618E+03  0.44956352004E+03  0.00000000000E+00 0.  1.
         22    1    1    2    0    0  0.39299522970E+03  0.12671819468E+03  0.30550213550E+03  0.51364803730E+03  0.00000000000E+00 0.  1.
<mgrwt>
<rscale>  0 0.20657792E+04</rscale>
<asrwt>0</asrwt>
<pdfrwt beam="1">  1        2 0.38331594E+00 0.20657792E+04</pdfrwt>
<pdfrwt beam="2">  1       -2 0.65875544E-01 0.20657792E+04</pdfrwt>
<totfact> 0.69033948E+00</totfact>
</mgrwt>
</event>
<event>
 6    1  0.1588846E-005  0.2843241E+04  0.7818608E-02  0.8289968E-01
          2   -1    0    0  501    0  0.00000000000E+00  0.00000000000E+00  0.34297150785E+04  0.34297150785E+04  0.00000000000E+00 0.  1.
         -2   -1    0    0    0  501 -0.00000000000E+00 -0.00000000000E+00 -0.58926318498E+03  0.58926318498E+03  0.00000000000E+00 0. -1.
         23    2    1    2    0    0  0.44122452850E+02 -0.54321711128E+03 -0.43182939430E+03  0.70162141691E+03  0.93618192919E+02 0.  0.
         13    1    3    3    0    0  0.54388330293E+02 -0.20318663819E+03 -0.13329445535E+03  0.24901869857E+03  0.00000000000E+00 0.  1.
        -13    1    3    3    0    0 -0.10265877443E+02 -0.34003047310E+03 -0.29853493895E+03  0.45260271834E+03  0.00000000000E+00 0. -1.
         22    1    1    2    0    0 -0.44122452850E+02  0.54321711128E+03  0.32722812878E+04  0.33173568465E+04  0.00000000000E+00 0.  1.
<mgrwt>
<rscale>  0 0.28432410E+04</rscale>
<asrwt>0</asrwt>
<pdfrwt beam="1">  1        2 0.52764846E+00 0.28432410E+04</pdfrwt>
<pdfrwt beam="2">  1       -2 0.90655877E-01 0.28432410E+04</pdfrwt>
<totfact> 0.81940790E-01</totfact>
</mgrwt>
</event>
<event>
 6    1  0.1588846E-005  0.1949917E+04  0.7818608E-02  0.8630401E-01
         -2   -1    0    0    0  501 -0.00000000000E+00  0.00000000000E+00  0.63244813650E+03  0.63244813650E+03  0.00000000000E+00 0.  1.
          2   -1    0    0  501    0  0.00000000000E+00 -0.00000000000E+00 -0.15029599999E+04  0.15029599999E+04  0.00000000000E+00 0. -1.
         23    2    1    2    0    0 -0.63700072723E+03  0.71784477744E+03 -0.26284223324E+03  0.99947969217E+03  0.93821983048E+02 0.  0.
         11    1    3    3    0    0 -0.27498427815E+03  0.28371700952E+03 -0.63981874481E+02  0.40025663640E+03  0.00000000000E+00 0.  1.
        -11    1    3    3    0    0 -0.36201644908E+03  0.43412776792E+03 -0.19886035876E+03  0.59922305577E+03  0.00000000000E+00 0. -1.
         22    1    1    2    0    0  0.63700072723E+03 -0.71784477744E+03 -0.60766963017E+03  0.11359284442E+04  0.00000000000E+00 0. -1.
<mgrwt>
<rscale>  0 0.19499172E+04</rscale>
<asrwt>0</asrwt>
<pdfrwt beam="1">  1        2 0.23122462E+00 0.19499172E+04</pdfrwt>
<pdfrwt beam="2">  1       -2 0.97299713E-01 0.19499172E+04</pdfrwt>
<totfact> 0.10394629E+01</totfact>
</mgrwt>
</event>
<event>
 6    1  0.1588846E-005  0.1808205E+04  0.7818608E-02  0.8701948E-01
         -2   -1    0    0    0  501 -0.00000000000E+00  0.00000000000E+00  0.57161339142E+03  0.57161339142E+03  0.00000000000E+00 0.  1.
          2   -1    0    0  501    0  0.00000000000E+00 -0.00000000000E+00 -0.14299904562E+04  0.14299904562E+04  0.00000000000E+00 0. -1.
         23    2    1    2    0    0  0.58654269561E+03  0.32394285925E+03 -0.10982817275E+04  0.12898977587E+04  0.92963246223E+02 0.  0.
         11    1    3    3    0    0  0.71521871398E+02  0.25173350464E+02 -0.18193688697E+03  0.19710430362E+03  0.00000000000E+00 0.  1.
        -11    1    3    3    0    0  0.51502082421E+03  0.29876950878E+03 -0.91634484050E+03  0.10927934551E+04  0.00000000000E+00 0. -1.
         22    1    1    2    0    0 -0.58654269561E+03 -0.32394285925E+03  0.23990466269E+03  0.71170608892E+03  0.00000000000E+00 0.  1.
<mgrwt>
<rscale>  0 0.18082054E+04</rscale>
<asrwt>0</asrwt>
<pdfrwt beam="1">  1        2 0.21999853E+00 0.18082054E+04</pdfrwt>
<pdfrwt beam="2">  1       -2 0.87940522E-01 0.18082054E+04</pdfrwt>
<totfact> 0.14629933E+01</totfact>
</mgrwt>
</event>
<event>
 6    1  0.1588846E-005  0.1503070E+04  0.7818608E-02  0.8882414E-01
          1   -1    0    0  501    0  0.00000000000E+00  0.00000000000E+00  0.72365329226E+03  0.72365329226E+03  0.00000000000E+00 0. -1.
         -1   -1    0    0    0  501 -0.00000000000E+00 -0.00000000000E+00 -0.78049125315E+03  0.78049125315E+03  0.00000000000E+00 0.  1.
         23    2    1    2    0    0 -0.18518057532E+03  0.96825253828E+02 -0.74804648442E+03  0.78203915265E+03  0.91349428977E+02 0.  0.
         13    1    3    3    0    0 -0.91243420495E+02  0.44894531871E+02 -0.52187763009E+03  0.53169271347E+03  0.00000000000E+00 0. -1.
        -13    1    3    3    0    0 -0.93937154824E+02  0.51930721957E+02 -0.22616885433E+03  0.25034643918E+03  0.00000000000E+00 0.  1.
         22    1    1    2    0    0  0.18518057532E+03 -0.96825253828E+02  0.69120852352E+03  0.72210539276E+03  0.00000000000E+00 0. -1.
<mgrwt>
<rscale>  0 0.15030703E+04</rscale>
<asrwt>0</asrwt>
<pdfrwt beam="1">  1        1 0.11133128E+00 0.15030703E+04</pdfrwt>
<pdfrwt beam="2">  1       -1 0.12007558E+00 0.15030703E+04</pdfrwt>
<totfact> 0.15482458E+01</totfact>
</mgrwt>
</event>
<event>
 6    1  0.1588846E-005  0.1129379E+04  0.7818608E-02  0.9177021E-01
         -1   -1    0    0    0  501 -0.00000000000E+00  0.00000000000E+00  0.32024354243E+03  0.32024354243E+03  0.00000000000E+00 0.  1.
          1   -1    0    0  501    0  0.00000000000E+00 -0.00000000000E+00 -0.99572413653E+03  0.99572413653E+03  0.00000000000E+00 0. -1.
         23    2    1    2    0    0  0.49430113685E+03 -0.34246419504E+02 -0.33192599464E+02  0.50477084761E+03  0.90473359604E+02 0.  0.
         11    1    3    3    0    0  0.27816702125E+03 -0.44255013414E+01  0.23947383694E+02  0.27923100466E+03  0.00000000000E+00 0. -1.
        -11    1    3    3    0    0  0.21613411560E+03 -0.29820918163E+02 -0.57139983158E+02  0.22553984296E+03  0.00000000000E+00 0.  1.
         22    1    1    2    0    0 -0.49430113685E+03  0.34246419504E+02 -0.64228799464E+03  0.81119683135E+03  0.00000000000E+00 0.  1.
<mgrwt>
<rscale>  0 0.11293790E+04</rscale>
<asrwt>0</asrwt>
<pdfrwt beam="1">  1        1 0.15318833E+00 0.11293790E+04</pdfrwt>
<pdfrwt beam="2">  1       -1 0.49268237E-01 0.11293790E+04</pdfrwt>
<totfact> 0.62581496E+01</totfact>
</mgrwt>
</event>
<event>
 6    1  0.1588846E-005  0.1732121E+04  0.7818608E-02  0.8743254E-01
          2   -1    0    0  501    0  0.00000000000E+00  0.00000000000E+00  0.97416021466E+03  0.97416021466E+03  0.00000000000E+00 0. -1.
         -2   -1    0    0    0  501 -0.00000000000E+00 -0.00000000000E+00 -0.76995626767E+03  0.76995626767E+03  0.00000000000E+00 0.  1.
         23    2    1    2    0    0 -0.35196181190E+03 -0.18760614520E+03 -0.66852570237E+03  0.78456959779E+03  0.97722342825E+02 0.  0.
         13    1    3    3    0    0 -0.23211718237E+03 -0.86596616210E+02 -0.34123524942E+03  0.42168573101E+03  0.00000000000E+00 0.  1.
        -13    1    3    3    0    0 -0.11984462953E+03 -0.10100952899E+03 -0.32729045295E+03  0.36288386678E+03  0.00000000000E+00 0. -1.
         22    1    1    2    0    0  0.35196181190E+03  0.18760614520E+03  0.87272964936E+03  0.95954688454E+03  0.00000000000E+00 0. -1.
<mgrwt>
<rscale>  0 0.17321210E+04</rscale>
<asrwt>0</asrwt>
<pdfrwt beam="1">  1        2 0.14987080E+00 0.17321210E+04</pdfrwt>
<pdfrwt beam="2">  1       -2 0.11845481E+00 0.17321210E+04</pdfrwt>
<totfact> 0.13626163E+01</totfact>
</mgrwt>
</event>
<event>
 6    1  0.1588846E-005  0.1325391E+04  0.7818608E-02  0.9009669E-01
          3   -1    0    0  501    0  0.00000000000E+00  0.00000000000E+00  0.17452431737E+03  0.17452431737E+03  0.00000000000E+00 0. -1.
         -3   -1    0    0    0  501 -0.00000000000E+00 -0.00000000000E+00 -0.25163567301E+04  0.25163567301E+04  0.00000000000E+00 0.  1.
         23    2    1    2    0    0 -0.65631308807E+03 -0.12984461176E+02 -0.10540011839E+04  0.12453967896E+04  0.95808152691E+02 0.  0.
         13    1    3    3    0    0 -0.30417822814E+03  0.41738370444E+02 -0.49051593789E+03  0.57868158029E+03  0.00000000000E+00 0. -1.
        -13    1    3    3    0    0 -0.35213485992E+03 -0.54722831621E+02 -0.56348524604E+03  0.66671520935E+03  0.00000000000E+00 0.  1.
         22    1    1    2    0    0  0.65631308807E+03  0.12984461176E+02 -0.12878312288E+04  0.14454842579E+04  0.00000000000E+00 0. -1.
<mgrwt>
<rscale>  0 0.13253912E+04</rscale>
<asrwt>0</asrwt>
<pdfrwt beam="1">  1        3 0.26849895E-01 0.13253912E+04</pdfrwt>
<pdfrwt beam="2">  1       -3 0.38713180E+00 0.13253912E+04</pdfrwt>
<totfact> 0.43334411E-01</totfact>
</mgrwt>
</event>
<event>
 6    1  0.1588846E-005  0.2512221E+04  0.7818608E-02  0.8398645E-01
          2   -1    0    0  501    0  0.00000000000E+00  0.00000000000E+00  0.28848962337E+04  0.28848962337E+04  0.00000000000E+00 0. -1.
         -2   -1    0    0    0  501 -0.00000000000E+00 -0.00000000000E+00 -0.54692205358E+03  0.54692205358E+03  0.00000000000E+00 0.  1.
         23    2    1    2    0    0 -0.57098004622E+03  0.10700630926E+04  0.16080859635E+04  0.20162653762E+04  0.91281793742E+02 0.  0.
         13    1    3    3    0    0 -0.25246850651E+03  0.45654511667E+03  0.61846483348E+03  0.80911837242E+03  0.00000000000E+00 0. -1.
        -13    1    3    3    0    0 -0.31851153971E+03  0.61351797592E+03  0.98962113000E+03  0.12071470037E+04  0.00000000000E+00 0.  1.
         22    1    1    2    0    0  0.57098004622E+03 -0.10700630926E+04  0.72988821662E+03  0.14155529111E+04  0.00000000000E+00 0.  1.
<mgrwt>
<rscale>  0 0.25122208E+04</rscale>
<asrwt>0</asrwt>
<pdfrwt beam="1">  1        2 0.44383018E+00 0.25122208E+04</pdfrwt>
<pdfrwt beam="2">  1       -2 0.84141856E-01 0.25122208E+04</pdfrwt>
<totfact> 0.22549910E+00</totfact>
</mgrwt>
</event>
<event>
 6    1  0.1588846E-005  0.1979416E+04  0.7818608E-02  0.8616305E-01
         -1   -1    0    0    0  501 -0.00000000000E+00  0.00000000000E+00  0.34877670173E+03  0.34877670173E+03  0.00000000000E+00 0.  1.
          1   -1    0    0  501    0  0.00000000000E+00 -0.00000000000E+00 -0.28084504228E+04  0.28084504228E+04  0.00000000000E+00 0. -1.
         23    2    1    2    0    0 -0.43997577731E+02 -0.82990124903E+03 -0.38273931922E+03  0.92019150130E+03  0.97934379058E+02 0.  0.
         11    1    3    3    0    0  0.28330320185E+02 -0.20848040718E+03 -0.11402116936E+03  0.23930631894E+03  0.00000000000E+00 0.  1.
        -11    1    3    3    0    0 -0.72327897916E+02 -0.62142084185E+03 -0.26871814987E+03  0.68088518237E+03  0.00000000000E+00 0. -1.
         22    1    1    2    0    0  0.43997577731E+02  0.82990124903E+03 -0.20769344019E+04  0.22370356233E+04  0.00000000000E+00 0. -1.
<mgrwt>
<rscale>  0 0.19794162E+04</rscale>
<asrwt>0</asrwt>
<pdfrwt beam="1">  1        1 0.43206929E+00 0.19794162E+04</pdfrwt>
<pdfrwt beam="2">  1       -1 0.53657955E-01 0.19794162E+04</pdfrwt>
<totfact> 0.26805937E+00</totfact>
</mgrwt>
</event>
<event>
 6    1  0.1588846E-005  0.1242661E+04  0.7818608E-02  0.9076314E-01
         -2   -1    0    0    0  501 -0.00000000000E+00  0.00000000000E+00  0.31238681526E+03  0.31238681526E+03  0.00000000000E+00 0.  1.
          2   -1    0    0  501    0  0.00000000000E+00 -0.00000000000E+00 -0.12358123319E+04  0.12358123319E+04  0.00000000000E+00 0. -1.
         23    2    1    2    0    0  0.30755867438E+03  0.25613002290E+03 -0.10507702649E+04  0.11281853238E+04  0.92136032220E+02 0.  0.
         13    1    3    3    0    0  0.20179076829E+03  0.10859523029E+03 -0.59248652494E+03  0.63525799518E+03  0.00000000000E+00 0. -1.
        -13    1    3    3    0    0  0.10576790609E+03  0.14753479262E+03 -0.45828374000E+03  0.49292732866E+03  0.00000000000E+00 0.  1.
         22    1    1    2    0    0 -0.30755867438E+03 -0.25613002290E+03  0.12734474833E+03  0.42001382328E+03  0.00000000000E+00 0.  1.
<mgrwt>
<rscale>  0 0.12426608E+04</rscale>
<asrwt>0</asrwt>
<pdfrwt beam="1">  1        2 0.19012497E+00 0.12426608E+04</pdfrwt>
<pdfrwt beam="2">  1       -2 0.48059511E-01 0.12426608E+04</pdfrwt>
<totfact> 0.72757714E+01</totfact>
</mgrwt>
</event>
<event>
 6    1  0.1588846E-005  0.2051256E+04  0.7818608E-02  0.8583025E-01
          1   -1    0    0  501    0  0.00000000000E+00  0.00000000000E+00  0.22934704650E+04  0.22934704650E+04  0.00000000000E+00 0. -1.
         -1   -1    0    0    0  501 -0.00000000000E+00 -0.00000000000E+00 -0.45865540440E+03  0.45865540440E+03  0.00000000000E+00 0.  1.
         23    2    1    2    0    0  0.12564045839E+03 -0.95040620165E+03  0.14007325542E+04  0.16997546919E+04  0.89759964760E+02 0.  0.
         13    1    3    3    0    0  0.75465473483E+02 -0.28079430083E+03  0.39559728925E+03  0.49095589652E+03  0.00000000000E+00 0. -1.
        -13    1    3    3    0    0  0.50174984909E+02 -0.66961190082E+03  0.10051352650E+04  0.12087987954E+04  0.00000000000E+00 0.  1.
         22    1    1    2    0    0 -0.12564045839E+03  0.95040620165E+03  0.43408250640E+03  0.10523711775E+04  0.00000000000E+00 0. -1.
<mgrwt>
<rscale>  0 0.20512558E+04</rscale>
<asrwt>0</asrwt>
<pdfrwt beam="1">  1        1 0.35284160E+00 0.20512558E+04</pdfrwt>
<pdfrwt beam="2">  1       -1 0.70562371E-01 0.20512558E+04</pdfrwt>
<totfact> 0.35249390E+00</totfact>
</mgrwt>
</event>
<event>
 6    1  0.1588846E-005  0.1153291E+04  0.7818608E-02  0.9154753E-01
          2   -1    0    0  501    0  0.00000000000E+00  0.00000000000E+00  0.78176916764E+03  0.78176916764E+03  0.00000000000E+00 0. -1.
         -2   -1    0    0    0  501 -0.00000000000E+00 -0.00000000000E+00 -0.42534315547E+03  0.42534315547E+03  0.00000000000E+00 0.  1.
         23    2    1    2    0    0 -0.51156302498E+03  0.12194792701E+03 -0.59076029340E+02  0.53688104069E+03  0.90461313184E+02 0.  0.
         11    1    3    3    0    0 -0.26888054813E+03  0.84861380418E+02  0.90650777216E+01  0.28209994449E+03  0.00000000000E+00 0.  1.
        -11    1    3    3    0    0 -0.24268247686E+03  0.37086546588E+02 -0.68141107062E+02  0.25478109620E+03  0.00000000000E+00 0. -1.
         22    1    1    2    0    0  0.51156302498E+03 -0.12194792701E+03  0.41550204152E+03  0.67023128242E+03  0.00000000000E+00 0. -1.
<mgrwt>
<rscale>  0 0.11532912E+04</rscale>
<asrwt>0</asrwt>
<pdfrwt beam="1">  1        2 0.12027218E+00 0.11532912E+04</pdfrwt>
<pdfrwt beam="2">  1       -2 0.65437409E-01 0.11532912E+04</pdfrwt>
<totfact> 0.75668497E+01</totfact>
</mgrwt>
</event>
<event>
 6    1  0.1588846E-005  0.2120071E+04  0.7818608E-02  0.8552453E-01
          2   -1    0    0  501    0  0.00000000000E+00  0.00000000000E+00  0.11655639438E+04  0.11655639438E+04  0.00000000000E+00 0. -1.
         -2   -1    0    0    0  501 -0.00000000000E+00 -0.00000000000E+00 -0.96406171461E+03  0.96406171461E+03  0.00000000000E+00 0.  1.
         23    2    1    2    0    0 -0.35165405640E+03 -0.22842636329E+03  0.10769110671E+04  0.11589661856E+04  0.87326937478E+02 0.  0.
         11    1    3    3    0    0 -0.13291533027E+03 -0.10091725509E+03  0.32116861579E+03  0.36193930039E+03  0.00000000000E+00 0. -1.
        -11    1    3    3    0    0 -0.21873872613E+03 -0.12750910819E+03  0.75574245133E+03  0.79702688519E+03  0.00000000000E+00 0.  1.
         22    1    1    2    0    0  0.35165405640E+03  0.22842636329E+03 -0.87540883789E+03  0.97065947288E+03  0.00000000000E+00 0.  1.
<mgrwt>
<rscale>  0 0.21200713E+04</rscale>
<asrwt>0</asrwt>
<pdfrwt beam="1">  1        2 0.17931753E+00 0.21200713E+04</pdfrwt>
<pdfrwt beam="2">  1       -2 0.14831719E+00 0.21200713E+04</pdfrwt>
<totfact> 0.56428469E+00</totfact>
</mgrwt>
</event>
<event>
 6    1  0.1588846E-005  0.2981958E+04  0.7818608E-02  0.8248902E-01
          1   -1    0    0  501    0  0.00000000000E+00  0.00000000000E+00  0.31313605511E+04  0.31313605511E+04  0.00000000000E+00 0. -1.
         -1   -1    0    0    0  501 -0.00000000000E+00 -0.00000000000E+00 -0.70992115918E+03  0.70992115918E+03  0.00000000000E+00 0.  1.
         23    2    1    2    0    0  0.19798893719E+03 -0.10297756629E+04  0.25746609979E+04  0.27815107937E+04  0.91024756156E+02 0.  0.
         11    1    3    3    0    0  0.19620244675E+03 -0.87940003875E+03  0.22503388679E+04  0.24240183268E+04  0.00000000000E+00 0.  1.
        -11    1    3    3    0    0  0.17864904462E+01 -0.15037562417E+03  0.32432212995E+03  0.35749246687E+03  0.00000000000E+00 0. -1.
         22    1    1    2    0    0 -0.19798893719E+03  0.10297756629E+04 -0.15322160593E+03  0.10597709166E+04  0.00000000000E+00 0.  1.
<mgrwt>
<rscale>  0 0.29819585E+04</rscale>
<asrwt>0</asrwt>
<pdfrwt beam="1">  1        1 0.48174777E+00 0.29819585E+04</pdfrwt>
<pdfrwt beam="2">  1       -1 0.10921864E+00 0.29819585E+04</pdfrwt>
<totfact> 0.31620531E-01</totfact>
</mgrwt>
</event>
<event>
 6    1  0.1588846E-005  0.7055052E+03  0.7818608E-02  0.9707864E-01
         -2   -1    0    0    0  501 -0.00000000000E+00  0.00000000000E+00  0.18518389314E+03  0.18518389314E+03  0.00000000000E+00 0.  1.
          2   -1    0    0  501    0  0.00000000000E+00 -0.00000000000E+00 -0.67195039360E+03  0.67195039360E+03  0.00000000000E+00 0. -1.
         23    2    1    2    0    0  0.17989784619E+03  0.11927286612E+03  0.83251266226E+02  0.24761849040E+03  0.88288684462E+02 0.  0.
         11    1    3    3    0    0  0.21656421599E+02  0.47164870317E+02  0.46926742858E+02  0.69968884397E+02  0.00000000000E+00 0. -1.
        -11    1    3    3    0    0  0.15824142459E+03  0.72107995802E+02  0.36324523368E+02  0.17764960601E+03  0.00000000000E+00 0.  1.
         22    1    1    2    0    0 -0.17989784619E+03 -0.11927286612E+03 -0.57001776668E+03  0.60951579634E+03  0.00000000000E+00 0. -1.
<mgrwt>
<rscale>  0 0.70550518E+03</rscale>
<asrwt>0</asrwt>
<pdfrwt beam="1">  1        2 0.10337698E+00 0.70550518E+03</pdfrwt>
<pdfrwt beam="2">  1       -2 0.28489830E-01 0.70550518E+03</pdfrwt>
<totfact> 0.48974343E+02</totfact>
</mgrwt>
</event>
<event>
 6    1  0.1588846E-005  0.3142406E+04  0.7818608E-02  0.8204195E-01
         -2   -1    0    0    0  501 -0.00000000000E+00  0.00000000000E+00  0.14269910819E+04  0.14269910819E+04  0.00000000000E+00 0.  1.
          2   -1    0    0  501    0  0.00000000000E+00 -0.00000000000E+00 -0.17299885414E+04  0.17299885414E+04  0.00000000000E+00 0. -1.
         23    2    1    2    0    0  0.94951589797E+02  0.15646828135E+04 -0.66007352656E+02  0.15716050865E+04  0.91309725433E+02 0.  0.
         11    1    3    3    0    0  0.58424033974E+02  0.37738930634E+03  0.57362495851E+00  0.38188530390E+03  0.00000000000E+00 0.  1.
        -11    1    3    3    0    0  0.36527555823E+02  0.11872935072E+04 -0.66580977614E+02  0.11897197826E+04  0.00000000000E+00 0. -1.
         22    1    1    2    0    0 -0.94951589797E+02 -0.15646828135E+04 -0.23699010689E+03  0.15853745368E+04  0.00000000000E+00 0.  1.
<mgrwt>
<rscale>  0 0.31424056E+04</rscale>
<asrwt>0</asrwt>
<pdfrwt beam="1">  1        2 0.26615208E+00 0.31424056E+04</pdfrwt>
<pdfrwt beam="2">  1       -2 0.21953709E+00 0.31424056E+04</pdfrwt>
<totfact> 0.79457306E-01</totfact>
</mgrwt>
</event>
<event>
 6    1  0.1588846E-005  0.3944638E+04  0.7818608E-02  0.8015809E-01
          2   -1    0    0  501    0  0.00000000000E+00  0.00000000000E+00  0.21319047989E+04  0.21319047989E+04  0.00000000000E+00 0. -1.
         -2   -1    0    0    0  501 -0.00000000000E+00 -0.00000000000E+00 -0.18246790568E+04  0.18246790568E+04  0.00000000000E+00 0.  1.
         23    2    1    2    0    0  0.30154877523E+02  0.46117762961E+03  0.20758325851E+04  0.21285892474E+04  0.90648442504E+02 0.  0.
         11    1    3    3    0    0  0.16410667390E+02  0.12211347195E+03  0.39216775497E+03  0.41106758334E+03  0.00000000000E+00 0. -1.
        -11    1    3    3    0    0  0.13744210133E+02  0.33906415766E+03  0.16836648302E+04  0.17175216641E+04  0.00000000000E+00 0.  1.
         22    1    1    2    0    0 -0.30154877523E+02 -0.46117762961E+03 -0.17686068431E+04  0.18279946083E+04  0.00000000000E+00 0.  1.
<mgrwt>
<rscale>  0 0.39446379E+04</rscale>
<asrwt>0</asrwt>
<pdfrwt beam="1">  1        2 0.32798536E+00 0.39446379E+04</pdfrwt>
<pdfrwt beam="2">  1       -2 0.28071985E+00 0.39446379E+04</pdfrwt>
<totfact> 0.18629953E-01</totfact>
</mgrwt>
</event>
<event>
 6    1  0.1588846E-005  0.2315291E+04  0.7818608E-02  0.8471917E-01
          1   -1    0    0  501    0  0.00000000000E+00  0.00000000000E+00  0.60001060980E+03  0.60001060980E+03  0.00000000000E+00 0. -1.
         -1   -1    0    0    0  501 -0.00000000000E+00 -0.00000000000E+00 -0.22335317628E+04  0.22335317628E+04  0.00000000000E+00 0.  1.
         23    2    1    2    0    0 -0.10929571400E+04  0.34201067540E+03 -0.10069914519E+04  0.15281435530E+04  0.98307284835E+02 0.  0.
         13    1    3    3    0    0 -0.79045603161E+03  0.29236258120E+03 -0.72984779488E+03  0.11148876268E+04  0.00000000000E+00 0.  1.
        -13    1    3    3    0    0 -0.30250110841E+03  0.49648094204E+02 -0.27714365704E+03  0.41325592614E+03  0.00000000000E+00 0. -1.
         22    1    1    2    0    0  0.10929571400E+04 -0.34201067540E+03 -0.62652970113E+03  0.13053988197E+04  0.00000000000E+00 0.  1.
<mgrwt>
<rscale>  0 0.23152907E+04</rscale>
<asrwt>0</asrwt>
<pdfrwt beam="1">  1        1 0.92309323E-01 0.23152907E+04</pdfrwt>
<pdfrwt beam="2">  1       -1 0.34362028E+00 0.23152907E+04</pdfrwt>
<totfact> 0.52973361E-01</totfact>
</mgrwt>
</event>
<event>
 6    1  0.1588846E-005  0.2970834E+04  0.7818608E-02  0.8252109E-01
          1   -1    0    0  501    0  0.00000000000E+00  0.00000000000E+00  0.31735128016E+04  0.31735128016E+04  0.00000000000E+00 0. -1.
         -1   -1    0    0    0  501 -0.00000000000E+00 -0.00000000000E+00 -0.69527480355E+03  0.69527480355E+03  0.00000000000E+00 0.  1.
         23    2    1    2    0    0  0.48647373643E+03  0.16468049708E+03  0.30534734585E+04  0.30976376863E+04  0.88784634435E+02 0.  0.
         13    1    3    3    0    0  0.17629683161E+03  0.10097761468E+03  0.10848463459E+04  0.11037067753E+04  0.00000000000E+00 0. -1.
        -13    1    3    3    0    0  0.31017690482E+03  0.63702882400E+02  0.19686271126E+04  0.19939309110E+04  0.00000000000E+00 0.  1.
         22    1    1    2    0    0 -0.48647373643E+03 -0.16468049708E+03 -0.57523546047E+03  0.77114991885E+03  0.00000000000E+00 0.  1.
<mgrwt>
<rscale>  0 0.29708339E+04</rscale>
<asrwt>0</asrwt>
<pdfrwt beam="1">  1        1 0.48823273E+00 0.29708339E+04</pdfrwt>
<pdfrwt beam="2">  1       -1 0.10696536E+00 0.29708339E+04</pdfrwt>
<totfact> 0.30922554E-01</totfact>
</mgrwt>
</event>
<event>
 6    1  0.1588846E-005  0.2299506E+04  0.7818608E-02  0.8478116E-01
         -2   -1    0    0    0  501 -0.00000000000E+00  0.00000000000E+00  0.62715735088E+03  0.62715735088E+03  0.00000000000E+00 0.  1.
          2   -1    0    0  501    0  0.00000000000E+00 -0.00000000000E+00 -0.21078159637E+04  0.21078159637E+04  0.00000000000E+00 0. -1.
         23    2    1    2    0    0  0.10655811822E+04 -0.91685922707E+02 -0.12374530725E+04  0.16381513148E+04  0.91542663886E+02 0.  0.
         11    1    3    3    0    0  0.28111329963E+03  0.13562527525E+02 -0.30304807651E+03  0.41357800481E+03  0.00000000000E+00 0.  1.
        -11    1    3    3    0    0  0.78446788257E+03 -0.10524845023E+03 -0.93440499599E+03  0.12245733100E+04  0.00000000000E+00 0. -1.
         22    1    1    2    0    0 -0.10655811822E+04  0.91685922707E+02 -0.24320554029E+03  0.10968219997E+04  0.00000000000E+00 0.  1.
<mgrwt>
<rscale>  0 0.22995063E+04</rscale>
<asrwt>0</asrwt>
<pdfrwt beam="1">  1        2 0.32427937E+00 0.22995063E+04</pdfrwt>
<pdfrwt beam="2">  1       -2 0.96485748E-01 0.22995063E+04</pdfrwt>
<totfact> 0.47393468E+00</totfact>
</mgrwt>
</event>
<event>
 6    1  0.1588846E-005  0.3003942E+04  0.7818608E-02  0.8242606E-01
         -1   -1    0    0    0  501 -0.00000000000E+00  0.00000000000E+00  0.24023614128E+04  0.24023614128E+04  0.00000000000E+00 0.  1.
          1   -1    0    0  501    0  0.00000000000E+00 -0.00000000000E+00 -0.93904167690E+03  0.93904167690E+03  0.00000000000E+00 0. -1.
         23    2    1    2    0    0  0.45253018444E+03 -0.86871500158E+03 -0.52969950703E+03  0.11206881092E+04  0.12613860875E+03 0.  0.
         13    1    3    3    0    0  0.36385249341E+03 -0.69011784926E+03 -0.47704490682E+03  0.91445236395E+03  0.00000000000E+00 0.  1.
        -13    1    3    3    0    0  0.88677691033E+02 -0.17859715232E+03 -0.52654600213E+02  0.20623574527E+03  0.00000000000E+00 0. -1.
         22    1    1    2    0    0 -0.45253018444E+03  0.86871500158E+03  0.19930192429E+04  0.22207149805E+04  0.00000000000E+00 0.  1.
<mgrwt>
<rscale>  0 0.30039424E+04</rscale>
<asrwt>0</asrwt>
<pdfrwt beam="1">  1        1 0.14446795E+00 0.30039424E+04</pdfrwt>
<pdfrwt beam="2">  1       -1 0.36959406E+00 0.30039424E+04</pdfrwt>
<totfact> 0.16538708E-01</totfact>
</mgrwt>
</event>
<event>
 6    1  0.1588846E-005  0.3910594E+04  0.7818608E-02  0.8022830E-01
          2   -1    0    0  501    0  0.00000000000E+00  0.00000000000E+00  0.26649054529E+04  0.26649054529E+04  0.00000000000E+00 0. -1.
         -2   -1    0    0    0  501 -0.00000000000E+00 -0.00000000000E+00 -0.14346421811E+04  0.14346421811E+04  0.00000000000E+00 0.  1.
         23    2    1    2    0    0  0.28206570099E+03  0.19074899964E+04  0.94662944586E+03  0.21505665429E+04  0.10368221391E+03 0.  0.
         13    1    3    3    0    0  0.10185590318E+03  0.10032036978E+04  0.52097883201E+03  0.11349939329E+04  0.00000000000E+00 0.  1.
        -13    1    3    3    0    0  0.18020979781E+03  0.90428629861E+03  0.42565061385E+03  0.10155726100E+04  0.00000000000E+00 0. -1.
         22    1    1    2    0    0 -0.28206570099E+03 -0.19074899964E+04  0.28363382597E+03  0.19489810911E+04  0.00000000000E+00 0.  1.
<mgrwt>
<rscale>  0 0.39105937E+04</rscale>
<asrwt>0</asrwt>
<pdfrwt beam="1">  1        2 0.40998545E+00 0.39105937E+04</pdfrwt>
<pdfrwt beam="2">  1       -2 0.22071418E+00 0.39105937E+04</pdfrwt>
<totfact> 0.21651263E-01</totfact>
</mgrwt>
</event>
<event>
 6    1  0.1588846E-005  0.3460616E+04  0.7818608E-02  0.8123187E-01
         -1   -1    0    0    0  501 -0.00000000000E+00  0.00000000000E+00  0.41383433697E+04  0.41383433697E+04  0.00000000000E+00 0.  1.
          1   -1    0    0  501    0  0.00000000000E+00 -0.00000000000E+00 -0.72346954856E+03  0.72346954856E+03  0.00000000000E+00 0. -1.
         23    2    1    2    0    0  0.14726307208E+04  0.25483971892E+03  0.29303269477E+04  0.32907081495E+04  0.91430751520E+02 0.  0.
         11    1    3    3    0    0  0.35745785010E+03  0.33070964661E+02  0.64554559411E+03  0.73864667966E+03  0.00000000000E+00 0. -1.
        -11    1    3    3    0    0  0.11151728707E+04  0.22176875426E+03  0.22847813536E+04  0.25520614698E+04  0.00000000000E+00 0.  1.
         22    1    1    2    0    0 -0.14726307208E+04 -0.25483971892E+03  0.48454687346E+03  0.15711047688E+04  0.00000000000E+00 0. -1.
<mgrwt>
<rscale>  0 0.34606158E+04</rscale>
<asrwt>0</asrwt>
<pdfrwt beam="1">  1        1 0.11130301E+00 0.34606158E+04</pdfrwt>
<pdfrwt beam="2">  1       -1 0.63666820E+00 0.34606158E+04</pdfrwt>
<totfact> 0.68290018E-03</totfact>
</mgrwt>
</event>
<event>
 6    1  0.1588846E-005  0.2244056E+04  0.7818608E-02  0.8500312E-01
          2   -1    0    0  501    0  0.00000000000E+00  0.00000000000E+00  0.18747834515E+04  0.18747834515E+04  0.00000000000E+00 0. -1.
         -2   -1    0    0    0  501 -0.00000000000E+00 -0.00000000000E+00 -0.67151591669E+03  0.67151591669E+03  0.00000000000E+00 0.  1.
         23    2    1    2    0    0  0.65846955622E+03 -0.24399415482E+02  0.16305726920E+04  0.17609541032E+04  0.89524083457E+02 0.  0.
         13    1    3    3    0    0  0.49648884675E+03 -0.23340843141E-01  0.13106046403E+04  0.14014940951E+04  0.00000000000E+00 0.  1.
        -13    1    3    3    0    0  0.16198070946E+03 -0.24376074639E+02  0.31996805177E+03  0.35946000808E+03  0.00000000000E+00 0. -1.
         22    1    1    2    0    0 -0.65846955622E+03  0.24399415482E+02 -0.42730515720E+03  0.78534526504E+03  0.00000000000E+00 0.  1.
<mgrwt>
<rscale>  0 0.22440561E+04</rscale>
<asrwt>0</asrwt>
<pdfrwt beam="1">  1        2 0.28842822E+00 0.22440561E+04</pdfrwt>
<pdfrwt beam="2">  1       -2 0.10331014E+00 0.22440561E+04</pdfrwt>
<totfact> 0.54585092E+00</totfact>
</mgrwt>
</event>
<event>
 6    1  0.1588846E-005  0.3460178E+04  0.7818608E-02  0.8123293E-01
         -1   -1    0    0    0  501 -0.00000000000E+00  0.00000000000E+00  0.12545580374E+04  0.12545580374E+04  0.00000000000E+00 0.  1.
          1   -1    0    0  501    0  0.00000000000E+00 -0.00000000000E+00 -0.23858667090E+04  0.23858667090E+04  0.00000000000E+00 0. -1.
         23    2    1    2    0    0 -0.62816916534E+03  0.14442475458E+04 -0.13167154075E+04  0.20546053583E+04  0.84948454104E+02 0.  0.
         11    1    3    3    0    0 -0.22839347392E+03  0.61955619872E+03 -0.52753658038E+03  0.84516762002E+03  0.00000000000E+00 0.  1.
        -11    1    3    3    0    0 -0.39977569142E+03  0.82469134712E+03 -0.78917882715E+03  0.12094377382E+04  0.00000000000E+00 0. -1.
         22    1    1    2    0    0  0.62816916534E+03 -0.14442475458E+04  0.18540673594E+03  0.15858193881E+04  0.00000000000E+00 0.  1.
<mgrwt>
<rscale>  0 0.34601782E+04</rscale>
<asrwt>0</asrwt>
<pdfrwt beam="1">  1        1 0.36705642E+00 0.34601782E+04</pdfrwt>
<pdfrwt beam="2">  1       -1 0.19300893E+00 0.34601782E+04</pdfrwt>
<totfact> 0.22384016E-01</totfact>
</mgrwt>
</event>
<event>
 6    1  0.1588846E-005  0.1630283E+04  0.7818608E-02  0.8802157E-01
         -2   -1    0    0    0  501 -0.00000000000E+00  0.00000000000E+00  0.59909038476E+03  0.59909038476E+03  0.00000000000E+00 0.  1.
          2   -1    0    0  501    0  0.00000000000E+00 -0.00000000000E+00 -0.11091075308E+04  0.11091075308E+04  0.00000000000E+00 0. -1.
         23    2    1    2    0    0 -0.19350300970E+03  0.46862200141E+03 -0.92143881388E+03  0.10552677634E+04  0.86548077198E+02 0.  0.
         13    1    3    3    0    0 -0.14594066402E+03  0.40864313683E+03 -0.82486700884E+03  0.93203727016E+03  0.00000000000E+00 0. -1.
        -13    1    3    3    0    0 -0.47562345674E+02  0.59978864587E+02 -0.96571805038E+02  0.12323049319E+03  0.00000000000E+00 0.  1.
         22    1    1    2    0    0  0.19350300970E+03 -0.46862200141E+03  0.41142166781E+03  0.65293015224E+03  0.00000000000E+00 0.  1.
<mgrwt>
<rscale>  0 0.16302830E+04</rscale>
<asrwt>0</asrwt>
<pdfrwt beam="1">  1        2 0.17063193E+00 0.16302830E+04</pdfrwt>
<pdfrwt beam="2">  1       -2 0.92167751E-01 0.16302830E+04</pdfrwt>
<totfact> 0.20581711E+01</totfact>
</mgrwt>
</event>
<event>
 6    1  0.1630956E-005  0.3043679E+04  0.7818608E-02  0.8231367E-01
         -2   -1    0    0    0  501 -0.00000000000E+00  0.00000000000E+00  0.17120989951E+04  0.17120989951E+04  0.00000000000E+00 0.  1.
          2   -1    0    0  501    0  0.00000000000E+00 -0.00000000000E+00 -0.13527232032E+04  0.13527232032E+04  0.00000000000E+00 0. -1.
         23    2    1    2    0    0 -0.28257030582E+03 -0.14742908759E+04  0.42308027664E+03  0.15623449686E+04  0.92440877637E+02 0.  0.
         13    1    3    3    0    0 -0.17860394977E+03 -0.10837128298E+04  0.33960268560E+03  0.11496359651E+04  0.00000000000E+00 0. -1.
        -13    1    3    3    0    0 -0.10396635605E+03 -0.39057804617E+03  0.83477591043E+02  0.41270900347E+03  0.00000000000E+00 0.  1.
         22    1    1    2    0    0  0.28257030582E+03  0.14742908759E+04 -0.63704484757E+02  0.15024772298E+04  0.00000000000E+00 0. -1.
<mgrwt>
<rscale>  0 0.30436794E+04</rscale>
<asrwt>0</asrwt>
<pdfrwt beam="1">  1        2 0.20811126E+00 0.30436794E+04</pdfrwt>
<pdfrwt beam="2">  1       -2 0.26339984E+00 0.30436794E+04</pdfrwt>
<totfact> 0.69886729E-01</totfact>
</mgrwt>
</event>
<event>
 6    1  0.1588846E-005  0.2830031E+04  0.7818608E-02  0.8294005E-01
         -2   -1    0    0    0  501 -0.00000000000E+00  0.00000000000E+00  0.17098858642E+04  0.17098858642E+04  0.00000000000E+00 0. -1.
          2   -1    0    0  501    0  0.00000000000E+00 -0.00000000000E+00 -0.11709954349E+04  0.11709954349E+04  0.00000000000E+00 0.  1.
         23    2    1    2    0    0 -0.14043638189E+04 -0.15012910148E+03  0.32745021579E+03  0.14527764546E+04  0.92516486000E+02 0.  0.
         13    1    3    3    0    0 -0.89840108123E+03 -0.51366826205E+02  0.21111466659E+03  0.92430106352E+03  0.00000000000E+00 0. -1.
        -13    1    3    3    0    0 -0.50596273771E+03 -0.98762275279E+02  0.11633554920E+03  0.52847539108E+03  0.00000000000E+00 0.  1.
         22    1    1    2    0    0  0.14043638189E+04  0.15012910148E+03  0.21144021352E+03  0.14281048445E+04  0.00000000000E+00 0.  1.
<mgrwt>
<rscale>  0 0.28300308E+04</rscale>
<asrwt>0</asrwt>
<pdfrwt beam="1">  1        2 0.18015314E+00 0.28300308E+04</pdfrwt>
<pdfrwt beam="2">  1       -2 0.26305936E+00 0.28300308E+04</pdfrwt>
<totfact> 0.91457020E-01</totfact>
</mgrwt>
</event>
<event>
 6    1  0.1588846E-005  0.2372936E+04  0.7818608E-02  0.8449706E-01
          2   -1    0    0  501    0  0.00000000000E+00  0.00000000000E+00  0.68193331430E+03  0.68193331430E+03  0.00000000000E+00 0. -1.
         -2   -1    0    0    0  501 -0.00000000000E+00 -0.00000000000E+00 -0.20642880055E+04  0.20642880055E+04  0.00000000000E+00 0.  1.
         23    2    1    2    0    0  0.41866176341E+03 -0.99113697440E+03 -0.12660532770E+04  0.16640216186E+04  0.91906870560E+02 0.  0.
         13    1    3    3    0    0  0.17633090979E+03 -0.34854089555E+03 -0.51393065758E+03  0.64552154606E+03  0.00000000000E+00 0. -1.
        -13    1    3    3    0    0  0.24233085361E+03 -0.64259607885E+03 -0.75212261946E+03  0.10185000726E+04  0.00000000000E+00 0.  1.
         22    1    1    2    0    0 -0.41866176341E+03  0.99113697440E+03 -0.11630141413E+03  0.10821997011E+04  0.00000000000E+00 0. -1.
<mgrwt>
<rscale>  0 0.23729364E+04</rscale>
<asrwt>0</asrwt>
<pdfrwt beam="1">  1        2 0.10491282E+00 0.23729364E+04</pdfrwt>
<pdfrwt beam="2">  1       -2 0.31758277E+00 0.23729364E+04</pdfrwt>
<totfact> 0.94629514E-01</totfact>
</mgrwt>
</event>
<event>
 6    1  0.1588846E-005  0.2191475E+04  0.7818608E-02  0.8521985E-01
          2   -1    0    0  501    0  0.00000000000E+00  0.00000000000E+00  0.26943864951E+04  0.26943864951E+04  0.00000000000E+00 0. -1.
         -2   -1    0    0    0  501 -0.00000000000E+00 -0.00000000000E+00 -0.44560835734E+03  0.44560835734E+03  0.00000000000E+00 0.  1.
         23    2    1    2    0    0  0.11029546955E+02  0.67197787897E+03  0.23631221758E+04  0.24582687492E+04  0.84041090090E+02 0.  0.
         11    1    3    3    0    0  0.45811045717E+02  0.44974681071E+03  0.16116460118E+04  0.16738499672E+04  0.00000000000E+00 0.  1.
        -11    1    3    3    0    0 -0.34781498762E+02  0.22223106825E+03  0.75147616408E+03  0.78441878198E+03  0.00000000000E+00 0. -1.
         22    1    1    2    0    0 -0.11029546955E+02 -0.67197787897E+03 -0.11434403809E+03  0.68172610319E+03  0.00000000000E+00 0.  1.
<mgrwt>
<rscale>  0 0.21914754E+04</rscale>
<asrwt>0</asrwt>
<pdfrwt beam="1">  1        2 0.41452099E+00 0.21914754E+04</pdfrwt>
<pdfrwt beam="2">  1       -2 0.68555134E-01 0.21914754E+04</pdfrwt>
<totfact> 0.47640749E+00</totfact>
</mgrwt>
</event>
<event>
 6    1  0.1588846E-005  0.1087941E+04  0.7818608E-02  0.9217025E-01
         -2   -1    0    0    0  501 -0.00000000000E+00  0.00000000000E+00  0.22336334345E+03  0.22336334345E+03  0.00000000000E+00 0.  1.
          2   -1    0    0  501    0  0.00000000000E+00 -0.00000000000E+00 -0.13247660544E+04  0.13247660544E+04  0.00000000000E+00 0. -1.
         23    2    1    2    0    0  0.64941021400E+02  0.43407684592E+03 -0.10025545497E+04  0.10982282938E+04  0.91376779175E+02 0.  0.
         13    1    3    3    0    0  0.17966473024E+02  0.22402469502E+03 -0.40634188350E+03  0.46435286627E+03  0.00000000000E+00 0.  1.
        -13    1    3    3    0    0  0.46974548376E+02  0.21005215090E+03 -0.59621266621E+03  0.63387542754E+03  0.00000000000E+00 0. -1.
         22    1    1    2    0    0 -0.64941021400E+02 -0.43407684592E+03 -0.98848161228E+02  0.44990110403E+03  0.00000000000E+00 0.  1.
<mgrwt>
<rscale>  0 0.10879415E+04</rscale>
<asrwt>0</asrwt>
<pdfrwt beam="1">  1        2 0.20381015E+00 0.10879415E+04</pdfrwt>
<pdfrwt beam="2">  1       -2 0.34363593E-01 0.10879415E+04</pdfrwt>
<totfact> 0.12594039E+02</totfact>
</mgrwt>
</event>
<event>
 6    1  0.1588846E-005  0.9444898E+03  0.7818608E-02  0.9371614E-01
          2   -1    0    0  501    0  0.00000000000E+00  0.00000000000E+00  0.19611813012E+04  0.19611813012E+04  0.00000000000E+00 0. -1.
         -2   -1    0    0    0  501 -0.00000000000E+00 -0.00000000000E+00 -0.11371475261E+03  0.11371475261E+03  0.00000000000E+00 0.  1.
         23    2    1    2    0    0 -0.37718796512E+03 -0.23101145046E+03  0.59868217678E+03  0.75009438618E+03  0.92650893711E+02 0.  0.
         13    1    3    3    0    0 -0.45727164045E+02 -0.29189814266E+02  0.13471324956E+03  0.14522630063E+03  0.00000000000E+00 0.  1.
        -13    1    3    3    0    0 -0.33146080107E+03 -0.20182163619E+03  0.46396892723E+03  0.60486808555E+03  0.00000000000E+00 0. -1.
         22    1    1    2    0    0  0.37718796512E+03  0.23101145046E+03  0.12487843718E+04  0.13248016677E+04  0.00000000000E+00 0. -1.
<mgrwt>
<rscale>  0 0.94448980E+03</rscale>
<asrwt>0</asrwt>
<pdfrwt beam="1">  1        2 0.30172017E+00 0.94448980E+03</pdfrwt>
<pdfrwt beam="2">  1       -2 0.17494579E-01 0.94448980E+03</pdfrwt>
<totfact> 0.19057140E+02</totfact>
</mgrwt>
</event>
<event>
 6    1  0.1588846E-005  0.3633472E+04  0.7818608E-02  0.8082867E-01
         -1   -1    0    0    0  501 -0.00000000000E+00  0.00000000000E+00  0.12832539537E+04  0.12832539537E+04  0.00000000000E+00 0.  1.
          1   -1    0    0  501    0  0.00000000000E+00 -0.00000000000E+00 -0.25720000988E+04  0.25720000988E+04  0.00000000000E+00 0. -1.
         23    2    1    2    0    0 -0.15390807887E+02  0.11606183265E+04 -0.21261265930E+04  0.24240036232E+04  0.90041650082E+02 0.  0.
         11    1    3    3    0    0 -0.35019972434E+02  0.49214453589E+03 -0.83202016126E+03  0.96731080394E+03  0.00000000000E+00 0. -1.
        -11    1    3    3    0    0  0.19629164548E+02  0.66847379065E+03 -0.12941064318E+04  0.14566928193E+04  0.00000000000E+00 0.  1.
         22    1    1    2    0    0  0.15390807887E+02 -0.11606183265E+04  0.83738044787E+03  0.14312504293E+04  0.00000000000E+00 0.  1.
<mgrwt>
<rscale>  0 0.36334718E+04</rscale>
<asrwt>0</asrwt>
<pdfrwt beam="1">  1        1 0.39569231E+00 0.36334718E+04</pdfrwt>
<pdfrwt beam="2">  1       -1 0.19742369E+00 0.36334718E+04</pdfrwt>
<totfact> 0.15268437E-01</totfact>
</mgrwt>
</event>
<event>
 6    1  0.1588846E-005  0.3142032E+03  0.7818608E-02  0.1078349E+00
          1   -1    0    0  501    0  0.00000000000E+00  0.00000000000E+00  0.45459717351E+02  0.45459717351E+02  0.00000000000E+00 0. -1.
         -1   -1    0    0    0  501 -0.00000000000E+00 -0.00000000000E+00 -0.54291826436E+03  0.54291826436E+03  0.00000000000E+00 0.  1.
         23    2    1    2    0    0  0.29173875996E+02  0.46072541232E+01 -0.53336625552E+03  0.54188383841E+03  0.91028511877E+02 0.  0.
         11    1    3    3    0    0  0.39571807173E+02 -0.36151172338E+02 -0.30634809937E+03  0.31100159673E+03  0.00000000000E+00 0.  1.
        -11    1    3    3    0    0 -0.10397931177E+02  0.40758426461E+02 -0.22701815615E+03  0.23088224168E+03  0.00000000000E+00 0. -1.
         22    1    1    2    0    0 -0.29173875996E+02 -0.46072541232E+01  0.35907708506E+02  0.46494143302E+02  0.00000000000E+00 0. -1.
<mgrwt>
<rscale>  0 0.31420319E+03</rscale>
<asrwt>0</asrwt>
<pdfrwt beam="1">  1        1 0.69938027E-02 0.31420319E+03</pdfrwt>
<pdfrwt beam="2">  1       -1 0.83525887E-01 0.31420319E+03</pdfrwt>
<totfact> 0.15611735E+03</totfact>
</mgrwt>
</event>
<event>
 6    1  0.1588846E-005  0.4003174E+04  0.7818608E-02  0.8003907E-01
          2   -1    0    0  501    0  0.00000000000E+00  0.00000000000E+00  0.15396940424E+04  0.15396940424E+04  0.00000000000E+00 0. -1.
         -2   -1    0    0    0  501 -0.00000000000E+00 -0.00000000000E+00 -0.26020428916E+04  0.26020428916E+04  0.00000000000E+00 0.  1.
         23    2    1    2    0    0 -0.13922200752E+04  0.52594652181E+03  0.85170790519E+03  0.17171731091E+04  0.91545885837E+02 0.  0.
         13    1    3    3    0    0 -0.41712265429E+03  0.15026977870E+03  0.20676526271E+03  0.48920771557E+03  0.00000000000E+00 0.  1.
        -13    1    3    3    0    0 -0.97509742094E+03  0.37567674310E+03  0.64494264248E+03  0.12279653935E+04  0.00000000000E+00 0. -1.
         22    1    1    2    0    0  0.13922200752E+04 -0.52594652181E+03 -0.19140567544E+04  0.24245638249E+04  0.00000000000E+00 0.  1.
<mgrwt>
<rscale>  0 0.40031737E+04</rscale>
<asrwt>0</asrwt>
<pdfrwt beam="1">  1        2 0.23687601E+00 0.40031737E+04</pdfrwt>
<pdfrwt beam="2">  1       -2 0.40031429E+00 0.40031737E+04</pdfrwt>
<totfact> 0.70207651E-02</totfact>
</mgrwt>
</event>
<event>
 6    1  0.1588846E-005  0.2125403E+04  0.7818608E-02  0.8550135E-01
         -1   -1    0    0    0  501 -0.00000000000E+00  0.00000000000E+00  0.43064227341E+03  0.43064227341E+03  0.00000000000E+00 0.  1.
          1   -1    0    0  501    0  0.00000000000E+00 -0.00000000000E+00 -0.26224429659E+04  0.26224429659E+04  0.00000000000E+00 0. -1.
         23    2    1    2    0    0 -0.53543567970E+03 -0.88843678182E+03 -0.77943263678E+03  0.13007168970E+04  0.91312258010E+02 0.  0.
         13    1    3    3    0    0 -0.15370603614E+03 -0.33965843070E+03 -0.27566408226E+03  0.46366375892E+03  0.00000000000E+00 0. -1.
        -13    1    3    3    0    0 -0.38172964356E+03 -0.54877835112E+03 -0.50376855452E+03  0.83705313807E+03  0.00000000000E+00 0.  1.
         22    1    1    2    0    0  0.53543567970E+03  0.88843678182E+03 -0.14123680557E+04  0.17523683423E+04  0.00000000000E+00 0.  1.
<mgrwt>
<rscale>  0 0.21254033E+04</rscale>
<asrwt>0</asrwt>
<pdfrwt beam="1">  1        1 0.40345276E+00 0.21254033E+04</pdfrwt>
<pdfrwt beam="2">  1       -1 0.66252659E-01 0.21254033E+04</pdfrwt>
<totfact> 0.23584924E+00</totfact>
</mgrwt>
</event>
<event>
 6    1  0.1588846E-005  0.9547479E+03  0.7818608E-02  0.9359618E-01
          2   -1    0    0  501    0  0.00000000000E+00  0.00000000000E+00  0.18896961157E+04  0.18896961157E+04  0.00000000000E+00 0. -1.
         -2   -1    0    0    0  501 -0.00000000000E+00 -0.00000000000E+00 -0.12059394378E+03  0.12059394378E+03  0.00000000000E+00 0.  1.
         23    2    1    2    0    0 -0.33514034331E+03  0.16983953761E+03  0.14997483711E+04  0.15479957936E+04  0.76689518152E+02 0.  0.
         11    1    3    3    0    0 -0.48538168751E+02  0.20141095485E+02  0.33915941957E+03  0.34320654050E+03  0.00000000000E+00 0. -1.
        -11    1    3    3    0    0 -0.28660217456E+03  0.14969844213E+03  0.11605889515E+04  0.12047892531E+04  0.00000000000E+00 0.  1.
         22    1    1    2    0    0  0.33514034331E+03 -0.16983953761E+03  0.26935380088E+03  0.46229426592E+03  0.00000000000E+00 0.  1.
<mgrwt>
<rscale>  0 0.95474794E+03</rscale>
<asrwt>0</asrwt>
<pdfrwt beam="1">  1        2 0.29072246E+00 0.95474794E+03</pdfrwt>
<pdfrwt beam="2">  1       -2 0.18552916E-01 0.95474794E+03</pdfrwt>
<totfact> 0.18827125E+02</totfact>
</mgrwt>
</event>
<event>
 6    1  0.1588846E-005  0.2429537E+04  0.7818608E-02  0.8428527E-01
         -1   -1    0    0    0  501 -0.00000000000E+00  0.00000000000E+00  0.13386845455E+04  0.13386845455E+04  0.00000000000E+00 0.  1.
          1   -1    0    0  501    0  0.00000000000E+00 -0.00000000000E+00 -0.11023227310E+04  0.11023227310E+04  0.00000000000E+00 0. -1.
         23    2    1    2    0    0 -0.17594703350E+03  0.41753711854E+03  0.12488821938E+04  0.13317317822E+04  0.92239913289E+02 0.  0.
         11    1    3    3    0    0 -0.82040508491E+02  0.10051397327E+03  0.41009823339E+03  0.43013284562E+03  0.00000000000E+00 0. -1.
        -11    1    3    3    0    0 -0.93906525005E+02  0.31702314527E+03  0.83878396045E+03  0.90159893655E+03  0.00000000000E+00 0.  1.
         22    1    1    2    0    0  0.17594703350E+03 -0.41753711854E+03 -0.10125203793E+04  0.11092754944E+04  0.00000000000E+00 0. -1.
<mgrwt>
<rscale>  0 0.24295369E+04</rscale>
<asrwt>0</asrwt>
<pdfrwt beam="1">  1        1 0.16958811E+00 0.24295369E+04</pdfrwt>
<pdfrwt beam="2">  1       -1 0.20595147E+00 0.24295369E+04</pdfrwt>
<totfact> 0.15461625E+00</totfact>
</mgrwt>
</event>
<event>
 6    1  0.1588846E-005  0.3624012E+04  0.7818608E-02  0.8085014E-01
          1   -1    0    0  501    0  0.00000000000E+00  0.00000000000E+00  0.26086517366E+04  0.26086517366E+04  0.00000000000E+00 0. -1.
         -1   -1    0    0    0  501 -0.00000000000E+00 -0.00000000000E+00 -0.12586445235E+04  0.12586445235E+04  0.00000000000E+00 0.  1.
         23    2    1    2    0    0  0.14648454831E+03 -0.17698444654E+04  0.29714288657E+03  0.18027550411E+04  0.88457270460E+02 0.  0.
         13    1    3    3    0    0  0.80237752087E+02 -0.11323461779E+04  0.14896036935E+03  0.11449170953E+04  0.00000000000E+00 0. -1.
        -13    1    3    3    0    0  0.66246796225E+02 -0.63749828748E+03  0.14818251722E+03  0.65783794582E+03  0.00000000000E+00 0.  1.
         22    1    1    2    0    0 -0.14648454831E+03  0.17698444654E+04  0.10528643266E+04  0.20645412190E+04  0.00000000000E+00 0.  1.
<mgrwt>
<rscale>  0 0.36240117E+04</rscale>
<asrwt>0</asrwt>
<pdfrwt beam="1">  1        1 0.40133104E+00 0.36240117E+04</pdfrwt>
<pdfrwt beam="2">  1       -1 0.19363762E+00 0.36240117E+04</pdfrwt>
<totfact> 0.15305631E-01</totfact>
</mgrwt>
</event>
<event>
 6    1  0.1588846E-005  0.4418072E+04  0.7818608E-02  0.7925139E-01
          2   -1    0    0  501    0  0.00000000000E+00  0.00000000000E+00  0.32455764324E+04  0.32455764324E+04  0.00000000000E+00 0. -1.
         -2   -1    0    0    0  501 -0.00000000000E+00 -0.00000000000E+00 -0.15035360217E+04  0.15035360217E+04  0.00000000000E+00 0.  1.
         23    2    1    2    0    0 -0.98826208012E+03  0.61766988310E+03 -0.11447144593E+04  0.16359899537E+04  0.88960170276E+02 0.  0.
         13    1    3    3    0    0 -0.36649140403E+03  0.19415619411E+03 -0.36445727240E+03  0.55212469637E+03  0.00000000000E+00 0. -1.
        -13    1    3    3    0    0 -0.62177067609E+03  0.42351368899E+03 -0.78025718687E+03  0.10838652573E+04  0.00000000000E+00 0.  1.
         22    1    1    2    0    0  0.98826208012E+03 -0.61766988310E+03  0.28867548700E+04  0.31131225005E+04  0.00000000000E+00 0. -1.
<mgrwt>
<rscale>  0 0.44180725E+04</rscale>
<asrwt>0</asrwt>
<pdfrwt beam="1">  1        2 0.49931945E+00 0.44180725E+04</pdfrwt>
<pdfrwt beam="2">  1       -2 0.23131324E+00 0.44180725E+04</pdfrwt>
<totfact> 0.77371582E-02</totfact>
</mgrwt>
</event>
<event>
 6    1  0.1588846E-005  0.1386425E+04  0.7818608E-02  0.8963704E-01
          1   -1    0    0  501    0  0.00000000000E+00  0.00000000000E+00  0.88276308766E+03  0.88276308766E+03  0.00000000000E+00 0. -1.
         -1   -1    0    0    0  501 -0.00000000000E+00 -0.00000000000E+00 -0.54436321736E+03  0.54436321736E+03  0.00000000000E+00 0.  1.
         23    2    1    2    0    0 -0.18751196594E+03 -0.17461540319E+03  0.82946730663E+03  0.87323235901E+03  0.94167211136E+02 0.  0.
         11    1    3    3    0    0 -0.24746613595E+02  0.99913752582E+01  0.72166534543E+02  0.76943038489E+02  0.00000000000E+00 0. -1.
        -11    1    3    3    0    0 -0.16276535234E+03 -0.18460677845E+03  0.75730077209E+03  0.79628932052E+03  0.00000000000E+00 0.  1.
         22    1    1    2    0    0  0.18751196594E+03  0.17461540319E+03 -0.49106743632E+03  0.55389394600E+03  0.00000000000E+00 0.  1.
<mgrwt>
<rscale>  0 0.13864253E+04</rscale>
<asrwt>0</asrwt>
<pdfrwt beam="1">  1        1 0.13580971E+00 0.13864253E+04</pdfrwt>
<pdfrwt beam="2">  1       -1 0.83748187E-01 0.13864253E+04</pdfrwt>
<totfact> 0.25956659E+01</totfact>
</mgrwt>
</event>
<event>
 6    1  0.1588846E-005  0.4008712E+04  0.7818608E-02  0.8002791E-01
          1   -1    0    0  501    0  0.00000000000E+00  0.00000000000E+00  0.47890789060E+04  0.47890789060E+04  0.00000000000E+00 0. -1.
         -1   -1    0    0    0  501 -0.00000000000E+00 -0.00000000000E+00 -0.83887602840E+03  0.83887602840E+03  0.00000000000E+00 0.  1.
         23    2    1    2    0    0 -0.12171971334E+04  0.15594394410E+04  0.24197873532E+04  0.31268368026E+04  0.91199361989E+02 0.  0.
         13    1    3    3    0    0 -0.93594209319E+03  0.11673844838E+04  0.17751318363E+04  0.23216087463E+04  0.00000000000E+00 0. -1.
        -13    1    3    3    0    0 -0.28125504023E+03  0.39205495720E+03  0.64465551693E+03  0.80522805628E+03  0.00000000000E+00 0.  1.
         22    1    1    2    0    0  0.12171971334E+04 -0.15594394410E+04  0.15304155244E+04  0.25011181318E+04  0.00000000000E+00 0.  1.
<mgrwt>
<rscale>  0 0.40087123E+04</rscale>
<asrwt>0</asrwt>
<pdfrwt beam="1">  1        1 0.73678136E+00 0.40087123E+04</pdfrwt>
<pdfrwt beam="2">  1       -1 0.12905785E+00 0.40087123E+04</pdfrwt>
<totfact> 0.62539767E-03</totfact>
</mgrwt>
</event>
<event>
 6    1  0.1588846E-005  0.2453072E+04  0.7818608E-02  0.8419897E-01
          3   -1    0    0  501    0  0.00000000000E+00  0.00000000000E+00  0.70144186958E+03  0.70144186958E+03  0.00000000000E+00 0. -1.
         -3   -1    0    0    0  501 -0.00000000000E+00 -0.00000000000E+00 -0.21447123559E+04  0.21447123559E+04  0.00000000000E+00 0.  1.
         23    2    1    2    0    0 -0.11151979269E+04  0.50336564134E+03 -0.78696197261E+03  0.14577075213E+04  0.92513168120E+02 0.  0.
         13    1    3    3    0    0 -0.86404156340E+02  0.33493715634E+02 -0.32756863400E+02  0.98287940865E+02  0.00000000000E+00 0. -1.
        -13    1    3    3    0    0 -0.10287937706E+04  0.46987192571E+03 -0.75420510921E+03  0.13594195805E+04  0.00000000000E+00 0.  1.
         22    1    1    2    0    0  0.11151979269E+04 -0.50336564134E+03 -0.65630851371E+03  0.13884467042E+04  0.00000000000E+00 0. -1.
<mgrwt>
<rscale>  0 0.24530724E+04</rscale>
<asrwt>0</asrwt>
<pdfrwt beam="1">  1        3 0.10791413E+00 0.24530724E+04</pdfrwt>
<pdfrwt beam="2">  1       -3 0.32995574E+00 0.24530724E+04</pdfrwt>
<totfact> 0.44105457E-02</totfact>
</mgrwt>
</event>
<event>
 6    1  0.1588846E-005  0.4073947E+04  0.7818608E-02  0.7989793E-01
         -2   -1    0    0    0  501 -0.00000000000E+00  0.00000000000E+00  0.14183640269E+04  0.14183640269E+04  0.00000000000E+00 0.  1.
          2   -1    0    0  501    0  0.00000000000E+00 -0.00000000000E+00 -0.29253848356E+04  0.29253848356E+04  0.00000000000E+00 0. -1.
         23    2    1    2    0    0  0.13727103629E+03 -0.13252958455E+04 -0.23954845581E+04  0.27423056853E+04  0.81497166934E+02 0.  0.
         13    1    3    3    0    0  0.77621681802E+02 -0.39100887814E+03 -0.72606490065E+03  0.82830145975E+03  0.00000000000E+00 0.  1.
        -13    1    3    3    0    0  0.59649354483E+02 -0.93428696737E+03 -0.16694196574E+04  0.19140042256E+04  0.00000000000E+00 0. -1.
         22    1    1    2    0    0 -0.13727103629E+03  0.13252958455E+04  0.88846374949E+03  0.16014431772E+04  0.00000000000E+00 0.  1.
<mgrwt>
<rscale>  0 0.40739468E+04</rscale>
<asrwt>0</asrwt>
<pdfrwt beam="1">  1        2 0.45005920E+00 0.40739468E+04</pdfrwt>
<pdfrwt beam="2">  1       -2 0.21820985E+00 0.40739468E+04</pdfrwt>
<totfact> 0.15410782E-01</totfact>
</mgrwt>
</event>
<event>
 6    1  0.1588846E-005  0.2998630E+04  0.7818608E-02  0.8244122E-01
          2   -1    0    0  501    0  0.00000000000E+00  0.00000000000E+00  0.89472883720E+03  0.89472883720E+03  0.00000000000E+00 0. -1.
         -2   -1    0    0    0  501 -0.00000000000E+00 -0.00000000000E+00 -0.25124318798E+04  0.25124318798E+04  0.00000000000E+00 0.  1.
         23    2    1    2    0    0 -0.12040152859E+04  0.82737921948E+03 -0.43342340284E+03  0.15265418171E+04  0.90911450795E+02 0.  0.
         11    1    3    3    0    0 -0.40583761893E+03  0.25850820088E+03 -0.10197651755E+03  0.49186367318E+03  0.00000000000E+00 0.  1.
        -11    1    3    3    0    0 -0.79817766694E+03  0.56887101860E+03 -0.33144688529E+03  0.10346781439E+04  0.00000000000E+00 0. -1.
         22    1    1    2    0    0  0.12040152859E+04 -0.82737921948E+03 -0.11842796398E+04  0.18806188999E+04  0.00000000000E+00 0. -1.
<mgrwt>
<rscale>  0 0.29986299E+04</rscale>
<asrwt>0</asrwt>
<pdfrwt beam="1">  1        2 0.13765059E+00 0.29986299E+04</pdfrwt>
<pdfrwt beam="2">  1       -2 0.38652798E+00 0.29986299E+04</pdfrwt>
<totfact> 0.22980067E-01</totfact>
</mgrwt>
</event>
<event>
 6    1  0.1588846E-005  0.1949547E+04  0.7818608E-02  0.8630579E-01
         -2   -1    0    0    0  501 -0.00000000000E+00  0.00000000000E+00  0.90731688369E+03  0.90731688369E+03  0.00000000000E+00 0.  1.
          2   -1    0    0  501    0  0.00000000000E+00 -0.00000000000E+00 -0.10472458283E+04  0.10472458283E+04  0.00000000000E+00 0. -1.
         23    2    1    2    0    0 -0.71233720180E+03 -0.34128853703E+03  0.49790041107E+03  0.93931474154E+03  0.10249492550E+03 0.  0.
         11    1    3    3    0    0 -0.34002951430E+03 -0.17497826391E+03  0.18206139529E+03  0.42353726529E+03  0.00000000000E+00 0. -1.
        -11    1    3    3    0    0 -0.37230768750E+03 -0.16631027313E+03  0.31583901578E+03  0.51577747625E+03  0.00000000000E+00 0.  1.
         22    1    1    2    0    0  0.71233720180E+03  0.34128853703E+03 -0.63782935573E+03  0.10152479705E+04  0.00000000000E+00 0.  1.
<mgrwt>
<rscale>  0 0.19495475E+04</rscale>
<asrwt>0</asrwt>
<pdfrwt beam="1">  1        2 0.16111474E+00 0.19495475E+04</pdfrwt>
<pdfrwt beam="2">  1       -2 0.13958721E+00 0.19495475E+04</pdfrwt>
<totfact> 0.79348509E+00</totfact>
</mgrwt>
</event>
<event>
 6    1  0.1588846E-005  0.8069775E+03  0.7818608E-02  0.9549972E-01
         -1   -1    0    0    0  501 -0.00000000000E+00  0.00000000000E+00  0.40035144968E+03  0.40035144968E+03  0.00000000000E+00 0.  1.
          1   -1    0    0  501    0  0.00000000000E+00 -0.00000000000E+00 -0.40665064286E+03  0.40665064286E+03  0.00000000000E+00 0. -1.
         23    2    1    2    0    0  0.35656385489E+03 -0.74802516740E+02 -0.16816797446E+03  0.40833593962E+03  0.75660906849E+02 0.  0.
         11    1    3    3    0    0  0.12527820859E+03 -0.62220291209E+01 -0.91314993311E+02  0.15515080147E+03  0.00000000000E+00 0. -1.
        -11    1    3    3    0    0  0.23128564631E+03 -0.68580487619E+02 -0.76852981149E+02  0.25318513815E+03  0.00000000000E+00 0.  1.
         22    1    1    2    0    0 -0.35656385489E+03  0.74802516740E+02  0.16186878128E+03  0.39866615291E+03  0.00000000000E+00 0. -1.
<mgrwt>
<rscale>  0 0.80697751E+03</rscale>
<asrwt>0</asrwt>
<pdfrwt beam="1">  1        1 0.62561637E-01 0.80697751E+03</pdfrwt>
<pdfrwt beam="2">  1       -1 0.61592531E-01 0.80697751E+03</pdfrwt>
<totfact> 0.15878125E+02</totfact>
</mgrwt>
</event>
<event>
 6    1  0.1588846E-005  0.1562297E+04  0.7818608E-02  0.8844051E-01
          2   -1    0    0  501    0  0.00000000000E+00  0.00000000000E+00  0.43953011842E+04  0.43953011842E+04  0.00000000000E+00 0. -1.
         -2   -1    0    0    0  501 -0.00000000000E+00 -0.00000000000E+00 -0.13882853336E+03  0.13882853336E+03  0.00000000000E+00 0.  1.
         23    2    1    2    0    0  0.56466733847E+03  0.38389988104E+03  0.32206338152E+04  0.32934885868E+04  0.91414322509E+02 0.  0.
         11    1    3    3    0    0  0.26248730940E+03  0.14070564298E+03  0.12437619902E+04  0.12789220280E+04  0.00000000000E+00 0. -1.
        -11    1    3    3    0    0  0.30218002907E+03  0.24319423805E+03  0.19768718250E+04  0.20145665588E+04  0.00000000000E+00 0.  1.
         22    1    1    2    0    0 -0.56466733847E+03 -0.38389988104E+03  0.10358388357E+04  0.12406411308E+04  0.00000000000E+00 0.  1.
<mgrwt>
<rscale>  0 0.15622973E+04</rscale>
<asrwt>0</asrwt>
<pdfrwt beam="1">  1        2 0.67620008E+00 0.15622973E+04</pdfrwt>
<pdfrwt beam="2">  1       -2 0.21358239E-01 0.15622973E+04</pdfrwt>
<totfact> 0.29238002E+00</totfact>
</mgrwt>
</event>
<event>
 6    1  0.1588846E-005  0.3331500E+04  0.7818608E-02  0.8154926E-01
         -2   -1    0    0    0  501 -0.00000000000E+00  0.00000000000E+00  0.26918884801E+04  0.26918884801E+04  0.00000000000E+00 0.  1.
          2   -1    0    0  501    0  0.00000000000E+00 -0.00000000000E+00 -0.10307720259E+04  0.10307720259E+04  0.00000000000E+00 0. -1.
         23    2    1    2    0    0 -0.44479221508E+03 -0.91643396036E+03  0.23020170423E+04  0.25191469489E+04  0.95538310896E+02 0.  0.
         13    1    3    3    0    0 -0.29696515520E+03 -0.51355045216E+03  0.12874450172E+04  0.14175461342E+04  0.00000000000E+00 0. -1.
        -13    1    3    3    0    0 -0.14782705988E+03 -0.40288350819E+03  0.10145720251E+04  0.11016008147E+04  0.00000000000E+00 0.  1.
         22    1    1    2    0    0  0.44479221508E+03  0.91643396036E+03 -0.64090058807E+03  0.12035135571E+04  0.00000000000E+00 0. -1.
<mgrwt>
<rscale>  0 0.33315002E+04</rscale>
<asrwt>0</asrwt>
<pdfrwt beam="1">  1        2 0.15858031E+00 0.33315002E+04</pdfrwt>
<pdfrwt beam="2">  1       -2 0.41413669E+00 0.33315002E+04</pdfrwt>
<totfact> 0.12007985E-01</totfact>
</mgrwt>
</event>
<event>
 6    1  0.1588846E-005  0.2457269E+04  0.7818608E-02  0.8418369E-01
         -1   -1    0    0    0  501 -0.00000000000E+00  0.00000000000E+00  0.16959264272E+04  0.16959264272E+04  0.00000000000E+00 0.  1.
          1   -1    0    0  501    0  0.00000000000E+00 -0.00000000000E+00 -0.89009945569E+03  0.89009945569E+03  0.00000000000E+00 0. -1.
         23    2    1    2    0    0 -0.22944897829E+03 -0.11866792002E+04  0.62509869988E+03  0.13639305241E+04  0.93293794526E+02 0.  0.
         11    1    3    3    0    0 -0.96433137798E+02 -0.28704509123E+03  0.15212461705E+03  0.33887480517E+03  0.00000000000E+00 0. -1.
        -11    1    3    3    0    0 -0.13301584050E+03 -0.89963410899E+03  0.47297408282E+03  0.10250557189E+04  0.00000000000E+00 0.  1.
         22    1    1    2    0    0  0.22944897829E+03  0.11866792002E+04  0.18072827165E+03  0.12220953588E+04  0.00000000000E+00 0.  1.
<mgrwt>
<rscale>  0 0.24572694E+04</rscale>
<asrwt>0</asrwt>
<pdfrwt beam="1">  1        1 0.13693838E+00 0.24572694E+04</pdfrwt>
<pdfrwt beam="2">  1       -1 0.26091176E+00 0.24572694E+04</pdfrwt>
<totfact> 0.97855161E-01</totfact>
</mgrwt>
</event>
<event>
 6    1  0.1588846E-005  0.1636775E+04  0.7818608E-02  0.8798269E-01
         -1   -1    0    0    0  501 -0.00000000000E+00  0.00000000000E+00  0.95637329092E+03  0.95637329092E+03  0.00000000000E+00 0.  1.
          1   -1    0    0  501    0  0.00000000000E+00 -0.00000000000E+00 -0.70031037123E+03  0.70031037123E+03  0.00000000000E+00 0. -1.
         23    2    1    2    0    0 -0.14983935518E+03  0.77658792694E+03  0.33096318017E+03  0.86223373318E+03  0.91486301607E+02 0.  0.
         13    1    3    3    0    0 -0.52052567615E+02  0.49717049136E+03  0.21853882067E+03  0.54557051187E+03  0.00000000000E+00 0. -1.
        -13    1    3    3    0    0 -0.97786787561E+02  0.27941743557E+03  0.11242435950E+03  0.31666322131E+03  0.00000000000E+00 0.  1.
         22    1    1    2    0    0  0.14983935518E+03 -0.77658792694E+03 -0.74900260471E+02  0.79444992897E+03  0.00000000000E+00 0. -1.
<mgrwt>
<rscale>  0 0.16367750E+04</rscale>
<asrwt>0</asrwt>
<pdfrwt beam="1">  1        1 0.10774006E+00 0.16367750E+04</pdfrwt>
<pdfrwt beam="2">  1       -1 0.14713435E+00 0.16367750E+04</pdfrwt>
<totfact> 0.95716860E+00</totfact>
</mgrwt>
</event>
<event>
 6    1  0.1588846E-005  0.1054562E+04  0.7818608E-02  0.9250647E-01
         -2   -1    0    0    0  501 -0.00000000000E+00  0.00000000000E+00  0.39102603670E+03  0.39102603670E+03  0.00000000000E+00 0.  1.
          2   -1    0    0  501    0  0.00000000000E+00 -0.00000000000E+00 -0.71101474720E+03  0.71101474720E+03  0.00000000000E+00 0. -1.
         23    2    1    2    0    0  0.40547303581E+02  0.50610425390E+03 -0.29657092492E+02  0.51716639734E+03  0.93786671561E+02 0.  0.
         11    1    3    3    0    0  0.18861864730E+02  0.55977751995E+02  0.23129086532E+02  0.63436844998E+02  0.00000000000E+00 0. -1.
        -11    1    3    3    0    0  0.21685438851E+02  0.45012650190E+03 -0.52786179024E+02  0.45372955234E+03  0.00000000000E+00 0.  1.
         22    1    1    2    0    0 -0.40547303581E+02 -0.50610425390E+03 -0.29033161801E+03  0.58487438656E+03  0.00000000000E+00 0. -1.
<mgrwt>
<rscale>  0 0.10545620E+04</rscale>
<asrwt>0</asrwt>
<pdfrwt beam="1">  1        2 0.10938688E+00 0.10545620E+04</pdfrwt>
<pdfrwt beam="2">  1       -2 0.60157852E-01 0.10545620E+04</pdfrwt>
<totfact> 0.10303295E+02</totfact>
</mgrwt>
</event>
<event>
 6    1  0.1588846E-005  0.2723831E+04  0.7818608E-02  0.8327314E-01
         -2   -1    0    0    0  501 -0.00000000000E+00  0.00000000000E+00  0.10081338657E+04  0.10081338657E+04  0.00000000000E+00 0.  1.
          2   -1    0    0  501    0  0.00000000000E+00 -0.00000000000E+00 -0.18398493246E+04  0.18398493246E+04  0.00000000000E+00 0. -1.
         23    2    1    2    0    0  0.10163800397E+04 -0.69669539520E+03  0.18637401809E+03  0.12495717783E+04  0.91002723108E+02 0.  0.
         13    1    3    3    0    0  0.66097203997E+03 -0.50480773173E+03  0.12519302057E+03  0.84106371699E+03  0.00000000000E+00 0.  1.
        -13    1    3    3    0    0  0.35540799977E+03 -0.19188766347E+03  0.61180997515E+02  0.40850806130E+03  0.00000000000E+00 0. -1.
         22    1    1    2    0    0 -0.10163800397E+04  0.69669539520E+03 -0.10180894769E+04  0.15984114120E+04  0.00000000000E+00 0.  1.
<mgrwt>
<rscale>  0 0.27238314E+04</rscale>
<asrwt>0</asrwt>
<pdfrwt beam="1">  1        2 0.28305374E+00 0.27238314E+04</pdfrwt>
<pdfrwt beam="2">  1       -2 0.15509752E+00 0.27238314E+04</pdfrwt>
<totfact> 0.19680514E+00</totfact>
</mgrwt>
</event>
<event>
 6    1  0.1588846E-005  0.5102332E+03  0.7818608E-02  0.1011142E+00
          1   -1    0    0  501    0  0.00000000000E+00  0.00000000000E+00  0.14621270890E+04  0.14621270890E+04  0.00000000000E+00 0. -1.
         -1   -1    0    0    0  501 -0.00000000000E+00 -0.00000000000E+00 -0.44513566657E+02  0.44513566657E+02  0.00000000000E+00 0.  1.
         23    2    1    2    0    0 -0.22365741299E+03  0.27530982977E+02  0.10294319832E+04  0.10577915710E+04  0.91718081010E+02 0.  0.
         11    1    3    3    0    0 -0.16704864417E+03  0.81457841416E+01  0.89714933008E+03  0.91260534941E+03  0.00000000000E+00 0.  1.
        -11    1    3    3    0    0 -0.56608768820E+02  0.19385198836E+02  0.13228265307E+03  0.14518622161E+03  0.00000000000E+00 0. -1.
         22    1    1    2    0    0  0.22365741299E+03 -0.27530982977E+02  0.38818153918E+03  0.44884908463E+03  0.00000000000E+00 0.  1.
<mgrwt>
<rscale>  0 0.51023325E+03</rscale>
<asrwt>0</asrwt>
<pdfrwt beam="1">  1        1 0.22494259E+00 0.51023325E+03</pdfrwt>
<pdfrwt beam="2">  1       -1 0.68482421E-02 0.51023325E+03</pdfrwt>
<totfact> 0.81655943E+02</totfact>
</mgrwt>
</event>
<event>
 6    1  0.1588846E-005  0.1338500E+04  0.7818608E-02  0.8999579E-01
          2   -1    0    0  501    0  0.00000000000E+00  0.00000000000E+00  0.13335359766E+04  0.13335359766E+04  0.00000000000E+00 0. -1.
         -2   -1    0    0    0  501 -0.00000000000E+00 -0.00000000000E+00 -0.33587060812E+03  0.33587060812E+03  0.00000000000E+00 0.  1.
         23    2    1    2    0    0  0.14841445698E+03 -0.39352380872E+03  0.11455537370E+04  0.12235828430E+04  0.89295970581E+02 0.  0.
         13    1    3    3    0    0  0.11256503947E+03 -0.25897925670E+03  0.87279696960E+03  0.91734164500E+03  0.00000000000E+00 0. -1.
        -13    1    3    3    0    0  0.35849417505E+02 -0.13454455202E+03  0.27275676738E+03  0.30624119803E+03  0.00000000000E+00 0.  1.
         22    1    1    2    0    0 -0.14841445698E+03  0.39352380872E+03 -0.14788836855E+03  0.44582374166E+03  0.00000000000E+00 0.  1.
<mgrwt>
<rscale>  0 0.13385000E+04</rscale>
<asrwt>0</asrwt>
<pdfrwt beam="1">  1        2 0.20515938E+00 0.13385000E+04</pdfrwt>
<pdfrwt beam="2">  1       -2 0.51672402E-01 0.13385000E+04</pdfrwt>
<totfact> 0.54643265E+01</totfact>
</mgrwt>
</event>
<event>
 6    1  0.1588846E-005  0.1374696E+04  0.7818608E-02  0.8972341E-01
          2   -1    0    0  501    0  0.00000000000E+00  0.00000000000E+00  0.94169459909E+03  0.94169459909E+03  0.00000000000E+00 0. -1.
         -2   -1    0    0    0  501 -0.00000000000E+00 -0.00000000000E+00 -0.50169890373E+03  0.50169890373E+03  0.00000000000E+00 0.  1.
         23    2    1    2    0    0 -0.53842085733E+03  0.38434890121E+03  0.40516131114E+03  0.78094763198E+03  0.90013434465E+02 0.  0.
         13    1    3    3    0    0 -0.11678792088E+03  0.11585386771E+03  0.13462983010E+03  0.21257170151E+03  0.00000000000E+00 0. -1.
        -13    1    3    3    0    0 -0.42163293645E+03  0.26849503349E+03  0.27053148104E+03  0.56837593048E+03  0.00000000000E+00 0.  1.
         22    1    1    2    0    0  0.53842085733E+03 -0.38434890121E+03  0.34834384226E+02  0.66244587084E+03  0.00000000000E+00 0.  1.
<mgrwt>
<rscale>  0 0.13746958E+04</rscale>
<asrwt>0</asrwt>
<pdfrwt beam="1">  1        2 0.14487609E+00 0.13746958E+04</pdfrwt>
<pdfrwt beam="2">  1       -2 0.77184447E-01 0.13746958E+04</pdfrwt>
<totfact> 0.40171459E+01</totfact>
</mgrwt>
</event>
<event>
 6    1  0.1588846E-005  0.2941822E+04  0.7818608E-02  0.8260542E-01
          1   -1    0    0  501    0  0.00000000000E+00  0.00000000000E+00  0.16782294153E+04  0.16782294153E+04  0.00000000000E+00 0. -1.
         -1   -1    0    0    0  501 -0.00000000000E+00 -0.00000000000E+00 -0.12892034541E+04  0.12892034541E+04  0.00000000000E+00 0.  1.
         23    2    1    2    0    0  0.61843067714E+03  0.12472574192E+04  0.66934263245E+03  0.15473325179E+04  0.90059919705E+02 0.  0.
         11    1    3    3    0    0  0.35250728060E+03  0.80859898766E+03  0.42518204555E+03  0.97922085230E+03  0.00000000000E+00 0. -1.
        -11    1    3    3    0    0  0.26592339654E+03  0.43865843157E+03  0.24416058691E+03  0.56811166562E+03  0.00000000000E+00 0.  1.
         22    1    1    2    0    0 -0.61843067714E+03 -0.12472574192E+04 -0.28031667130E+03  0.14201003515E+04  0.00000000000E+00 0.  1.
<mgrwt>
<rscale>  0 0.29418220E+04</rscale>
<asrwt>0</asrwt>
<pdfrwt beam="1">  1        1 0.25818914E+00 0.29418220E+04</pdfrwt>
<pdfrwt beam="2">  1       -1 0.19833899E+00 0.29418220E+04</pdfrwt>
<totfact> 0.65193421E-01</totfact>
</mgrwt>
</event>
<event>
 6    1  0.1588846E-005  0.2002546E+04  0.7818608E-02  0.8605431E-01
          2   -1    0    0  501    0  0.00000000000E+00  0.00000000000E+00  0.17282053174E+04  0.17282053174E+04  0.00000000000E+00 0.  1.
         -2   -1    0    0    0  501 -0.00000000000E+00 -0.00000000000E+00 -0.58010916246E+03  0.58010916246E+03  0.00000000000E+00 0. -1.
         23    2    1    2    0    0 -0.78673504817E+03  0.56201288542E+03  0.28454957492E+03  0.10119645212E+04  0.91067075587E+02 0.  0.
         11    1    3    3    0    0 -0.84362949912E+02  0.65449513495E+02  0.27644492363E+01  0.10681005718E+03  0.00000000000E+00 0.  1.
        -11    1    3    3    0    0 -0.70237209826E+03  0.49656337193E+03  0.28178512569E+03  0.90515446406E+03  0.00000000000E+00 0. -1.
         22    1    1    2    0    0  0.78673504817E+03 -0.56201288542E+03  0.86354658005E+03  0.12963499587E+04  0.00000000000E+00 0.  1.
<mgrwt>
<rscale>  0 0.20025461E+04</rscale>
<asrwt>0</asrwt>
<pdfrwt beam="1">  1        2 0.26587774E+00 0.20025461E+04</pdfrwt>
<pdfrwt beam="2">  1       -2 0.89247564E-01 0.20025461E+04</pdfrwt>
<totfact> 0.94666102E+00</totfact>
</mgrwt>
</event>
<event>
 6    1  0.1588846E-005  0.2186368E+04  0.7818608E-02  0.8524124E-01
         -1   -1    0    0    0  501 -0.00000000000E+00  0.00000000000E+00  0.38771489221E+03  0.38771489221E+03  0.00000000000E+00 0.  1.
          1   -1    0    0  501    0  0.00000000000E+00 -0.00000000000E+00 -0.30822925681E+04  0.30822925681E+04  0.00000000000E+00 0. -1.
         23    2    1    2    0    0 -0.21908048844E+03 -0.13751184007E+03 -0.30321347737E+04  0.30447421774E+04  0.98528545858E+02 0.  0.
         13    1    3    3    0    0 -0.22207666196E+02  0.65255428937E+01 -0.59015613867E+03  0.59060988068E+03  0.00000000000E+00 0. -1.
        -13    1    3    3    0    0 -0.19687282225E+03 -0.14403738296E+03 -0.24419786350E+04  0.24541322967E+04  0.00000000000E+00 0.  1.
         22    1    1    2    0    0  0.21908048844E+03  0.13751184007E+03  0.33755709781E+03  0.42526528292E+03  0.00000000000E+00 0.  1.
<mgrwt>
<rscale>  0 0.21863675E+04</rscale>
<asrwt>0</asrwt>
<pdfrwt beam="1">  1        1 0.47419884E+00 0.21863675E+04</pdfrwt>
<pdfrwt beam="2">  1       -1 0.59648447E-01 0.21863675E+04</pdfrwt>
<totfact> 0.13544517E+00</totfact>
</mgrwt>
</event>
<event>
 6    1  0.1588846E-005  0.2658181E+04  0.7818608E-02  0.8348703E-01
          2   -1    0    0  501    0  0.00000000000E+00  0.00000000000E+00  0.28597826461E+04  0.28597826461E+04  0.00000000000E+00 0.  1.
         -2   -1    0    0    0  501 -0.00000000000E+00 -0.00000000000E+00 -0.61769804670E+03  0.61769804670E+03  0.00000000000E+00 0. -1.
         23    2    1    2    0    0  0.77354981616E+03  0.33675381564E+03 -0.21792250699E+03  0.87682358086E+03  0.97708354124E+02 0.  0.
         11    1    3    3    0    0  0.60337607749E+03  0.25734045210E+03 -0.12685519825E+03  0.66811603820E+03  0.00000000000E+00 0. -1.
        -11    1    3    3    0    0  0.17017373867E+03  0.79413363535E+02 -0.91067308742E+02  0.20870754266E+03  0.00000000000E+00 0.  1.
         22    1    1    2    0    0 -0.77354981616E+03 -0.33675381564E+03  0.24600071064E+04  0.26006571119E+04  0.00000000000E+00 0.  1.
<mgrwt>
<rscale>  0 0.26581814E+04</rscale>
<asrwt>0</asrwt>
<pdfrwt beam="1">  1        2 0.43996655E+00 0.26581814E+04</pdfrwt>
<pdfrwt beam="2">  1       -2 0.95030470E-01 0.26581814E+04</pdfrwt>
<totfact> 0.17430128E+00</totfact>
</mgrwt>
</event>
<event>
 6    1  0.1588846E-005  0.2134105E+04  0.7818608E-02  0.8546367E-01
         -1   -1    0    0    0  501 -0.00000000000E+00  0.00000000000E+00  0.65937147860E+03  0.65937147860E+03  0.00000000000E+00 0.  1.
          1   -1    0    0  501    0  0.00000000000E+00 -0.00000000000E+00 -0.17267969366E+04  0.17267969366E+04  0.00000000000E+00 0. -1.
         23    2    1    2    0    0  0.96170576906E+03 -0.45418597832E+03 -0.47052750680E+03  0.11665577998E+04  0.91093777913E+02 0.  0.
         11    1    3    3    0    0  0.28390229393E+03 -0.15729628208E+03 -0.10426903542E+03  0.34090272015E+03  0.00000000000E+00 0. -1.
        -11    1    3    3    0    0  0.67780347513E+03 -0.29688969624E+03 -0.36625847138E+03  0.82565507961E+03  0.00000000000E+00 0.  1.
         22    1    1    2    0    0 -0.96170576906E+03  0.45418597832E+03 -0.59689795121E+03  0.12196106154E+04  0.00000000000E+00 0.  1.
<mgrwt>
<rscale>  0 0.21341046E+04</rscale>
<asrwt>0</asrwt>
<pdfrwt beam="1">  1        1 0.26566107E+00 0.21341046E+04</pdfrwt>
<pdfrwt beam="2">  1       -1 0.10144177E+00 0.21341046E+04</pdfrwt>
<totfact> 0.38638425E+00</totfact>
</mgrwt>
</event>
<event>
 6    1  0.1588846E-005  0.3346365E+04  0.7818608E-02  0.8151197E-01
         -2   -1    0    0    0  501 -0.00000000000E+00  0.00000000000E+00  0.66346142722E+03  0.66346142722E+03  0.00000000000E+00 0.  1.
          2   -1    0    0  501    0  0.00000000000E+00 -0.00000000000E+00 -0.42195973959E+04  0.42195973959E+04  0.00000000000E+00 0. -1.
         23    2    1    2    0    0  0.46606643787E+03  0.72753674019E+03 -0.38680674984E+04  0.39644572163E+04  0.91908731600E+02 0.  0.
         11    1    3    3    0    0  0.33059864690E+03  0.58693371925E+03 -0.29906462878E+04  0.30655752926E+04  0.00000000000E+00 0.  1.
        -11    1    3    3    0    0  0.13546779097E+03  0.14060302094E+03 -0.87742121064E+03  0.89888192371E+03  0.00000000000E+00 0. -1.
         22    1    1    2    0    0 -0.46606643787E+03 -0.72753674019E+03  0.31193152971E+03  0.91860160682E+03  0.00000000000E+00 0.  1.
<mgrwt>
<rscale>  0 0.33463653E+04</rscale>
<asrwt>0</asrwt>
<pdfrwt beam="1">  1        2 0.64916880E+00 0.33463653E+04</pdfrwt>
<pdfrwt beam="2">  1       -2 0.10207099E+00 0.33463653E+04</pdfrwt>
<totfact> 0.14592096E-01</totfact>
</mgrwt>
</event>
<event>
 6    1  0.1588846E-005  0.2843226E+04  0.7818608E-02  0.8289973E-01
         -1   -1    0    0    0  501 -0.00000000000E+00  0.00000000000E+00  0.85373531292E+03  0.85373531292E+03  0.00000000000E+00 0.  1.
          1   -1    0    0  501    0  0.00000000000E+00 -0.00000000000E+00 -0.23672247684E+04  0.23672247684E+04  0.00000000000E+00 0. -1.
         23    2    1    2    0    0 -0.10111056589E+04 -0.61653890419E+03  0.13077830916E+03  0.11946157484E+04  0.86884672680E+02 0.  0.
         13    1    3    3    0    0 -0.62678438289E+03 -0.36092774908E+03  0.41251692763E+02  0.72445096788E+03  0.00000000000E+00 0.  1.
        -13    1    3    3    0    0 -0.38432127598E+03 -0.25561115510E+03  0.89526616395E+02  0.47016478051E+03  0.00000000000E+00 0. -1.
         22    1    1    2    0    0  0.10111056589E+04  0.61653890419E+03 -0.16442677646E+04  0.20263443329E+04  0.00000000000E+00 0. -1.
<mgrwt>
<rscale>  0 0.28432259E+04</rscale>
<asrwt>0</asrwt>
<pdfrwt beam="1">  1        1 0.36418842E+00 0.28432259E+04</pdfrwt>
<pdfrwt beam="2">  1       -1 0.13134390E+00 0.28432259E+04</pdfrwt>
<totfact> 0.71294407E-01</totfact>
</mgrwt>
</event>
<event>
 6    1  0.1588846E-005  0.4272039E+04  0.7818608E-02  0.7951809E-01
          2   -1    0    0  501    0  0.00000000000E+00  0.00000000000E+00  0.25988804611E+04  0.25988804611E+04  0.00000000000E+00 0. -1.
         -2   -1    0    0    0  501 -0.00000000000E+00 -0.00000000000E+00 -0.17555944304E+04  0.17555944304E+04  0.00000000000E+00 0.  1.
         23    2    1    2    0    0 -0.13134361263E+03  0.10049392011E+04  0.23372836627E+04  0.25491541812E+04  0.90211844977E+02 0.  0.
         13    1    3    3    0    0 -0.95034225978E+02  0.56999734468E+03  0.14301535080E+04  0.15424874500E+04  0.00000000000E+00 0. -1.
        -13    1    3    3    0    0 -0.36309386650E+02  0.43494185645E+03  0.90713015475E+03  0.10066667312E+04  0.00000000000E+00 0.  1.
         22    1    1    2    0    0  0.13134361263E+03 -0.10049392011E+04 -0.14939976320E+04  0.18053207103E+04  0.00000000000E+00 0.  1.
<mgrwt>
<rscale>  0 0.42720394E+04</rscale>
<asrwt>0</asrwt>
<pdfrwt beam="1">  1        2 0.39982776E+00 0.42720394E+04</pdfrwt>
<pdfrwt beam="2">  1       -2 0.27009145E+00 0.42720394E+04</pdfrwt>
<totfact> 0.11385426E-01</totfact>
</mgrwt>
</event>
<event>
 6    1  0.1588846E-005  0.2514324E+04  0.7818608E-02  0.8397900E-01
         -1   -1    0    0    0  501 -0.00000000000E+00  0.00000000000E+00  0.14659948962E+04  0.14659948962E+04  0.00000000000E+00 0. -1.
          1   -1    0    0  501    0  0.00000000000E+00 -0.00000000000E+00 -0.10780779728E+04  0.10780779728E+04  0.00000000000E+00 0.  1.
         23    2    1    2    0    0 -0.88801246712E+03 -0.29656371427E+03 -0.65211082451E+03  0.11447252014E+04  0.92903610594E+02 0.  0.
         11    1    3    3    0    0 -0.67928644984E+03 -0.18457121037E+03 -0.48366471665E+03  0.85406567122E+03  0.00000000000E+00 0.  1.
        -11    1    3    3    0    0 -0.20872601728E+03 -0.11199250390E+03 -0.16844610786E+03  0.29065953016E+03  0.00000000000E+00 0. -1.
         22    1    1    2    0    0  0.88801246712E+03  0.29656371427E+03  0.10400277479E+04  0.13993476676E+04  0.00000000000E+00 0.  1.
<mgrwt>
<rscale>  0 0.25143244E+04</rscale>
<asrwt>0</asrwt>
<pdfrwt beam="1">  1        1 0.16585815E+00 0.25143244E+04</pdfrwt>
<pdfrwt beam="2">  1       -1 0.22553768E+00 0.25143244E+04</pdfrwt>
<totfact> 0.11811937E+00</totfact>
</mgrwt>
</event>
<event>
 6    1  0.1588846E-005  0.1537107E+04  0.7818608E-02  0.8860146E-01
          2   -1    0    0  501    0  0.00000000000E+00  0.00000000000E+00  0.59398613366E+03  0.59398613366E+03  0.00000000000E+00 0.  1.
         -2   -1    0    0    0  501 -0.00000000000E+00 -0.00000000000E+00 -0.99442424719E+03  0.99442424719E+03  0.00000000000E+00 0. -1.
         23    2    1    2    0    0 -0.10514289692E+02  0.25760940669E+03  0.54410618910E+03  0.60931023463E+03  0.93457264570E+02 0.  0.
         11    1    3    3    0    0 -0.44651747205E+02  0.15815011103E+03  0.27460212056E+03  0.32001806318E+03  0.00000000000E+00 0.  1.
        -11    1    3    3    0    0  0.34137457513E+02  0.99459295659E+02  0.26950406855E+03  0.28929217145E+03  0.00000000000E+00 0. -1.
         22    1    1    2    0    0  0.10514289692E+02 -0.25760940669E+03 -0.94454430263E+03  0.97910014623E+03  0.00000000000E+00 0. -1.
<mgrwt>
<rscale>  0 0.15371067E+04</rscale>
<asrwt>0</asrwt>
<pdfrwt beam="1">  1        2 0.91382483E-01 0.15371067E+04</pdfrwt>
<pdfrwt beam="2">  1       -2 0.15298834E+00 0.15371067E+04</pdfrwt>
<totfact> 0.13741305E+01</totfact>
</mgrwt>
</event>
<event>
 6    1  0.1588846E-005  0.3218275E+04  0.7818608E-02  0.8184007E-01
         -2   -1    0    0    0  501 -0.00000000000E+00  0.00000000000E+00  0.15433873446E+04  0.15433873446E+04  0.00000000000E+00 0.  1.
          2   -1    0    0  501    0  0.00000000000E+00 -0.00000000000E+00 -0.16776885038E+04  0.16776885038E+04  0.00000000000E+00 0. -1.
         23    2    1    2    0    0  0.10401442883E+04  0.91349399542E+03 -0.88580912789E+03  0.16459137465E+04  0.89458536042E+02 0.  0.
         11    1    3    3    0    0  0.80210739187E+02  0.78689651422E+02 -0.45169567020E+02  0.12110373118E+03  0.00000000000E+00 0.  1.
        -11    1    3    3    0    0  0.95993354914E+03  0.83480434400E+03 -0.84063956087E+03  0.15248100153E+04  0.00000000000E+00 0. -1.
         22    1    1    2    0    0 -0.10401442883E+04 -0.91349399542E+03  0.75150796869E+03  0.15751621019E+04  0.00000000000E+00 0.  1.
<mgrwt>
<rscale>  0 0.32182748E+04</rscale>
<asrwt>0</asrwt>
<pdfrwt beam="1">  1        2 0.25810592E+00 0.32182748E+04</pdfrwt>
<pdfrwt beam="2">  1       -2 0.23744421E+00 0.32182748E+04</pdfrwt>
<totfact> 0.65193655E-01</totfact>
</mgrwt>
</event>
<event>
 6    1  0.1588846E-005  0.1531099E+04  0.7818608E-02  0.8864032E-01
          1   -1    0    0  501    0  0.00000000000E+00  0.00000000000E+00  0.65462740307E+03  0.65462740307E+03  0.00000000000E+00 0. -1.
         -1   -1    0    0    0  501 -0.00000000000E+00 -0.00000000000E+00 -0.89526682250E+03  0.89526682250E+03  0.00000000000E+00 0.  1.
         23    2    1    2    0    0 -0.69497688127E+03  0.29645941770E+03 -0.13537564117E+02  0.76093522503E+03  0.89208179051E+02 0.  0.
         13    1    3    3    0    0 -0.86937287527E+02  0.27416150444E+02  0.26192065814E+02  0.94845988736E+02  0.00000000000E+00 0. -1.
        -13    1    3    3    0    0 -0.60803959374E+03  0.26904326725E+03 -0.39729629931E+02  0.66608923630E+03  0.00000000000E+00 0.  1.
         22    1    1    2    0    0  0.69497688127E+03 -0.29645941770E+03 -0.22710185532E+03  0.78895900054E+03  0.00000000000E+00 0.  1.
<mgrwt>
<rscale>  0 0.15310992E+04</rscale>
<asrwt>0</asrwt>
<pdfrwt beam="1">  1        1 0.10071191E+00 0.15310992E+04</pdfrwt>
<pdfrwt beam="2">  1       -1 0.13773336E+00 0.15310992E+04</pdfrwt>
<totfact> 0.12721808E+01</totfact>
</mgrwt>
</event>
<event>
 6    1  0.1588846E-005  0.4912492E+03  0.7818608E-02  0.1016089E+00
          2   -1    0    0  501    0  0.00000000000E+00  0.00000000000E+00  0.82327425466E+03  0.82327425466E+03  0.00000000000E+00 0. -1.
         -2   -1    0    0    0  501 -0.00000000000E+00 -0.00000000000E+00 -0.73282326521E+02  0.73282326521E+02  0.00000000000E+00 0.  1.
         23    2    1    2    0    0 -0.21602345876E+03  0.87492962209E+02  0.45776287259E+03  0.52276656783E+03  0.97040629384E+02 0.  0.
         13    1    3    3    0    0 -0.18373336199E+03  0.10019306371E+03  0.33327685933E+03  0.39353533931E+03  0.00000000000E+00 0. -1.
        -13    1    3    3    0    0 -0.32290096773E+02 -0.12700101499E+02  0.12448601326E+03  0.12923122852E+03  0.00000000000E+00 0.  1.
         22    1    1    2    0    0  0.21602345876E+03 -0.87492962209E+02  0.29222905555E+03  0.37379001334E+03  0.00000000000E+00 0.  1.
<mgrwt>
<rscale>  0 0.49124924E+03</rscale>
<asrwt>0</asrwt>
<pdfrwt beam="1">  1        2 0.12665757E+00 0.49124924E+03</pdfrwt>
<pdfrwt beam="2">  1       -2 0.11274205E-01 0.49124924E+03</pdfrwt>
<totfact> 0.18741735E+03</totfact>
</mgrwt>
</event>
<event>
 6    1  0.1588846E-005  0.1982754E+04  0.7818608E-02  0.8614726E-01
          2   -1    0    0  501    0  0.00000000000E+00  0.00000000000E+00  0.11999898735E+04  0.11999898735E+04  0.00000000000E+00 0. -1.
         -2   -1    0    0    0  501 -0.00000000000E+00 -0.00000000000E+00 -0.81903059222E+03  0.81903059222E+03  0.00000000000E+00 0.  1.
         23    2    1    2    0    0 -0.57405914548E+03 -0.11562338028E+03 -0.62124979947E+03  0.85827255592E+03  0.88135114045E+02 0.  0.
         11    1    3    3    0    0 -0.41903730280E+03 -0.53544351787E+02 -0.40674102279E+03  0.58642776057E+03  0.00000000000E+00 0.  1.
        -11    1    3    3    0    0 -0.15502184268E+03 -0.62079028496E+02 -0.21450877668E+03  0.27184479535E+03  0.00000000000E+00 0. -1.
         22    1    1    2    0    0  0.57405914548E+03  0.11562338028E+03  0.10022090808E+04  0.11607479098E+04  0.00000000000E+00 0. -1.
<mgrwt>
<rscale>  0 0.19827541E+04</rscale>
<asrwt>0</asrwt>
<pdfrwt beam="1">  1        2 0.18461383E+00 0.19827541E+04</pdfrwt>
<pdfrwt beam="2">  1       -2 0.12600471E+00 0.19827541E+04</pdfrwt>
<totfact> 0.82822499E+00</totfact>
</mgrwt>
</event>
<event>
 6    1  0.1760446E-005  0.3228397E+04  0.7818608E-02  0.8181358E-01
         -1   -1    0    0    0  501 -0.00000000000E+00  0.00000000000E+00  0.11326834111E+04  0.11326834111E+04  0.00000000000E+00 0.  1.
          1   -1    0    0  501    0  0.00000000000E+00 -0.00000000000E+00 -0.23004098878E+04  0.23004098878E+04  0.00000000000E+00 0. -1.
         23    2    1    2    0    0 -0.17331487779E+03  0.15835326402E+04 -0.31589640777E+03  0.16266525620E+04  0.92705704224E+02 0.  0.
         13    1    3    3    0    0 -0.64950651025E+02  0.46156438588E+03 -0.52168195924E+02  0.46902216371E+03  0.00000000000E+00 0. -1.
        -13    1    3    3    0    0 -0.10836422677E+03  0.11219682543E+04 -0.26372821185E+03  0.11576303983E+04  0.00000000000E+00 0.  1.
         22    1    1    2    0    0  0.17331487779E+03 -0.15835326402E+04 -0.85183006891E+03  0.18064407369E+04  0.00000000000E+00 0. -1.
<mgrwt>
<rscale>  0 0.32283966E+04</rscale>
<asrwt>0</asrwt>
<pdfrwt beam="1">  1        1 0.35390921E+00 0.32283966E+04</pdfrwt>
<pdfrwt beam="2">  1       -1 0.17425899E+00 0.32283966E+04</pdfrwt>
<totfact> 0.35547474E-01</totfact>
</mgrwt>
</event>
<event>
 6    1  0.1588846E-005  0.3811122E+04  0.7818608E-02  0.8043772E-01
          2   -1    0    0  501    0  0.00000000000E+00  0.00000000000E+00  0.29083840232E+04  0.29083840232E+04  0.00000000000E+00 0. -1.
         -2   -1    0    0    0  501 -0.00000000000E+00 -0.00000000000E+00 -0.12485157189E+04  0.12485157189E+04  0.00000000000E+00 0.  1.
         23    2    1    2    0    0  0.47459960288E+03 -0.84058894896E+02  0.28401663892E+04  0.28819823917E+04  0.83466800740E+02 0.  0.
         11    1    3    3    0    0  0.33924222949E+03 -0.61341552947E+02  0.17910894423E+04  0.18239653140E+04  0.00000000000E+00 0. -1.
        -11    1    3    3    0    0  0.13535737340E+03 -0.22717341949E+02  0.10490769470E+04  0.10580170777E+04  0.00000000000E+00 0.  1.
         22    1    1    2    0    0 -0.47459960288E+03  0.84058894896E+02 -0.11802980849E+04  0.12749173503E+04  0.00000000000E+00 0.  1.
<mgrwt>
<rscale>  0 0.38111222E+04</rscale>
<asrwt>0</asrwt>
<pdfrwt beam="1">  1        2 0.44744369E+00 0.38111222E+04</pdfrwt>
<pdfrwt beam="2">  1       -2 0.19207934E+00 0.38111222E+04</pdfrwt>
<totfact> 0.23861259E-01</totfact>
</mgrwt>
</event>
<event>
 6    1  0.1588846E-005  0.2489522E+04  0.7818608E-02  0.8406728E-01
         -2   -1    0    0    0  501 -0.00000000000E+00  0.00000000000E+00  0.16899738418E+04  0.16899738418E+04  0.00000000000E+00 0.  1.
          2   -1    0    0  501    0  0.00000000000E+00 -0.00000000000E+00 -0.91683674804E+03  0.91683674804E+03  0.00000000000E+00 0. -1.
         23    2    1    2    0    0  0.93836911545E+03 -0.51914960007E+03 -0.27120689666E+03  0.11099113700E+04  0.91088771785E+02 0.  0.
         11    1    3    3    0    0  0.46387965304E+03 -0.26853607028E+03 -0.89802251061E+02  0.54347069640E+03  0.00000000000E+00 0. -1.
        -11    1    3    3    0    0  0.47448946241E+03 -0.25061352979E+03 -0.18140464560E+03  0.56644067359E+03  0.00000000000E+00 0.  1.
         22    1    1    2    0    0 -0.93836911545E+03  0.51914960007E+03  0.10443439904E+04  0.14968992199E+04  0.00000000000E+00 0.  1.
<mgrwt>
<rscale>  0 0.24895221E+04</rscale>
<asrwt>0</asrwt>
<pdfrwt beam="1">  1        2 0.14105181E+00 0.24895221E+04</pdfrwt>
<pdfrwt beam="2">  1       -2 0.25999598E+00 0.24895221E+04</pdfrwt>
<totfact> 0.14225770E+00</totfact>
</mgrwt>
</event>
<event>
 6    1  0.1588846E-005  0.3496145E+04  0.7818608E-02  0.8114704E-01
          2   -1    0    0  501    0  0.00000000000E+00  0.00000000000E+00  0.26199490843E+04  0.26199490843E+04  0.00000000000E+00 0. -1.
         -2   -1    0    0    0  501 -0.00000000000E+00 -0.00000000000E+00 -0.11663425520E+04  0.11663425520E+04  0.00000000000E+00 0.  1.
         23    2    1    2    0    0  0.16562439382E+04  0.25041683450E+03  0.19075041691E+03  0.16885170673E+04  0.94082894752E+02 0.  0.
         13    1    3    3    0    0  0.14300862087E+04  0.18781337595E+03  0.18067704031E+03  0.14536384080E+04  0.00000000000E+00 0. -1.
        -13    1    3    3    0    0  0.22615772956E+03  0.62603458554E+02  0.10073376597E+02  0.23487865926E+03  0.00000000000E+00 0.  1.
         22    1    1    2    0    0 -0.16562439382E+04 -0.25041683450E+03  0.12628561154E+04  0.20977745690E+04  0.00000000000E+00 0.  1.
<mgrwt>
<rscale>  0 0.34961454E+04</rscale>
<asrwt>0</asrwt>
<pdfrwt beam="1">  1        2 0.40306909E+00 0.34961454E+04</pdfrwt>
<pdfrwt beam="2">  1       -2 0.17943732E+00 0.34961454E+04</pdfrwt>
<totfact> 0.44536250E-01</totfact>
</mgrwt>
</event>
<event>
 6    1  0.1588846E-005  0.2683493E+04  0.7818608E-02  0.8340381E-01
          1   -1    0    0  501    0  0.00000000000E+00  0.00000000000E+00  0.13805051555E+04  0.13805051555E+04  0.00000000000E+00 0. -1.
         -1   -1    0    0    0  501 -0.00000000000E+00 -0.00000000000E+00 -0.13040760052E+04  0.13040760052E+04  0.00000000000E+00 0.  1.
         23    2    1    2    0    0  0.39917092336E+03  0.10366047191E+04  0.78835723467E+03  0.13652145070E+04  0.91742852579E+02 0.  0.
         11    1    3    3    0    0  0.21447323748E+03  0.44869388033E+03  0.32301083747E+03  0.59301009179E+03  0.00000000000E+00 0. -1.
        -11    1    3    3    0    0  0.18469768588E+03  0.58791083876E+03  0.46534639719E+03  0.77220441522E+03  0.00000000000E+00 0.  1.
         22    1    1    2    0    0 -0.39917092336E+03 -0.10366047191E+04 -0.71192808431E+03  0.13193666537E+04  0.00000000000E+00 0.  1.
<mgrwt>
<rscale>  0 0.26834930E+04</rscale>
<asrwt>0</asrwt>
<pdfrwt beam="1">  1        1 0.21238541E+00 0.26834930E+04</pdfrwt>
<pdfrwt beam="2">  1       -1 0.20062708E+00 0.26834930E+04</pdfrwt>
<totfact> 0.10332293E+00</totfact>
</mgrwt>
</event>
<event>
 6    1  0.1588846E-005  0.3573021E+04  0.7818608E-02  0.8096700E-01
          2   -1    0    0  501    0  0.00000000000E+00  0.00000000000E+00  0.20772075447E+04  0.20772075447E+04  0.00000000000E+00 0. -1.
         -2   -1    0    0    0  501 -0.00000000000E+00 -0.00000000000E+00 -0.15364955293E+04  0.15364955293E+04  0.00000000000E+00 0.  1.
         23    2    1    2    0    0 -0.14984502549E+04 -0.39151292861E+03  0.11689365799E+04  0.19423857364E+04  0.88397293663E+02 0.  0.
         11    1    3    3    0    0 -0.78817070894E+03 -0.19574010519E+03  0.55893248117E+03  0.98586650908E+03  0.00000000000E+00 0.  1.
        -11    1    3    3    0    0 -0.71027954591E+03 -0.19577282342E+03  0.61000409877E+03  0.95651922733E+03  0.00000000000E+00 0. -1.
         22    1    1    2    0    0  0.14984502549E+04  0.39151292861E+03 -0.62822456455E+03  0.16713173376E+04  0.00000000000E+00 0.  1.
<mgrwt>
<rscale>  0 0.35730212E+04</rscale>
<asrwt>0</asrwt>
<pdfrwt beam="1">  1        2 0.31957039E+00 0.35730212E+04</pdfrwt>
<pdfrwt beam="2">  1       -2 0.23638393E+00 0.35730212E+04</pdfrwt>
<totfact> 0.38555729E-01</totfact>
</mgrwt>
</event>
<event>
 6    1  0.1588846E-005  0.4271981E+04  0.7818608E-02  0.7951820E-01
         -2   -1    0    0    0  501 -0.00000000000E+00  0.00000000000E+00  0.19682334165E+04  0.19682334165E+04  0.00000000000E+00 0.  1.
          2   -1    0    0  501    0  0.00000000000E+00 -0.00000000000E+00 -0.23180454911E+04  0.23180454911E+04  0.00000000000E+00 0. -1.
         23    2    1    2    0    0  0.16536852323E+04 -0.10968728232E+04  0.61526468398E+03  0.20796575110E+04  0.92843383504E+02 0.  0.
         13    1    3    3    0    0  0.77965074610E+03 -0.49945772537E+03  0.24111897257E+03  0.95679238305E+03  0.00000000000E+00 0. -1.
        -13    1    3    3    0    0  0.87403448624E+03 -0.59741509783E+03  0.37414571140E+03  0.11228651280E+04  0.00000000000E+00 0.  1.
         22    1    1    2    0    0 -0.16536852323E+04  0.10968728232E+04 -0.96507675854E+03  0.22066213966E+04  0.00000000000E+00 0. -1.
<mgrwt>
<rscale>  0 0.42719806E+04</rscale>
<asrwt>0</asrwt>
<pdfrwt beam="1">  1        2 0.35662239E+00 0.42719806E+04</pdfrwt>
<pdfrwt beam="2">  1       -2 0.30280514E+00 0.42719806E+04</pdfrwt>
<totfact> 0.10440270E-01</totfact>
</mgrwt>
</event>
<event>
 6    1  0.1588846E-005  0.2031899E+04  0.7818608E-02  0.8591850E-01
         -2   -1    0    0    0  501 -0.00000000000E+00  0.00000000000E+00  0.59374723355E+03  0.59374723355E+03  0.00000000000E+00 0.  1.
          2   -1    0    0  501    0  0.00000000000E+00 -0.00000000000E+00 -0.17383723912E+04  0.17383723912E+04  0.00000000000E+00 0. -1.
         23    2    1    2    0    0  0.27029768465E+02 -0.36816642421E+03 -0.16573358505E+04  0.17003369256E+04  0.90035631030E+02 0.  0.
         11    1    3    3    0    0  0.60433008236E+02 -0.24230744312E+03 -0.10787801552E+04  0.11073082989E+04  0.00000000000E+00 0. -1.
        -11    1    3    3    0    0 -0.33403239771E+02 -0.12585898110E+03 -0.57855569528E+03  0.59302862671E+03  0.00000000000E+00 0.  1.
         22    1    1    2    0    0 -0.27029768465E+02  0.36816642421E+03  0.51271069290E+03  0.63178269912E+03  0.00000000000E+00 0.  1.
<mgrwt>
<rscale>  0 0.20318994E+04</rscale>
<asrwt>0</asrwt>
<pdfrwt beam="1">  1        2 0.26744190E+00 0.20318994E+04</pdfrwt>
<pdfrwt beam="2">  1       -2 0.91345729E-01 0.20318994E+04</pdfrwt>
<totfact> 0.88346036E+00</totfact>
</mgrwt>
</event>
<event>
 6    1  0.1588846E-005  0.3988134E+04  0.7818608E-02  0.8006945E-01
         -1   -1    0    0    0  501 -0.00000000000E+00  0.00000000000E+00  0.15205580645E+04  0.15205580645E+04  0.00000000000E+00 0.  1.
          1   -1    0    0  501    0  0.00000000000E+00 -0.00000000000E+00 -0.26150286940E+04  0.26150286940E+04  0.00000000000E+00 0. -1.
         23    2    1    2    0    0 -0.86215690259E+03  0.14074090405E+04 -0.17059807019E+04  0.23754562802E+04  0.91146320587E+02 0.  0.
         11    1    3    3    0    0 -0.74531102600E+03  0.11559901670E+04 -0.14373539469E+04  0.19894190510E+04  0.00000000000E+00 0. -1.
        -11    1    3    3    0    0 -0.11684587659E+03  0.25141887347E+03 -0.26862675501E+03  0.38603722919E+03  0.00000000000E+00 0.  1.
         22    1    1    2    0    0  0.86215690259E+03 -0.14074090405E+04  0.61151007249E+03  0.17601304783E+04  0.00000000000E+00 0.  1.
<mgrwt>
<rscale>  0 0.39881339E+04</rscale>
<asrwt>0</asrwt>
<pdfrwt beam="1">  1        1 0.40231210E+00 0.39881339E+04</pdfrwt>
<pdfrwt beam="2">  1       -1 0.23393201E+00 0.39881339E+04</pdfrwt>
<totfact> 0.78427537E-02</totfact>
</mgrwt>
</event>
<event>
 6    1  0.1588846E-005  0.1618199E+04  0.7818608E-02  0.8809445E-01
         -2   -1    0    0    0  501 -0.00000000000E+00  0.00000000000E+00  0.22200273406E+03  0.22200273406E+03  0.00000000000E+00 0.  1.
          2   -1    0    0  501    0  0.00000000000E+00 -0.00000000000E+00 -0.29488010348E+04  0.29488010348E+04  0.00000000000E+00 0. -1.
         23    2    1    2    0    0 -0.52741416350E+03 -0.19711027352E+03 -0.23592504884E+03  0.61708731694E+03  0.90099768418E+02 0.  0.
         13    1    3    3    0    0 -0.22103084552E+03 -0.11708891554E+03 -0.70782424286E+02  0.25995115003E+03  0.00000000000E+00 0.  1.
        -13    1    3    3    0    0 -0.30638331798E+03 -0.80021357973E+02 -0.16514262456E+03  0.35713616691E+03  0.00000000000E+00 0. -1.
         22    1    1    2    0    0  0.52741416350E+03  0.19711027352E+03 -0.24908732519E+04  0.25537164519E+04  0.00000000000E+00 0. -1.
<mgrwt>
<rscale>  0 0.16181989E+04</rscale>
<asrwt>0</asrwt>
<pdfrwt beam="1">  1        2 0.45366163E+00 0.16181989E+04</pdfrwt>
<pdfrwt beam="2">  1       -2 0.34154272E-01 0.16181989E+04</pdfrwt>
<totfact> 0.14483237E+01</totfact>
</mgrwt>
</event>
<event>
 6    1  0.1588846E-005  0.1599631E+04  0.7818608E-02  0.8820775E-01
         -2   -1    0    0    0  501 -0.00000000000E+00  0.00000000000E+00  0.47199708015E+03  0.47199708015E+03  0.00000000000E+00 0.  1.
          2   -1    0    0  501    0  0.00000000000E+00 -0.00000000000E+00 -0.13553157457E+04  0.13553157457E+04  0.00000000000E+00 0. -1.
         23    2    1    2    0    0 -0.28813179368E+03 -0.18213163680E+03  0.38010068684E+03  0.51871803615E+03  0.91651542451E+02 0.  0.
         13    1    3    3    0    0 -0.21628995838E+03 -0.91917034071E+02  0.28379364437E+03  0.36846834306E+03  0.00000000000E+00 0. -1.
        -13    1    3    3    0    0 -0.71841835301E+02 -0.90214602727E+02  0.96307042471E+02  0.15024969309E+03  0.00000000000E+00 0.  1.
         22    1    1    2    0    0  0.28813179368E+03  0.18213163680E+03 -0.12634193524E+04  0.13085947897E+04  0.00000000000E+00 0. -1.
<mgrwt>
<rscale>  0 0.15996313E+04</rscale>
<asrwt>0</asrwt>
<pdfrwt beam="1">  1        2 0.20851011E+00 0.15996313E+04</pdfrwt>
<pdfrwt beam="2">  1       -2 0.72614937E-01 0.15996313E+04</pdfrwt>
<totfact> 0.25251696E+01</totfact>
</mgrwt>
</event>
<event>
 6    1  0.1588846E-005  0.8183002E+03  0.7818608E-02  0.9533900E-01
          3   -1    0    0  501    0  0.00000000000E+00  0.00000000000E+00  0.36014797953E+03  0.36014797953E+03  0.00000000000E+00 0. -1.
         -3   -1    0    0    0  501 -0.00000000000E+00 -0.00000000000E+00 -0.46481949634E+03  0.46481949634E+03  0.00000000000E+00 0.  1.
         23    2    1    2    0    0 -0.24780061460E+03  0.26310177673E+03  0.12876511242E+03  0.39471133195E+03  0.92676274661E+02 0.  0.
         11    1    3    3    0    0 -0.19410583890E+03  0.16836722875E+03  0.12502222987E+03  0.28575366730E+03  0.00000000000E+00 0.  1.
        -11    1    3    3    0    0 -0.53694775701E+02  0.94734547976E+02  0.37428825438E+01  0.10895766466E+03  0.00000000000E+00 0. -1.
         22    1    1    2    0    0  0.24780061460E+03 -0.26310177673E+03 -0.23343662923E+03  0.43025614392E+03  0.00000000000E+00 0. -1.
<mgrwt>
<rscale>  0 0.81830020E+03</rscale>
<asrwt>0</asrwt>
<pdfrwt beam="1">  1        3 0.55407382E-01 0.81830020E+03</pdfrwt>
<pdfrwt beam="2">  1       -3 0.71510692E-01 0.81830020E+03</pdfrwt>
<totfact> 0.15741830E+01</totfact>
</mgrwt>
</event>
<event>
 6    1  0.1588846E-005  0.2221708E+04  0.7818608E-02  0.8509447E-01
         -1   -1    0    0    0  501 -0.00000000000E+00  0.00000000000E+00  0.95053668386E+03  0.95053668386E+03  0.00000000000E+00 0.  1.
          1   -1    0    0  501    0  0.00000000000E+00 -0.00000000000E+00 -0.12982102645E+04  0.12982102645E+04  0.00000000000E+00 0. -1.
         23    2    1    2    0    0  0.96454492631E+03  0.20366565047E+03  0.34011284680E+03  0.10467166735E+04  0.90069050692E+02 0.  0.
         13    1    3    3    0    0  0.58540273285E+03  0.78596233482E+02  0.19927915269E+03  0.62336659217E+03  0.00000000000E+00 0. -1.
        -13    1    3    3    0    0  0.37914219347E+03  0.12506941698E+03  0.14083369411E+03  0.42335008129E+03  0.00000000000E+00 0.  1.
         22    1    1    2    0    0 -0.96454492631E+03 -0.20366565047E+03 -0.68778642748E+03  0.12020302749E+04  0.00000000000E+00 0. -1.
<mgrwt>
<rscale>  0 0.22217079E+04</rscale>
<asrwt>0</asrwt>
<pdfrwt beam="1">  1        1 0.19972466E+00 0.22217079E+04</pdfrwt>
<pdfrwt beam="2">  1       -1 0.14623641E+00 0.22217079E+04</pdfrwt>
<totfact> 0.30840573E+00</totfact>
</mgrwt>
</event>
<event>
 6    1  0.1588846E-005  0.3309565E+04  0.7818608E-02  0.8160466E-01
          2   -1    0    0  501    0  0.00000000000E+00  0.00000000000E+00  0.14608678608E+04  0.14608678608E+04  0.00000000000E+00 0.  1.
         -2   -1    0    0    0  501 -0.00000000000E+00 -0.00000000000E+00 -0.18744369197E+04  0.18744369197E+04  0.00000000000E+00 0. -1.
         23    2    1    2    0    0  0.12183541891E+04 -0.75896771349E+03  0.62013257440E+03  0.15664186940E+04  0.93189028086E+02 0.  0.
         11    1    3    3    0    0  0.76138799782E+03 -0.52478991849E+03  0.38507357139E+03  0.10016974579E+04  0.00000000000E+00 0. -1.
        -11    1    3    3    0    0  0.45696619125E+03 -0.23417779499E+03  0.23505900301E+03  0.56472123611E+03  0.00000000000E+00 0.  1.
         22    1    1    2    0    0 -0.12183541891E+04  0.75896771349E+03 -0.10337016333E+04  0.17688860864E+04  0.00000000000E+00 0. -1.
<mgrwt>
<rscale>  0 0.33095647E+04</rscale>
<asrwt>0</asrwt>
<pdfrwt beam="1">  1        2 0.22474890E+00 0.33095647E+04</pdfrwt>
<pdfrwt beam="2">  1       -2 0.28837491E+00 0.33095647E+04</pdfrwt>
<totfact> 0.41733117E-01</totfact>
</mgrwt>
</event>
<event>
 6    1  0.1588846E-005  0.1579308E+04  0.7818608E-02  0.8833362E-01
         -2   -1    0    0    0  501 -0.00000000000E+00  0.00000000000E+00  0.45566660098E+03  0.45566660098E+03  0.00000000000E+00 0.  1.
          2   -1    0    0  501    0  0.00000000000E+00 -0.00000000000E+00 -0.13684417004E+04  0.13684417004E+04  0.00000000000E+00 0. -1.
         23    2    1    2    0    0 -0.30839873889E+03 -0.24902284638E+03  0.32739133918E+03  0.52213481639E+03  0.91200424025E+02 0.  0.
         13    1    3    3    0    0 -0.19284419791E+03 -0.20506660416E+03  0.20557736178E+03  0.34857316088E+03  0.00000000000E+00 0.  1.
        -13    1    3    3    0    0 -0.11555454098E+03 -0.43956242218E+02  0.12181397741E+03  0.17356165550E+03  0.00000000000E+00 0. -1.
         22    1    1    2    0    0  0.30839873889E+03  0.24902284638E+03 -0.12401664386E+04  0.13019734850E+04  0.00000000000E+00 0. -1.
<mgrwt>
<rscale>  0 0.15793077E+04</rscale>
<asrwt>0</asrwt>
<pdfrwt beam="1">  1        2 0.21052949E+00 0.15793077E+04</pdfrwt>
<pdfrwt beam="2">  1       -2 0.70102553E-01 0.15793077E+04</pdfrwt>
<totfact> 0.26850752E+01</totfact>
</mgrwt>
</event>
<event>
 6    1  0.1588846E-005  0.1256288E+04  0.7818608E-02  0.9064966E-01
         -2   -1    0    0    0  501 -0.00000000000E+00  0.00000000000E+00  0.86770883006E+03  0.86770883006E+03  0.00000000000E+00 0.  1.
          2   -1    0    0  501    0  0.00000000000E+00 -0.00000000000E+00 -0.45472039194E+03  0.45472039194E+03  0.00000000000E+00 0. -1.
         23    2    1    2    0    0 -0.32190611355E+03 -0.22658479350E+03  0.71837137281E+03  0.82420943979E+03  0.91101903239E+02 0.  0.
         13    1    3    3    0    0 -0.22636101999E+03 -0.19157085662E+03  0.59059794976E+03  0.66086658468E+03  0.00000000000E+00 0.  1.
        -13    1    3    3    0    0 -0.95545093552E+02 -0.35013936885E+02  0.12777342305E+03  0.16334285511E+03  0.00000000000E+00 0. -1.
         22    1    1    2    0    0  0.32190611355E+03  0.22658479350E+03 -0.30538293470E+03  0.49821978221E+03  0.00000000000E+00 0. -1.
<mgrwt>
<rscale>  0 0.12562880E+04</rscale>
<asrwt>0</asrwt>
<pdfrwt beam="1">  1        2 0.69956983E-01 0.12562880E+04</pdfrwt>
<pdfrwt beam="2">  1       -2 0.13349367E+00 0.12562880E+04</pdfrwt>
<totfact> 0.27409393E+01</totfact>
</mgrwt>
</event>
<event>
 6    1  0.1588846E-005  0.4582484E+04  0.7818608E-02  0.7896353E-01
         -2   -1    0    0    0  501 -0.00000000000E+00  0.00000000000E+00  0.33520717548E+04  0.33520717548E+04  0.00000000000E+00 0.  1.
          2   -1    0    0  501    0  0.00000000000E+00 -0.00000000000E+00 -0.15661326685E+04  0.15661326685E+04  0.00000000000E+00 0. -1.
         23    2    1    2    0    0  0.41657294403E+03  0.15902199382E+04  0.26049147487E+04  0.30816169342E+04  0.91921769136E+02 0.  0.
         11    1    3    3    0    0  0.28364251125E+03  0.95193610936E+03  0.15154325275E+04  0.18119523106E+04  0.00000000000E+00 0.  1.
        -11    1    3    3    0    0  0.13293043278E+03  0.63828382881E+03  0.10894822212E+04  0.12696646236E+04  0.00000000000E+00 0. -1.
         22    1    1    2    0    0 -0.41657294403E+03 -0.15902199382E+04 -0.81897566238E+03  0.18365874891E+04  0.00000000000E+00 0. -1.
<mgrwt>
<rscale>  0 0.45824836E+04</rscale>
<asrwt>0</asrwt>
<pdfrwt beam="1">  1        2 0.24094349E+00 0.45824836E+04</pdfrwt>
<pdfrwt beam="2">  1       -2 0.51570334E+00 0.45824836E+04</pdfrwt>
<totfact> 0.11673613E-02</totfact>
</mgrwt>
</event>
<event>
 6    1  0.1588846E-005  0.1921064E+04  0.7818608E-02  0.8644442E-01
          1   -1    0    0  501    0  0.00000000000E+00  0.00000000000E+00  0.91598465938E+03  0.91598465938E+03  0.00000000000E+00 0. -1.
         -1   -1    0    0    0  501 -0.00000000000E+00 -0.00000000000E+00 -0.10072454558E+04  0.10072454558E+04  0.00000000000E+00 0.  1.
         23    2    1    2    0    0  0.70485307528E+03  0.64721001197E+03 -0.10052540394E+03  0.96626381993E+03  0.88666541286E+02 0.  0.
         13    1    3    3    0    0  0.31012065197E+03  0.32576333101E+03 -0.79682682432E+02  0.45677773204E+03  0.00000000000E+00 0. -1.
        -13    1    3    3    0    0  0.39473242332E+03  0.32144668096E+03 -0.20842721508E+02  0.50948608789E+03  0.00000000000E+00 0.  1.
         22    1    1    2    0    0 -0.70485307528E+03 -0.64721001197E+03  0.92646074945E+01  0.95696629527E+03  0.00000000000E+00 0. -1.
<mgrwt>
<rscale>  0 0.19210636E+04</rscale>
<asrwt>0</asrwt>
<pdfrwt beam="1">  1        1 0.14092072E+00 0.19210636E+04</pdfrwt>
<pdfrwt beam="2">  1       -1 0.15496084E+00 0.19210636E+04</pdfrwt>
<totfact> 0.52665261E+00</totfact>
</mgrwt>
</event>
<event>
 6    1  0.1588846E-005  0.3530387E+04  0.7818608E-02  0.8106626E-01
          1   -1    0    0  501    0  0.00000000000E+00  0.00000000000E+00  0.28147275048E+04  0.28147275048E+04  0.00000000000E+00 0. -1.
         -1   -1    0    0    0  501 -0.00000000000E+00 -0.00000000000E+00 -0.11070015729E+04  0.11070015729E+04  0.00000000000E+00 0.  1.
         23    2    1    2    0    0 -0.93577696504E+02  0.78151920886E+03  0.26081140161E+04  0.27258077754E+04  0.90775814876E+02 0.  0.
         13    1    3    3    0    0 -0.11107828372E+03  0.65349693196E+03  0.21575389434E+04  0.22570713142E+04  0.00000000000E+00 0. -1.
        -13    1    3    3    0    0  0.17500587220E+02  0.12802227690E+03  0.45057507270E+03  0.46873646121E+03  0.00000000000E+00 0.  1.
         22    1    1    2    0    0  0.93577696504E+02 -0.78151920886E+03 -0.90038808413E+03  0.11959213022E+04  0.00000000000E+00 0.  1.
<mgrwt>
<rscale>  0 0.35303868E+04</rscale>
<asrwt>0</asrwt>
<pdfrwt beam="1">  1        1 0.43303500E+00 0.35303868E+04</pdfrwt>
<pdfrwt beam="2">  1       -1 0.17030794E+00 0.35303868E+04</pdfrwt>
<totfact> 0.16195796E-01</totfact>
</mgrwt>
</event>
<event>
 6    1  0.1588846E-005  0.1897787E+04  0.7818608E-02  0.8655958E-01
          2   -1    0    0  501    0  0.00000000000E+00  0.00000000000E+00  0.13498934904E+04  0.13498934904E+04  0.00000000000E+00 0. -1.
         -2   -1    0    0    0  501 -0.00000000000E+00 -0.00000000000E+00 -0.66701506390E+03  0.66701506390E+03  0.00000000000E+00 0.  1.
         23    2    1    2    0    0 -0.80379183596E+03 -0.37997027213E+03  0.68787578273E+03  0.11278170535E+04  0.91320810065E+02 0.  0.
         13    1    3    3    0    0 -0.96798452357E+02 -0.46477020582E+02  0.47992965795E+02  0.11761538414E+03  0.00000000000E+00 0. -1.
        -13    1    3    3    0    0 -0.70699338360E+03 -0.33349325155E+03  0.63988281693E+03  0.10102016693E+04  0.00000000000E+00 0.  1.
         22    1    1    2    0    0  0.80379183596E+03  0.37997027213E+03 -0.49973562454E+01  0.88909150082E+03  0.00000000000E+00 0.  1.
<mgrwt>
<rscale>  0 0.18977874E+04</rscale>
<asrwt>0</asrwt>
<pdfrwt beam="1">  1        2 0.20767592E+00 0.18977874E+04</pdfrwt>
<pdfrwt beam="2">  1       -2 0.10261770E+00 0.18977874E+04</pdfrwt>
<totfact> 0.11252140E+01</totfact>
</mgrwt>
</event>
<event>
 6    1  0.1588846E-005  0.2161525E+04  0.7818608E-02  0.8534615E-01
          2   -1    0    0  501    0  0.00000000000E+00  0.00000000000E+00  0.14303174146E+04  0.14303174146E+04  0.00000000000E+00 0. -1.
         -2   -1    0    0    0  501 -0.00000000000E+00 -0.00000000000E+00 -0.81663499543E+03  0.81663499543E+03  0.00000000000E+00 0.  1.
         23    2    1    2    0    0  0.66112020831E+03 -0.82722196496E+03  0.52129731238E+03  0.11839796366E+04  0.93170718572E+02 0.  0.
         11    1    3    3    0    0  0.10568989966E+03 -0.12325510235E+03  0.11825704068E+03  0.20086538481E+03  0.00000000000E+00 0. -1.
        -11    1    3    3    0    0  0.55543030866E+03 -0.70396686262E+03  0.40304027170E+03  0.98311425178E+03  0.00000000000E+00 0.  1.
         22    1    1    2    0    0 -0.66112020831E+03  0.82722196496E+03  0.92385106805E+02  0.10629727735E+04  0.00000000000E+00 0. -1.
<mgrwt>
<rscale>  0 0.21615247E+04</rscale>
<asrwt>0</asrwt>
<pdfrwt beam="1">  1        2 0.22004883E+00 0.21615247E+04</pdfrwt>
<pdfrwt beam="2">  1       -2 0.12563615E+00 0.21615247E+04</pdfrwt>
<totfact> 0.60366875E+00</totfact>
</mgrwt>
</event>
<event>
 6    1  0.1588846E-005  0.4330497E+04  0.7818608E-02  0.7941003E-01
         -3   -1    0    0    0  501 -0.00000000000E+00  0.00000000000E+00  0.28562760477E+04  0.28562760477E+04  0.00000000000E+00 0.  1.
          3   -1    0    0  501    0  0.00000000000E+00 -0.00000000000E+00 -0.16414031125E+04  0.16414031125E+04  0.00000000000E+00 0. -1.
         23    2    1    2    0    0  0.10605528104E+04  0.89429963564E+03  0.23331351617E+04  0.27158108965E+04  0.86977243743E+02 0.  0.
         11    1    3    3    0    0  0.63576685236E+03  0.53909675521E+03  0.13178534453E+04  0.15593468201E+04  0.00000000000E+00 0.  1.
        -11    1    3    3    0    0  0.42478595805E+03  0.35520288043E+03  0.10152817163E+04  0.11564640764E+04  0.00000000000E+00 0. -1.
         22    1    1    2    0    0 -0.10605528104E+04 -0.89429963564E+03 -0.11182622265E+04  0.17818682637E+04  0.00000000000E+00 0. -1.
<mgrwt>
<rscale>  0 0.43304967E+04</rscale>
<asrwt>0</asrwt>
<pdfrwt beam="1">  1        3 0.25252356E+00 0.43304967E+04</pdfrwt>
<pdfrwt beam="2">  1       -3 0.43942709E+00 0.43304967E+04</pdfrwt>
<totfact> 0.90643928E-04</totfact>
</mgrwt>
</event>
<event>
 6    1  0.1588846E-005  0.3094657E+04  0.7818608E-02  0.8217206E-01
          2   -1    0    0  501    0  0.00000000000E+00  0.00000000000E+00  0.90796618994E+03  0.90796618994E+03  0.00000000000E+00 0. -1.
         -2   -1    0    0    0  501 -0.00000000000E+00 -0.00000000000E+00 -0.26369099846E+04  0.26369099846E+04  0.00000000000E+00 0.  1.
         23    2    1    2    0    0  0.60102056377E+02  0.15212377973E+04 -0.55695592235E+03  0.16235921597E+04  0.89860494402E+02 0.  0.
         11    1    3    3    0    0  0.60348775324E+02  0.83735657425E+03 -0.34458851117E+03  0.90749614277E+03  0.00000000000E+00 0.  1.
        -11    1    3    3    0    0 -0.24671894611E+00  0.68388122302E+03 -0.21236741118E+03  0.71609601689E+03  0.00000000000E+00 0. -1.
         22    1    1    2    0    0 -0.60102056377E+02 -0.15212377973E+04 -0.11719878723E+04  0.19212840149E+04  0.00000000000E+00 0. -1.
<mgrwt>
<rscale>  0 0.30946568E+04</rscale>
<asrwt>0</asrwt>
<pdfrwt beam="1">  1        2 0.13968710E+00 0.30946568E+04</pdfrwt>
<pdfrwt beam="2">  1       -2 0.40567847E+00 0.30946568E+04</pdfrwt>
<totfact> 0.16744087E-01</totfact>
</mgrwt>
</event>
<event>
 6    1  0.1588846E-005  0.2854436E+04  0.7818608E-02  0.8286565E-01
         -2   -1    0    0    0  501 -0.00000000000E+00  0.00000000000E+00  0.73049744919E+03  0.73049744919E+03  0.00000000000E+00 0.  1.
          2   -1    0    0  501    0  0.00000000000E+00 -0.00000000000E+00 -0.27884441279E+04  0.27884441279E+04  0.00000000000E+00 0. -1.
         23    2    1    2    0    0 -0.70756212583E+03 -0.11609383736E+04 -0.50076235787E+03  0.14517586925E+04  0.91751257175E+02 0.  0.
         11    1    3    3    0    0 -0.37529222971E+03 -0.52773303746E+03 -0.23869515818E+03  0.69016070233E+03  0.00000000000E+00 0.  1.
        -11    1    3    3    0    0 -0.33226989612E+03 -0.63320533610E+03 -0.26206719968E+03  0.76159799021E+03  0.00000000000E+00 0. -1.
         22    1    1    2    0    0  0.70756212583E+03  0.11609383736E+04 -0.15571843208E+04  0.20671828846E+04  0.00000000000E+00 0. -1.
<mgrwt>
<rscale>  0 0.28544361E+04</rscale>
<asrwt>0</asrwt>
<pdfrwt beam="1">  1        2 0.42899140E+00 0.28544361E+04</pdfrwt>
<pdfrwt beam="2">  1       -2 0.11238422E+00 0.28544361E+04</pdfrwt>
<totfact> 0.12691349E+00</totfact>
</mgrwt>
</event>
<event>
 6    1  0.1588846E-005  0.1701643E+04  0.7818608E-02  0.8760428E-01
          1   -1    0    0  501    0  0.00000000000E+00  0.00000000000E+00  0.67031790346E+03  0.67031790346E+03  0.00000000000E+00 0. -1.
         -1   -1    0    0    0  501 -0.00000000000E+00 -0.00000000000E+00 -0.10799311896E+04  0.10799311896E+04  0.00000000000E+00 0.  1.
         23    2    1    2    0    0  0.23685414012E+03  0.39251137856E+03  0.52878249601E+03  0.70585850046E+03  0.91979500994E+02 0.  0.
         13    1    3    3    0    0  0.31265039097E+02  0.10014945536E+03  0.16759529168E+03  0.19772606776E+03  0.00000000000E+00 0. -1.
        -13    1    3    3    0    0  0.20558910102E+03  0.29236192319E+03  0.36118720433E+03  0.50813243270E+03  0.00000000000E+00 0.  1.
         22    1    1    2    0    0 -0.23685414012E+03 -0.39251137856E+03 -0.93839578219E+03  0.10443905926E+04  0.00000000000E+00 0.  1.
<mgrwt>
<rscale>  0 0.17016430E+04</rscale>
<asrwt>0</asrwt>
<pdfrwt beam="1">  1        1 0.10312583E+00 0.17016430E+04</pdfrwt>
<pdfrwt beam="2">  1       -1 0.16614326E+00 0.17016430E+04</pdfrwt>
<totfact> 0.72727255E+00</totfact>
</mgrwt>
</event>
<event>
 6    1  0.1588846E-005  0.1692492E+04  0.7818608E-02  0.8765658E-01
         -2   -1    0    0    0  501 -0.00000000000E+00  0.00000000000E+00  0.52491780495E+03  0.52491780495E+03  0.00000000000E+00 0.  1.
          2   -1    0    0  501    0  0.00000000000E+00 -0.00000000000E+00 -0.13642746929E+04  0.13642746929E+04  0.00000000000E+00 0. -1.
         23    2    1    2    0    0 -0.57004618780E+03  0.39724113418E+03 -0.95530732175E+03  0.11847794954E+04  0.91308262157E+02 0.  0.
         13    1    3    3    0    0 -0.35015417500E+03  0.24416625432E+03 -0.66024621636E+03  0.78622526812E+03  0.00000000000E+00 0.  1.
        -13    1    3    3    0    0 -0.21989201281E+03  0.15307487986E+03 -0.29506110539E+03  0.39855422724E+03  0.00000000000E+00 0. -1.
         22    1    1    2    0    0  0.57004618780E+03 -0.39724113418E+03  0.11595043384E+03  0.70441300245E+03  0.00000000000E+00 0.  1.
<mgrwt>
<rscale>  0 0.16924917E+04</rscale>
<asrwt>0</asrwt>
<pdfrwt beam="1">  1        2 0.20988841E+00 0.16924917E+04</pdfrwt>
<pdfrwt beam="2">  1       -2 0.80756587E-01 0.16924917E+04</pdfrwt>
<totfact> 0.19548775E+01</totfact>
</mgrwt>
</event>
<event>
 6    1  0.1588846E-005  0.3338010E+03  0.7818608E-02  0.1069467E+00
         -2   -1    0    0    0  501 -0.00000000000E+00  0.00000000000E+00  0.33051947698E+02  0.33051947698E+02  0.00000000000E+00 0.  1.
          2   -1    0    0  501    0  0.00000000000E+00 -0.00000000000E+00 -0.84278773329E+03  0.84278773329E+03  0.00000000000E+00 0. -1.
         23    2    1    2    0    0 -0.74680557031E+02 -0.89150637240E+02 -0.16767952656E+03  0.22333584078E+03  0.90760412254E+02 0.  0.
         11    1    3    3    0    0 -0.22609550126E+01 -0.34599116215E+02 -0.23193037745E+01  0.34750394680E+02  0.00000000000E+00 0. -1.
        -11    1    3    3    0    0 -0.72419602019E+02 -0.54551521025E+02 -0.16536022278E+03  0.18858544610E+03  0.00000000000E+00 0.  1.
         22    1    1    2    0    0  0.74680557031E+02  0.89150637240E+02 -0.64205625904E+03  0.65250384021E+03  0.00000000000E+00 0. -1.
<mgrwt>
<rscale>  0 0.33380100E+03</rscale>
<asrwt>0</asrwt>
<pdfrwt beam="1">  1        2 0.12965963E+00 0.33380100E+03</pdfrwt>
<pdfrwt beam="2">  1       -2 0.50849160E-02 0.33380100E+03</pdfrwt>
<totfact> 0.63485076E+03</totfact>
</mgrwt>
</event>
<event>
 6    1  0.1588846E-005  0.3977649E+04  0.7818608E-02  0.8009071E-01
         -2   -1    0    0    0  501 -0.00000000000E+00  0.00000000000E+00  0.15455258476E+04  0.15455258476E+04  0.00000000000E+00 0.  1.
          2   -1    0    0  501    0  0.00000000000E+00 -0.00000000000E+00 -0.25592735283E+04  0.25592735283E+04  0.00000000000E+00 0. -1.
         23    2    1    2    0    0 -0.50295415163E+03 -0.10828475037E+04 -0.21472397087E+04  0.24584926692E+04  0.89589302289E+02 0.  0.
         13    1    3    3    0    0 -0.20761070060E+03 -0.55045446862E+03 -0.10763616657E+04  0.12266445126E+04  0.00000000000E+00 0.  1.
        -13    1    3    3    0    0 -0.29534345103E+03 -0.53239303507E+03 -0.10708780431E+04  0.12318481566E+04  0.00000000000E+00 0. -1.
         22    1    1    2    0    0  0.50295415163E+03  0.10828475037E+04  0.11334920280E+04  0.16463067067E+04  0.00000000000E+00 0.  1.
<mgrwt>
<rscale>  0 0.39776493E+04</rscale>
<asrwt>0</asrwt>
<pdfrwt beam="1">  1        2 0.39373439E+00 0.39776493E+04</pdfrwt>
<pdfrwt beam="2">  1       -2 0.23777321E+00 0.39776493E+04</pdfrwt>
<totfact> 0.19429783E-01</totfact>
</mgrwt>
</event>
<event>
 6    1  0.1588846E-005  0.2558681E+04  0.7818608E-02  0.8382373E-01
         -2   -1    0    0    0  501 -0.00000000000E+00  0.00000000000E+00  0.97107466638E+03  0.97107466638E+03  0.00000000000E+00 0.  1.
          2   -1    0    0  501    0  0.00000000000E+00 -0.00000000000E+00 -0.16854644021E+04  0.16854644021E+04  0.00000000000E+00 0. -1.
         23    2    1    2    0    0 -0.66147646052E+03  0.77752913710E+03  0.44017566500E+03  0.11153953596E+04  0.90826897418E+02 0.  0.
         13    1    3    3    0    0 -0.43892062454E+03  0.56656154380E+03  0.33584603794E+03  0.79147701088E+03  0.00000000000E+00 0.  1.
        -13    1    3    3    0    0 -0.22255583598E+03  0.21096759330E+03  0.10432962706E+03  0.32391834871E+03  0.00000000000E+00 0. -1.
         22    1    1    2    0    0  0.66147646052E+03 -0.77752913710E+03 -0.11545654007E+04  0.15411437089E+04  0.00000000000E+00 0. -1.
<mgrwt>
<rscale>  0 0.25586807E+04</rscale>
<asrwt>0</asrwt>
<pdfrwt beam="1">  1        2 0.25930221E+00 0.25586807E+04</pdfrwt>
<pdfrwt beam="2">  1       -2 0.14939610E+00 0.25586807E+04</pdfrwt>
<totfact> 0.26860804E+00</totfact>
</mgrwt>
</event>
<event>
 6    1  0.1588846E-005  0.1582981E+04  0.7818608E-02  0.8831072E-01
          2   -1    0    0  501    0  0.00000000000E+00  0.00000000000E+00  0.98555991049E+03  0.98555991049E+03  0.00000000000E+00 0. -1.
         -2   -1    0    0    0  501 -0.00000000000E+00 -0.00000000000E+00 -0.63563556569E+03  0.63563556569E+03  0.00000000000E+00 0.  1.
         23    2    1    2    0    0  0.43741428947E+03 -0.65162518530E+03  0.93433495917E+02  0.79552350844E+03  0.90449939572E+02 0.  0.
         11    1    3    3    0    0  0.12432409095E+03 -0.17619786205E+03 -0.14465737478E+02  0.21612825763E+03  0.00000000000E+00 0.  1.
        -11    1    3    3    0    0  0.31309019852E+03 -0.47542732324E+03  0.10789923340E+03  0.57939525081E+03  0.00000000000E+00 0. -1.
         22    1    1    2    0    0 -0.43741428947E+03  0.65162518530E+03  0.25649084888E+03  0.82567196774E+03  0.00000000000E+00 0.  1.
<mgrwt>
<rscale>  0 0.15829806E+04</rscale>
<asrwt>0</asrwt>
<pdfrwt beam="1">  1        2 0.15162460E+00 0.15829806E+04</pdfrwt>
<pdfrwt beam="2">  1       -2 0.97790087E-01 0.15829806E+04</pdfrwt>
<totfact> 0.21521767E+01</totfact>
</mgrwt>
</event>
<event>
 6    1  0.1588846E-005  0.1320285E+04  0.7818608E-02  0.9013632E-01
          1   -1    0    0  501    0  0.00000000000E+00  0.00000000000E+00  0.11035450378E+04  0.11035450378E+04  0.00000000000E+00 0. -1.
         -1   -1    0    0    0  501 -0.00000000000E+00 -0.00000000000E+00 -0.39489852786E+03  0.39489852786E+03  0.00000000000E+00 0.  1.
         23    2    1    2    0    0  0.63082332180E+03  0.37484044680E+02  0.15283207482E+03  0.65685411513E+03  0.93576538361E+02 0.  0.
         13    1    3    3    0    0  0.18994720675E+03 -0.31629596350E+02  0.45050660188E+02  0.19776231871E+03  0.00000000000E+00 0. -1.
        -13    1    3    3    0    0  0.44087611505E+03  0.69113641030E+02  0.10778141463E+03  0.45909179642E+03  0.00000000000E+00 0.  1.
         22    1    1    2    0    0 -0.63082332180E+03 -0.37484044680E+02  0.55581443508E+03  0.84158945049E+03  0.00000000000E+00 0. -1.
<mgrwt>
<rscale>  0 0.13202853E+04</rscale>
<asrwt>0</asrwt>
<pdfrwt beam="1">  1        1 0.16977616E+00 0.13202853E+04</pdfrwt>
<pdfrwt beam="2">  1       -1 0.60753620E-01 0.13202853E+04</pdfrwt>
<totfact> 0.33965299E+01</totfact>
</mgrwt>
</event>
<event>
 6    1  0.1588846E-005  0.2425024E+04  0.7818608E-02  0.8430194E-01
         -1   -1    0    0    0  501 -0.00000000000E+00  0.00000000000E+00  0.18096495754E+04  0.18096495754E+04  0.00000000000E+00 0.  1.
          1   -1    0    0  501    0  0.00000000000E+00 -0.00000000000E+00 -0.81241432718E+03  0.81241432718E+03  0.00000000000E+00 0. -1.
         23    2    1    2    0    0 -0.50921497617E+03  0.93888057247E+03 -0.11726166127E+03  0.10783994369E+04  0.91642932052E+02 0.  0.
         13    1    3    3    0    0 -0.34069385468E+03  0.64065271066E+03 -0.36873838933E+02  0.72654516603E+03  0.00000000000E+00 0. -1.
        -13    1    3    3    0    0 -0.16852112149E+03  0.29822786181E+03 -0.80387822342E+02  0.35185427087E+03  0.00000000000E+00 0.  1.
         22    1    1    2    0    0  0.50921497617E+03 -0.93888057247E+03  0.11144969095E+04  0.15436644657E+04  0.00000000000E+00 0.  1.
<mgrwt>
<rscale>  0 0.24250239E+04</rscale>
<asrwt>0</asrwt>
<pdfrwt beam="1">  1        1 0.12498682E+00 0.24250239E+04</pdfrwt>
<pdfrwt beam="2">  1       -1 0.27840763E+00 0.24250239E+04</pdfrwt>
<totfact> 0.87894820E-01</totfact>
</mgrwt>
</event>
<event>
 6    1  0.1588846E-005  0.2729085E+04  0.7818608E-02  0.8325629E-01
          3   -1    0    0  501    0  0.00000000000E+00  0.00000000000E+00  0.23887467157E+04  0.23887467157E+04  0.00000000000E+00 0. -1.
         -3   -1    0    0    0  501 -0.00000000000E+00 -0.00000000000E+00 -0.77947851297E+03  0.77947851297E+03  0.00000000000E+00 0.  1.
         23    2    1    2    0    0  0.38239930671E+03  0.59059211242E+03 -0.54954650616E+03  0.89765058327E+03  0.93525045778E+02 0.  0.
         13    1    3    3    0    0  0.22018031146E+03  0.25625614246E+03 -0.24860616343E+03  0.41946585629E+03  0.00000000000E+00 0. -1.
        -13    1    3    3    0    0  0.16221899525E+03  0.33433596996E+03 -0.30094034273E+03  0.47818472698E+03  0.00000000000E+00 0.  1.
         22    1    1    2    0    0 -0.38239930671E+03 -0.59059211242E+03  0.21588147089E+04  0.22705746454E+04  0.00000000000E+00 0. -1.
<mgrwt>
<rscale>  0 0.27290854E+04</rscale>
<asrwt>0</asrwt>
<pdfrwt beam="1">  1        3 0.36749949E+00 0.27290854E+04</pdfrwt>
<pdfrwt beam="2">  1       -3 0.11991977E+00 0.27290854E+04</pdfrwt>
<totfact> 0.21397817E-02</totfact>
</mgrwt>
</event>
<event>
 6    1  0.1588846E-005  0.3122984E+04  0.7818608E-02  0.8209458E-01
          1   -1    0    0  501    0  0.00000000000E+00  0.00000000000E+00  0.28441300026E+04  0.28441300026E+04  0.00000000000E+00 0. -1.
         -1   -1    0    0    0  501 -0.00000000000E+00 -0.00000000000E+00 -0.85729440066E+03  0.85729440066E+03  0.00000000000E+00 0.  1.
         23    2    1    2    0    0  0.11109227569E+04 -0.57228881583E+03 -0.11275916278E+03  0.12580738274E+04  0.91494622880E+02 0.  0.
         13    1    3    3    0    0  0.43916853600E+03 -0.23790080334E+03 -0.88898826003E+02  0.50731528314E+03  0.00000000000E+00 0. -1.
        -13    1    3    3    0    0  0.67175422085E+03 -0.33438801249E+03 -0.23860336778E+02  0.75075854427E+03  0.00000000000E+00 0.  1.
         22    1    1    2    0    0 -0.11109227569E+04  0.57228881583E+03  0.20995947647E+04  0.24433505758E+04  0.00000000000E+00 0. -1.
<mgrwt>
<rscale>  0 0.31229837E+04</rscale>
<asrwt>0</asrwt>
<pdfrwt beam="1">  1        1 0.43755846E+00 0.31229837E+04</pdfrwt>
<pdfrwt beam="2">  1       -1 0.13189145E+00 0.31229837E+04</pdfrwt>
<totfact> 0.31886629E-01</totfact>
</mgrwt>
</event>
<event>
 6    1  0.1588846E-005  0.2618072E+04  0.7818608E-02  0.8362088E-01
         -2   -1    0    0    0  501 -0.00000000000E+00  0.00000000000E+00  0.87827896136E+03  0.87827896136E+03  0.00000000000E+00 0. -1.
          2   -1    0    0  501    0  0.00000000000E+00 -0.00000000000E+00 -0.19510598724E+04  0.19510598724E+04  0.00000000000E+00 0.  1.
         23    2    1    2    0    0 -0.11464798474E+03 -0.43360936724E+03  0.79014224711E+03  0.91318541168E+03  0.91769176080E+02 0.  0.
         13    1    3    3    0    0 -0.27370925499E+02 -0.25815255235E+03  0.49436619392E+03  0.55838144807E+03  0.00000000000E+00 0. -1.
        -13    1    3    3    0    0 -0.87277059239E+02 -0.17545681489E+03  0.29577605319E+03  0.35480396362E+03  0.00000000000E+00 0.  1.
         22    1    1    2    0    0  0.11464798474E+03  0.43360936724E+03 -0.18629231581E+04  0.19161534221E+04  0.00000000000E+00 0.  1.
<mgrwt>
<rscale>  0 0.26180717E+04</rscale>
<asrwt>0</asrwt>
<pdfrwt beam="1">  1        2 0.30016305E+00 0.26180717E+04</pdfrwt>
<pdfrwt beam="2">  1       -2 0.13511984E+00 0.26180717E+04</pdfrwt>
<totfact> 0.24732069E+00</totfact>
</mgrwt>
</event>
<event>
 6    1  0.1588846E-005  0.4019494E+04  0.7818608E-02  0.8000626E-01
         -2   -1    0    0    0  501 -0.00000000000E+00  0.00000000000E+00  0.15599030713E+04  0.15599030713E+04  0.00000000000E+00 0.  1.
          2   -1    0    0  501    0  0.00000000000E+00 -0.00000000000E+00 -0.25893167109E+04  0.25893167109E+04  0.00000000000E+00 0. -1.
         23    2    1    2    0    0  0.29955757221E+03  0.14519550368E+04  0.88416375007E+03  0.17285408290E+04  0.90552152726E+02 0.  0.
         11    1    3    3    0    0  0.27353757873E+03  0.12037844550E+04  0.76198912600E+03  0.14507057762E+04  0.00000000000E+00 0. -1.
        -11    1    3    3    0    0  0.26019993477E+02  0.24817058185E+03  0.12217462408E+03  0.27783505273E+03  0.00000000000E+00 0.  1.
         22    1    1    2    0    0 -0.29955757221E+03 -0.14519550368E+04 -0.19135773897E+04  0.24206789532E+04  0.00000000000E+00 0. -1.
<mgrwt>
<rscale>  0 0.40194940E+04</rscale>
<asrwt>0</asrwt>
<pdfrwt beam="1">  1        2 0.39835641E+00 0.40194940E+04</pdfrwt>
<pdfrwt beam="2">  1       -2 0.23998509E+00 0.40194940E+04</pdfrwt>
<totfact> 0.18016935E-01</totfact>
</mgrwt>
</event>
<event>
 6    1  0.1757202E-005  0.3131902E+04  0.7818608E-02  0.8207037E-01
         -1   -1    0    0    0  501 -0.00000000000E+00  0.00000000000E+00  0.10110194882E+04  0.10110194882E+04  0.00000000000E+00 0.  1.
          1   -1    0    0  501    0  0.00000000000E+00 -0.00000000000E+00 -0.24254747551E+04  0.24254747551E+04  0.00000000000E+00 0. -1.
         23    2    1    2    0    0 -0.76632724244E+03  0.10599966489E+03 -0.22004238950E+04  0.23336615018E+04  0.74948754781E+02 0.  0.
         13    1    3    3    0    0 -0.21129349787E+03  0.46863568290E+01 -0.53318615831E+03  0.57354545034E+03  0.00000000000E+00 0. -1.
        -13    1    3    3    0    0 -0.55503374457E+03  0.10131330806E+03 -0.16672377366E+04  0.17601160514E+04  0.00000000000E+00 0.  1.
         22    1    1    2    0    0  0.76632724244E+03 -0.10599966489E+03  0.78596862806E+03  0.11028327415E+04  0.00000000000E+00 0.  1.
<mgrwt>
<rscale>  0 0.31319018E+04</rscale>
<asrwt>0</asrwt>
<pdfrwt beam="1">  1        1 0.37314996E+00 0.31319018E+04</pdfrwt>
<pdfrwt beam="2">  1       -1 0.15554146E+00 0.31319018E+04</pdfrwt>
<totfact> 0.40569988E-01</totfact>
</mgrwt>
</event>
<event>
 6    1  0.1588846E-005  0.1988566E+04  0.7818608E-02  0.8611985E-01
         -2   -1    0    0    0  501 -0.00000000000E+00  0.00000000000E+00  0.38205966577E+03  0.38205966577E+03  0.00000000000E+00 0.  1.
          2   -1    0    0  501    0  0.00000000000E+00 -0.00000000000E+00 -0.25875508656E+04  0.25875508656E+04  0.00000000000E+00 0. -1.
         23    2    1    2    0    0 -0.28769002115E+03  0.91397805777E+03 -0.72086568541E+03  0.12026259937E+04  0.92414857726E+02 0.  0.
         13    1    3    3    0    0 -0.16182309370E+03  0.64332812887E+03 -0.51931496982E+03  0.84246414341E+03  0.00000000000E+00 0. -1.
        -13    1    3    3    0    0 -0.12586692744E+03  0.27064992890E+03 -0.20155071559E+03  0.36016185027E+03  0.00000000000E+00 0.  1.
         22    1    1    2    0    0  0.28769002115E+03 -0.91397805777E+03 -0.14846255144E+04  0.17669845377E+04  0.00000000000E+00 0. -1.
<mgrwt>
<rscale>  0 0.19885661E+04</rscale>
<asrwt>0</asrwt>
<pdfrwt beam="1">  1        2 0.39808476E+00 0.19885661E+04</pdfrwt>
<pdfrwt beam="2">  1       -2 0.58778409E-01 0.19885661E+04</pdfrwt>
<totfact> 0.77913267E+00</totfact>
</mgrwt>
</event>
<event>
 6    1  0.1588846E-005  0.2780317E+04  0.7818608E-02  0.8309405E-01
         -2   -1    0    0    0  501 -0.00000000000E+00  0.00000000000E+00  0.97295967639E+03  0.97295967639E+03  0.00000000000E+00 0.  1.
          2   -1    0    0  501    0  0.00000000000E+00 -0.00000000000E+00 -0.19862494860E+04  0.19862494860E+04  0.00000000000E+00 0. -1.
         23    2    1    2    0    0  0.76375557024E+03  0.96545294034E+03  0.17675547754E+03  0.12470089006E+04  0.91469930583E+02 0.  0.
         13    1    3    3    0    0  0.27070692593E+03  0.34048570054E+03  0.18431201852E+02  0.43537622951E+03  0.00000000000E+00 0.  1.
        -13    1    3    3    0    0  0.49304864431E+03  0.62496723980E+03  0.15832427569E+03  0.81163267107E+03  0.00000000000E+00 0. -1.
         22    1    1    2    0    0 -0.76375557024E+03 -0.96545294034E+03 -0.11900452871E+04  0.17122002618E+04  0.00000000000E+00 0.  1.
<mgrwt>
<rscale>  0 0.27803170E+04</rscale>
<asrwt>0</asrwt>
<pdfrwt beam="1">  1        2 0.30557684E+00 0.27803170E+04</pdfrwt>
<pdfrwt beam="2">  1       -2 0.14968611E+00 0.27803170E+04</pdfrwt>
<totfact> 0.17857409E+00</totfact>
</mgrwt>
</event>
<event>
 6    1  0.1588846E-005  0.2297764E+04  0.7818608E-02  0.8478803E-01
         -2   -1    0    0    0  501 -0.00000000000E+00  0.00000000000E+00  0.61772347844E+03  0.61772347844E+03  0.00000000000E+00 0.  1.
          2   -1    0    0  501    0  0.00000000000E+00 -0.00000000000E+00 -0.21367653646E+04  0.21367653646E+04  0.00000000000E+00 0. -1.
         23    2    1    2    0    0 -0.43090588120E+03 -0.10371646756E+04 -0.48133767572E+03  0.12253647568E+04  0.91882459156E+02 0.  0.
         11    1    3    3    0    0 -0.30327075990E+03 -0.82467333551E+03 -0.36321459100E+03  0.95078078610E+03  0.00000000000E+00 0. -1.
        -11    1    3    3    0    0 -0.12763512130E+03 -0.21249134010E+03 -0.11812308472E+03  0.27458397068E+03  0.00000000000E+00 0.  1.
         22    1    1    2    0    0  0.43090588120E+03  0.10371646756E+04 -0.10377042104E+04  0.15291240862E+04  0.00000000000E+00 0. -1.
<mgrwt>
<rscale>  0 0.22977642E+04</rscale>
<asrwt>0</asrwt>
<pdfrwt beam="1">  1        2 0.32873314E+00 0.22977642E+04</pdfrwt>
<pdfrwt beam="2">  1       -2 0.95034380E-01 0.22977642E+04</pdfrwt>
<totfact> 0.47314238E+00</totfact>
</mgrwt>
</event>
<event>
 6    1  0.1588846E-005  0.3309808E+04  0.7818608E-02  0.8160404E-01
          2   -1    0    0  501    0  0.00000000000E+00  0.00000000000E+00  0.24163138083E+04  0.24163138083E+04  0.00000000000E+00 0. -1.
         -2   -1    0    0    0  501 -0.00000000000E+00 -0.00000000000E+00 -0.11334239709E+04  0.11334239709E+04  0.00000000000E+00 0.  1.
         23    2    1    2    0    0 -0.15272786831E+04  0.56748166832E+03  0.33847344028E+03  0.16665123676E+04  0.89908741507E+02 0.  0.
         11    1    3    3    0    0 -0.24543093895E+03  0.64744442088E+02  0.74430892434E+02  0.26451492646E+03  0.00000000000E+00 0.  1.
        -11    1    3    3    0    0 -0.12818477442E+04  0.50273722623E+03  0.26404254784E+03  0.14019974411E+04  0.00000000000E+00 0. -1.
         22    1    1    2    0    0  0.15272786831E+04 -0.56748166832E+03  0.94441639715E+03  0.18832254116E+04  0.00000000000E+00 0. -1.
<mgrwt>
<rscale>  0 0.33098084E+04</rscale>
<asrwt>0</asrwt>
<pdfrwt beam="1">  1        2 0.37174058E+00 0.33098084E+04</pdfrwt>
<pdfrwt beam="2">  1       -2 0.17437292E+00 0.33098084E+04</pdfrwt>
<totfact> 0.64440200E-01</totfact>
</mgrwt>
</event>
<event>
 6    1  0.1588846E-005  0.1220521E+04  0.7818608E-02  0.9095082E-01
         -1   -1    0    0    0  501 -0.00000000000E+00  0.00000000000E+00  0.91333046986E+03  0.91333046986E+03  0.00000000000E+00 0.  1.
          1   -1    0    0  501    0  0.00000000000E+00 -0.00000000000E+00 -0.40775823350E+03  0.40775823350E+03  0.00000000000E+00 0. -1.
         23    2    1    2    0    0  0.10995404064E+03  0.14537666387E+03 -0.37219822943E+03  0.42459260405E+03  0.92320593426E+02 0.  0.
         13    1    3    3    0    0  0.55738786299E+02  0.55062030915E+02 -0.25615647982E+03  0.26787083025E+03  0.00000000000E+00 0. -1.
        -13    1    3    3    0    0  0.54215254342E+02  0.90314632957E+02 -0.11604174961E+03  0.15672177380E+03  0.00000000000E+00 0.  1.
         22    1    1    2    0    0 -0.10995404064E+03 -0.14537666387E+03  0.87777046580E+03  0.89649609931E+03  0.00000000000E+00 0.  1.
<mgrwt>
<rscale>  0 0.12205212E+04</rscale>
<asrwt>0</asrwt>
<pdfrwt beam="1">  1        1 0.62732036E-01 0.12205212E+04</pdfrwt>
<pdfrwt beam="2">  1       -1 0.14051238E+00 0.12205212E+04</pdfrwt>
<totfact> 0.23996208E+01</totfact>
</mgrwt>
</event>
<event>
 6    1  0.1588846E-005  0.3742698E+04  0.7818608E-02  0.8058565E-01
         -2   -1    0    0    0  501 -0.00000000000E+00  0.00000000000E+00  0.12325080500E+04  0.12325080500E+04  0.00000000000E+00 0.  1.
          2   -1    0    0  501    0  0.00000000000E+00 -0.00000000000E+00 -0.28413183303E+04  0.28413183303E+04  0.00000000000E+00 0. -1.
         23    2    1    2    0    0  0.41334693817E+03 -0.14527090439E+04  0.39579041936E+03  0.15639173735E+04  0.89264983766E+02 0.  0.
         11    1    3    3    0    0  0.29320769378E+03 -0.11604514254E+04  0.32036517951E+03  0.12390529087E+04  0.00000000000E+00 0. -1.
        -11    1    3    3    0    0  0.12013924439E+03 -0.29225761855E+03  0.75425239851E+02  0.32486446474E+03  0.00000000000E+00 0.  1.
         22    1    1    2    0    0 -0.41334693817E+03  0.14527090439E+04 -0.20046006997E+04  0.25099090069E+04  0.00000000000E+00 0. -1.
<mgrwt>
<rscale>  0 0.37426983E+04</rscale>
<asrwt>0</asrwt>
<pdfrwt beam="1">  1        2 0.43712589E+00 0.37426983E+04</pdfrwt>
<pdfrwt beam="2">  1       -2 0.18961662E+00 0.37426983E+04</pdfrwt>
<totfact> 0.27403099E-01</totfact>
</mgrwt>
</event>
<event>
 6    1  0.1588846E-005  0.1040591E+04  0.7818608E-02  0.9265112E-01
         -1   -1    0    0    0  501 -0.00000000000E+00  0.00000000000E+00  0.53007088690E+03  0.53007088690E+03  0.00000000000E+00 0.  1.
          1   -1    0    0  501    0  0.00000000000E+00 -0.00000000000E+00 -0.51070064792E+03  0.51070064792E+03  0.00000000000E+00 0. -1.
         23    2    1    2    0    0 -0.49282156126E+03 -0.15339074750E+03  0.20679208085E+02  0.52462860301E+03  0.91682761668E+02 0.  0.
         13    1    3    3    0    0 -0.22904612729E+03 -0.11698391017E+03 -0.38969127522E+01  0.25722081874E+03  0.00000000000E+00 0.  1.
        -13    1    3    3    0    0 -0.26377543397E+03 -0.36406837324E+02  0.24576120837E+02  0.26740778426E+03  0.00000000000E+00 0. -1.
         22    1    1    2    0    0  0.49282156126E+03  0.15339074750E+03 -0.13089691035E+01  0.51614293181E+03  0.00000000000E+00 0.  1.
<mgrwt>
<rscale>  0 0.10405913E+04</rscale>
<asrwt>0</asrwt>
<pdfrwt beam="1">  1        1 0.78569331E-01 0.10405913E+04</pdfrwt>
<pdfrwt beam="2">  1       -1 0.81549367E-01 0.10405913E+04</pdfrwt>
<totfact> 0.64490831E+01</totfact>
</mgrwt>
</event>
<event>
 6    1  0.1588846E-005  0.2054477E+04  0.7818608E-02  0.8581566E-01
          1   -1    0    0  501    0  0.00000000000E+00  0.00000000000E+00  0.10297464678E+04  0.10297464678E+04  0.00000000000E+00 0. -1.
         -1   -1    0    0    0  501 -0.00000000000E+00 -0.00000000000E+00 -0.10247369916E+04  0.10247369916E+04  0.00000000000E+00 0.  1.
         23    2    1    2    0    0 -0.29397230940E+03 -0.91156232447E+03  0.36795903279E+03  0.10302286225E+04  0.92798571165E+02 0.  0.
         13    1    3    3    0    0 -0.21541615438E+03 -0.73033999048E+03  0.32604055901E+03  0.82831338718E+03  0.00000000000E+00 0.  1.
        -13    1    3    3    0    0 -0.78556155012E+02 -0.18122233399E+03  0.41918473778E+02  0.20191523536E+03  0.00000000000E+00 0. -1.
         22    1    1    2    0    0  0.29397230940E+03  0.91156232447E+03 -0.36294955657E+03  0.10242548368E+04  0.00000000000E+00 0.  1.
<mgrwt>
<rscale>  0 0.20544774E+04</rscale>
<asrwt>0</asrwt>
<pdfrwt beam="1">  1        1 0.15842253E+00 0.20544774E+04</pdfrwt>
<pdfrwt beam="2">  1       -1 0.15765185E+00 0.20544774E+04</pdfrwt>
<totfact> 0.40337360E+00</totfact>
</mgrwt>
</event>
<event>
 6    1  0.1588846E-005  0.6197403E+03  0.7818608E-02  0.9865277E-01
         -2   -1    0    0    0  501 -0.00000000000E+00  0.00000000000E+00  0.70804038166E+02  0.70804038166E+02  0.00000000000E+00 0.  1.
          2   -1    0    0  501    0  0.00000000000E+00 -0.00000000000E+00 -0.13561306283E+04  0.13561306283E+04  0.00000000000E+00 0. -1.
         23    2    1    2    0    0 -0.42086361219E+01 -0.30303098197E+03 -0.60076520617E+03  0.67828937191E+03  0.85511113023E+02 0.  0.
         11    1    3    3    0    0 -0.39343898760E+02 -0.23552845953E+03 -0.45660655949E+03  0.51527773849E+03  0.00000000000E+00 0. -1.
        -11    1    3    3    0    0  0.35135262638E+02 -0.67502522436E+02 -0.14415864668E+03  0.16301163342E+03  0.00000000000E+00 0.  1.
         22    1    1    2    0    0  0.42086361219E+01  0.30303098197E+03 -0.68456138399E+03  0.74864529459E+03  0.00000000000E+00 0.  1.
<mgrwt>
<rscale>  0 0.61974035E+03</rscale>
<asrwt>0</asrwt>
<pdfrwt beam="1">  1        2 0.20863546E+00 0.61974035E+03</pdfrwt>
<pdfrwt beam="2">  1       -2 0.10892930E-01 0.61974035E+03</pdfrwt>
<totfact> 0.92890033E+02</totfact>
</mgrwt>
</event>
<event>
 6    1  0.1588846E-005  0.1708570E+04  0.7818608E-02  0.8756491E-01
          2   -1    0    0  501    0  0.00000000000E+00  0.00000000000E+00  0.11155665054E+04  0.11155665054E+04  0.00000000000E+00 0. -1.
         -2   -1    0    0    0  501 -0.00000000000E+00 -0.00000000000E+00 -0.65419960961E+03  0.65419960961E+03  0.00000000000E+00 0.  1.
         23    2    1    2    0    0 -0.19718183534E+03  0.32799007490E+03 -0.55708319602E+03  0.68178690798E+03  0.89629990407E+02 0.  0.
         11    1    3    3    0    0 -0.14899258678E+03  0.29247187918E+03 -0.50574839419E+03  0.60292622206E+03  0.00000000000E+00 0. -1.
        -11    1    3    3    0    0 -0.48189248557E+02  0.35518195722E+02 -0.51334801830E+02  0.78860685914E+02  0.00000000000E+00 0.  1.
         22    1    1    2    0    0  0.19718183534E+03 -0.32799007490E+03  0.10184500918E+04  0.10879792070E+04  0.00000000000E+00 0. -1.
<mgrwt>
<rscale>  0 0.17085704E+04</rscale>
<asrwt>0</asrwt>
<pdfrwt beam="1">  1        2 0.17162562E+00 0.17085704E+04</pdfrwt>
<pdfrwt beam="2">  1       -2 0.10064609E+00 0.17085704E+04</pdfrwt>
<totfact> 0.16486963E+01</totfact>
</mgrwt>
</event>
<event>
 6    1  0.1588846E-005  0.3256650E+04  0.7818608E-02  0.8174014E-01
         -2   -1    0    0    0  501 -0.00000000000E+00  0.00000000000E+00  0.88059149711E+03  0.88059149711E+03  0.00000000000E+00 0. -1.
          2   -1    0    0  501    0  0.00000000000E+00 -0.00000000000E+00 -0.30109795526E+04  0.30109795526E+04  0.00000000000E+00 0.  1.
         23    2    1    2    0    0 -0.89667524086E+03 -0.40604694115E+03  0.48214534125E+03  0.10997559851E+04  0.89991614358E+02 0.  0.
         11    1    3    3    0    0 -0.96136309942E+02 -0.49849394616E+02  0.85383858123E+02  0.13790415317E+03  0.00000000000E+00 0.  1.
        -11    1    3    3    0    0 -0.80053893092E+03 -0.35619754654E+03  0.39676148313E+03  0.96185183192E+03  0.00000000000E+00 0. -1.
         22    1    1    2    0    0  0.89667524086E+03  0.40604694115E+03 -0.26125333967E+04  0.27918150646E+04  0.00000000000E+00 0.  1.
<mgrwt>
<rscale>  0 0.32566504E+04</rscale>
<asrwt>0</asrwt>
<pdfrwt beam="1">  1        2 0.46322763E+00 0.32566504E+04</pdfrwt>
<pdfrwt beam="2">  1       -2 0.13547561E+00 0.32566504E+04</pdfrwt>
<totfact> 0.56117794E-01</totfact>
</mgrwt>
</event>
<event>
 6    1  0.1588846E-005  0.2029749E+04  0.7818608E-02  0.8592837E-01
          2   -1    0    0  501    0  0.00000000000E+00  0.00000000000E+00  0.23536631573E+04  0.23536631573E+04  0.00000000000E+00 0. -1.
         -2   -1    0    0    0  501 -0.00000000000E+00 -0.00000000000E+00 -0.43760312516E+03  0.43760312516E+03  0.00000000000E+00 0.  1.
         23    2    1    2    0    0  0.32749450709E+03 -0.23765819660E+02  0.22776783233E+04  0.23028143863E+04  0.85545817782E+02 0.  0.
         11    1    3    3    0    0  0.30456882263E+03 -0.97932648064E+01  0.19098489195E+04  0.19340064558E+04  0.00000000000E+00 0.  1.
        -11    1    3    3    0    0  0.22925684459E+02 -0.13972554853E+02  0.36782940388E+03  0.36880793057E+03  0.00000000000E+00 0. -1.
         22    1    1    2    0    0 -0.32749450709E+03  0.23765819660E+02 -0.36161829117E+03  0.48845189617E+03  0.00000000000E+00 0.  1.
<mgrwt>
<rscale>  0 0.20297491E+04</rscale>
<asrwt>0</asrwt>
<pdfrwt beam="1">  1        2 0.36210202E+00 0.20297491E+04</pdfrwt>
<pdfrwt beam="2">  1       -2 0.67323559E-01 0.20297491E+04</pdfrwt>
<totfact> 0.79269855E+00</totfact>
</mgrwt>
</event>
<event>
 6    1  0.1588846E-005  0.2895140E+04  0.7818608E-02  0.8274325E-01
         -2   -1    0    0    0  501 -0.00000000000E+00  0.00000000000E+00  0.80942406664E+03  0.80942406664E+03  0.00000000000E+00 0.  1.
          2   -1    0    0  501    0  0.00000000000E+00 -0.00000000000E+00 -0.25888273009E+04  0.25888273009E+04  0.00000000000E+00 0. -1.
         23    2    1    2    0    0  0.73103964842E+03 -0.10749605354E+04 -0.16339846873E+04  0.20901589878E+04  0.94337243906E+02 0.  0.
         13    1    3    3    0    0  0.45858721593E+03 -0.61837394761E+03 -0.10206892278E+04  0.12784737281E+04  0.00000000000E+00 0.  1.
        -13    1    3    3    0    0  0.27245243249E+03 -0.45658658780E+03 -0.61329545954E+03  0.81168525971E+03  0.00000000000E+00 0. -1.
         22    1    1    2    0    0 -0.73103964842E+03  0.10749605354E+04 -0.14541854698E+03  0.13080923798E+04  0.00000000000E+00 0.  1.
<mgrwt>
<rscale>  0 0.28951401E+04</rscale>
<asrwt>0</asrwt>
<pdfrwt beam="1">  1        2 0.39828113E+00 0.28951401E+04</pdfrwt>
<pdfrwt beam="2">  1       -2 0.12452678E+00 0.28951401E+04</pdfrwt>
<totfact> 0.12909128E+00</totfact>
</mgrwt>
</event>
<event>
 6    1  0.4071150E-005  0.4634194E+04  0.7818608E-02  0.7887556E-01
          1   -1    0    0  501    0  0.00000000000E+00  0.00000000000E+00  0.19639573209E+04  0.19639573209E+04  0.00000000000E+00 0. -1.
         -1   -1    0    0    0  501 -0.00000000000E+00 -0.00000000000E+00 -0.27337342965E+04  0.27337342965E+04  0.00000000000E+00 0.  1.
         23    2    1    2    0    0  0.36955665825E+03 -0.60829987424E+03 -0.26193551459E+04  0.27158893396E+04  0.91829537556E+02 0.  0.
         13    1    3    3    0    0  0.22433695268E+03 -0.28124297930E+03 -0.13298561924E+04  0.13776582211E+04  0.00000000000E+00 0. -1.
        -13    1    3    3    0    0  0.14521970557E+03 -0.32705689494E+03 -0.12894989535E+04  0.13382311185E+04  0.00000000000E+00 0.  1.
         22    1    1    2    0    0 -0.36955665825E+03  0.60829987424E+03  0.18495781703E+04  0.19818022779E+04  0.00000000000E+00 0. -1.
<mgrwt>
<rscale>  0 0.46341936E+04</rscale>
<asrwt>0</asrwt>
<pdfrwt beam="1">  1        1 0.30214728E+00 0.46341936E+04</pdfrwt>
<pdfrwt beam="2">  1       -1 0.42057451E+00 0.46341936E+04</pdfrwt>
<totfact> 0.12110902E-02</totfact>
</mgrwt>
</event>
<event>
 6    1  0.1588846E-005  0.8335580E+03  0.7818608E-02  0.9512675E-01
         -2   -1    0    0    0  501 -0.00000000000E+00  0.00000000000E+00  0.20318397836E+03  0.20318397836E+03  0.00000000000E+00 0. -1.
          2   -1    0    0  501    0  0.00000000000E+00 -0.00000000000E+00 -0.85491345494E+03  0.85491345494E+03  0.00000000000E+00 0.  1.
         23    2    1    2    0    0 -0.38418545170E+02 -0.28080472496E+03  0.49722404689E+02  0.30155132108E+03  0.90186493145E+02 0.  0.
         11    1    3    3    0    0  0.18265105870E+02 -0.16313054325E+03  0.47626986643E+02  0.17091962465E+03  0.00000000000E+00 0. -1.
        -11    1    3    3    0    0 -0.56683651040E+02 -0.11767418171E+03  0.20954180458E+01  0.13063169644E+03  0.00000000000E+00 0.  1.
         22    1    1    2    0    0  0.38418545170E+02  0.28080472496E+03 -0.70145188127E+03  0.75654611222E+03  0.00000000000E+00 0.  1.
<mgrwt>
<rscale>  0 0.83355796E+03</rscale>
<asrwt>0</asrwt>
<pdfrwt beam="1">  1        2 0.13152515E+00 0.83355796E+03</pdfrwt>
<pdfrwt beam="2">  1       -2 0.31259074E-01 0.83355796E+03</pdfrwt>
<totfact> 0.30001245E+02</totfact>
</mgrwt>
</event>
<event>
 6    1  0.1775826E-005  0.3253722E+04  0.7818608E-02  0.8174772E-01
          2   -1    0    0  501    0  0.00000000000E+00  0.00000000000E+00  0.24505421938E+04  0.24505421938E+04  0.00000000000E+00 0. -1.
         -2   -1    0    0    0  501 -0.00000000000E+00 -0.00000000000E+00 -0.10800372052E+04  0.10800372052E+04  0.00000000000E+00 0.  1.
         23    2    1    2    0    0  0.77615312529E+03  0.57600311462E+03 -0.73247608268E+03  0.12161199269E+04  0.90736998503E+02 0.  0.
         13    1    3    3    0    0  0.61848403876E+03  0.44049547133E+03 -0.61639711282E+03  0.97801031035E+03  0.00000000000E+00 0.  1.
        -13    1    3    3    0    0  0.15766908653E+03  0.13550764329E+03 -0.11607896986E+03  0.23810961652E+03  0.00000000000E+00 0. -1.
         22    1    1    2    0    0 -0.77615312529E+03 -0.57600311462E+03  0.21029810712E+04  0.23144594721E+04  0.00000000000E+00 0. -1.
<mgrwt>
<rscale>  0 0.32537220E+04</rscale>
<asrwt>0</asrwt>
<pdfrwt beam="1">  1        2 0.37700649E+00 0.32537220E+04</pdfrwt>
<pdfrwt beam="2">  1       -2 0.16615957E+00 0.32537220E+04</pdfrwt>
<totfact> 0.70775559E-01</totfact>
</mgrwt>
</event>
<event>
 6    1  0.1588846E-005  0.8574012E+03  0.7818608E-02  0.9480457E-01
          2   -1    0    0  501    0  0.00000000000E+00  0.00000000000E+00  0.29425762364E+03  0.29425762364E+03  0.00000000000E+00 0. -1.
         -2   -1    0    0    0  501 -0.00000000000E+00 -0.00000000000E+00 -0.62456899597E+03  0.62456899597E+03  0.00000000000E+00 0.  1.
         23    2    1    2    0    0 -0.39868211250E+03  0.96024574490E+02 -0.51678539897E+02  0.42303997090E+03  0.90133233412E+02 0.  0.
         11    1    3    3    0    0 -0.19373193145E+03  0.74769375622E+01  0.11561835720E-02  0.19387616114E+03  0.00000000000E+00 0. -1.
        -11    1    3    3    0    0 -0.20495018105E+03  0.88547636928E+02 -0.51679696080E+02  0.22916380976E+03  0.00000000000E+00 0.  1.
         22    1    1    2    0    0  0.39868211250E+03 -0.96024574490E+02 -0.27863283243E+03  0.49578664871E+03  0.00000000000E+00 0.  1.
<mgrwt>
<rscale>  0 0.85740116E+03</rscale>
<asrwt>0</asrwt>
<pdfrwt beam="1">  1        2 0.45270404E-01 0.85740116E+03</pdfrwt>
<pdfrwt beam="2">  1       -2 0.96087538E-01 0.85740116E+03</pdfrwt>
<totfact> 0.10233849E+02</totfact>
</mgrwt>
</event>
<event>
 6    1  0.1588846E-005  0.1399983E+04  0.7818608E-02  0.8953831E-01
         -2   -1    0    0    0  501 -0.00000000000E+00  0.00000000000E+00  0.27187072437E+03  0.27187072437E+03  0.00000000000E+00 0.  1.
          2   -1    0    0  501    0  0.00000000000E+00 -0.00000000000E+00 -0.18022822909E+04  0.18022822909E+04  0.00000000000E+00 0. -1.
         23    2    1    2    0    0 -0.66240372515E+03 -0.13088364166E+03 -0.10251435542E+04  0.12308233128E+04  0.89986098796E+02 0.  0.
         13    1    3    3    0    0 -0.37569190475E+03 -0.11665461149E+03 -0.56436564062E+03  0.68793988254E+03  0.00000000000E+00 0.  1.
        -13    1    3    3    0    0 -0.28671182040E+03 -0.14229030169E+02 -0.46077791355E+03  0.54288343028E+03  0.00000000000E+00 0. -1.
         22    1    1    2    0    0  0.66240372515E+03  0.13088364166E+03 -0.50526801239E+03  0.84332970249E+03  0.00000000000E+00 0.  1.
<mgrwt>
<rscale>  0 0.13999826E+04</rscale>
<asrwt>0</asrwt>
<pdfrwt beam="1">  1        2 0.27727421E+00 0.13999826E+04</pdfrwt>
<pdfrwt beam="2">  1       -2 0.41826264E-01 0.13999826E+04</pdfrwt>
<totfact> 0.45361337E+01</totfact>
</mgrwt>
</event>
<event>
 6    1  0.1588846E-005  0.4535275E+04  0.7818608E-02  0.7904490E-01
         -1   -1    0    0    0  501 -0.00000000000E+00  0.00000000000E+00  0.18546244962E+04  0.18546244962E+04  0.00000000000E+00 0.  1.
          1   -1    0    0  501    0  0.00000000000E+00 -0.00000000000E+00 -0.27726262899E+04  0.27726262899E+04  0.00000000000E+00 0. -1.
         23    2    1    2    0    0 -0.20236574496E+04  0.10063654809E+04 -0.63667206200E+03  0.23497285859E+04  0.88950313486E+02 0.  0.
         13    1    3    3    0    0 -0.13472601469E+04  0.65059518813E+03 -0.46109497653E+03  0.15655646201E+04  0.00000000000E+00 0. -1.
        -13    1    3    3    0    0 -0.67639730268E+03  0.35577029276E+03 -0.17557708547E+03  0.78416396578E+03  0.00000000000E+00 0.  1.
         22    1    1    2    0    0  0.20236574496E+04 -0.10063654809E+04 -0.28132973165E+03  0.22775222002E+04  0.00000000000E+00 0. -1.
<mgrwt>
<rscale>  0 0.45352754E+04</rscale>
<asrwt>0</asrwt>
<pdfrwt beam="1">  1        1 0.42655789E+00 0.45352754E+04</pdfrwt>
<pdfrwt beam="2">  1       -1 0.28532685E+00 0.45352754E+04</pdfrwt>
<totfact> 0.26849216E-02</totfact>
</mgrwt>
</event>
<event>
 6    1  0.1588846E-005  0.1074473E+04  0.7818608E-02  0.9230436E-01
         -1   -1    0    0    0  501 -0.00000000000E+00  0.00000000000E+00  0.54150011827E+03  0.54150011827E+03  0.00000000000E+00 0.  1.
          1   -1    0    0  501    0  0.00000000000E+00 -0.00000000000E+00 -0.53300601861E+03  0.53300601861E+03  0.00000000000E+00 0. -1.
         23    2    1    2    0    0  0.51904869352E+03 -0.10588874298E+03 -0.56722228238E+02  0.54076730416E+03  0.92670890461E+02 0.  0.
         13    1    3    3    0    0  0.18066380787E+03 -0.20993260229E+02 -0.61099867164E+02  0.19186798122E+03  0.00000000000E+00 0. -1.
        -13    1    3    3    0    0  0.33838488565E+03 -0.84895482752E+02  0.43776389255E+01  0.34889932294E+03  0.00000000000E+00 0.  1.
         22    1    1    2    0    0 -0.51904869352E+03  0.10588874298E+03  0.65216327902E+02  0.53373883272E+03  0.00000000000E+00 0. -1.
<mgrwt>
<rscale>  0 0.10744726E+04</rscale>
<asrwt>0</asrwt>
<pdfrwt beam="1">  1        1 0.82000926E-01 0.10744726E+04</pdfrwt>
<pdfrwt beam="2">  1       -1 0.83307711E-01 0.10744726E+04</pdfrwt>
<totfact> 0.57905563E+01</totfact>
</mgrwt>
</event>
<event>
 6    1  0.1588846E-005  0.2653771E+04  0.7818608E-02  0.8350162E-01
         -1   -1    0    0    0  501 -0.00000000000E+00  0.00000000000E+00  0.94626875862E+03  0.94626875862E+03  0.00000000000E+00 0.  1.
          1   -1    0    0  501    0  0.00000000000E+00 -0.00000000000E+00 -0.18605978199E+04  0.18605978199E+04  0.00000000000E+00 0. -1.
         23    2    1    2    0    0  0.84925057542E+03 -0.10016478987E+03  0.61353387118E+03  0.10559740446E+04  0.86010736404E+02 0.  0.
         11    1    3    3    0    0  0.62827982929E+03 -0.65894148673E+02  0.40633194434E+03  0.75112131624E+03  0.00000000000E+00 0.  1.
        -11    1    3    3    0    0  0.22097074613E+03 -0.34270641196E+02  0.20720192684E+03  0.30485272834E+03  0.00000000000E+00 0. -1.
         22    1    1    2    0    0 -0.84925057542E+03  0.10016478987E+03 -0.15278629324E+04  0.17508925339E+04  0.00000000000E+00 0. -1.
<mgrwt>
<rscale>  0 0.26537713E+04</rscale>
<asrwt>0</asrwt>
<pdfrwt beam="1">  1        1 0.28624582E+00 0.26537713E+04</pdfrwt>
<pdfrwt beam="2">  1       -1 0.14557981E+00 0.26537713E+04</pdfrwt>
<totfact> 0.12279473E+00</totfact>
</mgrwt>
</event>
<event>
 6    1  0.1588846E-005  0.3320095E+04  0.7818608E-02  0.8157801E-01
         -2   -1    0    0    0  501 -0.00000000000E+00  0.00000000000E+00  0.14071774217E+04  0.14071774217E+04  0.00000000000E+00 0.  1.
          2   -1    0    0  501    0  0.00000000000E+00 -0.00000000000E+00 -0.19583583030E+04  0.19583583030E+04  0.00000000000E+00 0. -1.
         23    2    1    2    0    0  0.73238969166E+03  0.14537878070E+04  0.47458251231E+02  0.16311013906E+04  0.91355419346E+02 0.  0.
         11    1    3    3    0    0  0.59112052263E+02  0.72560697296E+02  0.91832505780E+01  0.94040531719E+02  0.00000000000E+00 0. -1.
        -11    1    3    3    0    0  0.67327763939E+03  0.13812271097E+04  0.38275000653E+02  0.15370608589E+04  0.00000000000E+00 0.  1.
         22    1    1    2    0    0 -0.73238969166E+03 -0.14537878070E+04 -0.59863913259E+03  0.17344343341E+04  0.00000000000E+00 0. -1.
<mgrwt>
<rscale>  0 0.33200949E+04</rscale>
<asrwt>0</asrwt>
<pdfrwt beam="1">  1        2 0.30128589E+00 0.33200949E+04</pdfrwt>
<pdfrwt beam="2">  1       -2 0.21648883E+00 0.33200949E+04</pdfrwt>
<totfact> 0.61146446E-01</totfact>
</mgrwt>
</event>
<event>
 6    1  0.1588846E-005  0.3072961E+04  0.7818608E-02  0.8223198E-01
          2   -1    0    0  501    0  0.00000000000E+00  0.00000000000E+00  0.21677341135E+04  0.21677341135E+04  0.00000000000E+00 0. -1.
         -2   -1    0    0    0  501 -0.00000000000E+00 -0.00000000000E+00 -0.10890505347E+04  0.10890505347E+04  0.00000000000E+00 0.  1.
         23    2    1    2    0    0  0.24607298560E+02 -0.12901403678E+04  0.14212229831E+04  0.19217187579E+04  0.89780450002E+02 0.  0.
         11    1    3    3    0    0 -0.22586825906E+02 -0.45525923403E+03  0.54551191559E+03  0.71088282081E+03  0.00000000000E+00 0. -1.
        -11    1    3    3    0    0  0.47194124466E+02 -0.83488113379E+03  0.87571106749E+03  0.12108359371E+04  0.00000000000E+00 0.  1.
         22    1    1    2    0    0 -0.24607298560E+02  0.12901403678E+04 -0.34253940426E+03  0.13350658902E+04  0.00000000000E+00 0.  1.
<mgrwt>
<rscale>  0 0.30729608E+04</rscale>
<asrwt>0</asrwt>
<pdfrwt beam="1">  1        2 0.33349755E+00 0.30729608E+04</pdfrwt>
<pdfrwt beam="2">  1       -2 0.16754624E+00 0.30729608E+04</pdfrwt>
<totfact> 0.10167188E+00</totfact>
</mgrwt>
</event>
<event>
 6    1  0.1588846E-005  0.6231099E+03  0.7818608E-02  0.9858587E-01
          1   -1    0    0  501    0  0.00000000000E+00  0.00000000000E+00  0.40442720164E+03  0.40442720164E+03  0.00000000000E+00 0. -1.
         -1   -1    0    0    0  501 -0.00000000000E+00 -0.00000000000E+00 -0.24000976938E+03  0.24000976938E+03  0.00000000000E+00 0.  1.
         23    2    1    2    0    0 -0.65254284062E+02  0.20594289685E+03  0.30636777394E+03  0.38594036011E+03  0.91750478467E+02 0.  0.
         13    1    3    3    0    0 -0.65751170376E+02  0.65537415357E+02  0.10122637679E+03  0.13735045896E+03  0.00000000000E+00 0. -1.
        -13    1    3    3    0    0  0.49688631493E+00  0.14040548149E+03  0.20514139715E+03  0.24858990115E+03  0.00000000000E+00 0.  1.
         22    1    1    2    0    0  0.65254284062E+02 -0.20594289685E+03 -0.14195034168E+03  0.25849661091E+03  0.00000000000E+00 0.  1.
<mgrwt>
<rscale>  0 0.62310988E+03</rscale>
<asrwt>0</asrwt>
<pdfrwt beam="1">  1        1 0.62219569E-01 0.62310988E+03</pdfrwt>
<pdfrwt beam="2">  1       -1 0.36924580E-01 0.62310988E+03</pdfrwt>
<totfact> 0.42156112E+02</totfact>
</mgrwt>
</event>
<event>
 6    1  0.1588846E-005  0.9356323E+03  0.7818608E-02  0.9382104E-01
          1   -1    0    0  501    0  0.00000000000E+00  0.00000000000E+00  0.49646060626E+03  0.49646060626E+03  0.00000000000E+00 0. -1.
         -1   -1    0    0    0  501 -0.00000000000E+00 -0.00000000000E+00 -0.44082444336E+03  0.44082444336E+03  0.00000000000E+00 0.  1.
         23    2    1    2    0    0 -0.21239255571E+03  0.26587767059E+03  0.34309795540E+03  0.49182369823E+03  0.91503058460E+02 0.  0.
         11    1    3    3    0    0 -0.16569010472E+03  0.14620184029E+03  0.24683089065E+03  0.33129092575E+03  0.00000000000E+00 0.  1.
        -11    1    3    3    0    0 -0.46702450994E+02  0.11967583029E+03  0.96267064746E+02  0.16053277248E+03  0.00000000000E+00 0. -1.
         22    1    1    2    0    0  0.21239255571E+03 -0.26587767059E+03 -0.28746179249E+03  0.44546135139E+03  0.00000000000E+00 0.  1.
<mgrwt>
<rscale>  0 0.93563234E+03</rscale>
<asrwt>0</asrwt>
<pdfrwt beam="1">  1        1 0.76378555E-01 0.93563234E+03</pdfrwt>
<pdfrwt beam="2">  1       -1 0.67819145E-01 0.93563234E+03</pdfrwt>
<totfact> 0.99185113E+01</totfact>
</mgrwt>
</event>
<event>
 6    1  0.1588846E-005  0.4733994E+04  0.7818608E-02  0.7870905E-01
         -1   -1    0    0    0  501 -0.00000000000E+00  0.00000000000E+00  0.13703581756E+04  0.13703581756E+04  0.00000000000E+00 0.  1.
          1   -1    0    0  501    0  0.00000000000E+00 -0.00000000000E+00 -0.40884743938E+04  0.40884743938E+04  0.00000000000E+00 0. -1.
         23    2    1    2    0    0  0.15795717780E+04  0.43739240106E+03  0.60828228872E+03  0.17505599067E+04  0.89964047889E+02 0.  0.
         13    1    3    3    0    0  0.11212264889E+04  0.28919723760E+03  0.39144780404E+03  0.12222991716E+04  0.00000000000E+00 0.  1.
        -13    1    3    3    0    0  0.45834528909E+03  0.14819516346E+03  0.21683448468E+03  0.52826073510E+03  0.00000000000E+00 0. -1.
         22    1    1    2    0    0 -0.15795717780E+04 -0.43739240106E+03 -0.33263985068E+04  0.37082726627E+04  0.00000000000E+00 0. -1.
<mgrwt>
<rscale>  0 0.47339938E+04</rscale>
<asrwt>0</asrwt>
<pdfrwt beam="1">  1        1 0.62899606E+00 0.47339938E+04</pdfrwt>
<pdfrwt beam="2">  1       -1 0.21082433E+00 0.47339938E+04</pdfrwt>
<totfact> 0.74581159E-03</totfact>
</mgrwt>
</event>
<event>
 6    1  0.1588846E-005  0.2610313E+04  0.7818608E-02  0.8364706E-01
          2   -1    0    0  501    0  0.00000000000E+00  0.00000000000E+00  0.30164921740E+04  0.30164921740E+04  0.00000000000E+00 0. -1.
         -2   -1    0    0    0  501 -0.00000000000E+00 -0.00000000000E+00 -0.56470692185E+03  0.56470692185E+03  0.00000000000E+00 0.  1.
         23    2    1    2    0    0 -0.90635014856E+03 -0.62996540836E+03  0.21787957618E+04  0.24441633579E+04  0.91959451352E+02 0.  0.
         13    1    3    3    0    0 -0.36558206972E+03 -0.30023618958E+03  0.98748518541E+03  0.10949516020E+04  0.00000000000E+00 0. -1.
        -13    1    3    3    0    0 -0.54076807883E+03 -0.32972921878E+03  0.11913105764E+04  0.13492117559E+04  0.00000000000E+00 0.  1.
         22    1    1    2    0    0  0.90635014856E+03  0.62996540836E+03  0.27298949028E+03  0.11370357379E+04  0.00000000000E+00 0.  1.
<mgrwt>
<rscale>  0 0.26103134E+04</rscale>
<asrwt>0</asrwt>
<pdfrwt beam="1">  1        2 0.46407571E+00 0.26103134E+04</pdfrwt>
<pdfrwt beam="2">  1       -2 0.86877990E-01 0.26103134E+04</pdfrwt>
<totfact> 0.17220965E+00</totfact>
</mgrwt>
</event>
<event>
 6    1  0.1588846E-005  0.7095664E+03  0.7818608E-02  0.9701011E-01
         -2   -1    0    0    0  501 -0.00000000000E+00  0.00000000000E+00  0.47196014714E+03  0.47196014714E+03  0.00000000000E+00 0.  1.
          2   -1    0    0  501    0  0.00000000000E+00 -0.00000000000E+00 -0.26669861133E+03  0.26669861133E+03  0.00000000000E+00 0. -1.
         23    2    1    2    0    0 -0.26862792310E+03 -0.12043603853E+03 -0.89594153352E+02  0.32199861174E+03  0.94816629352E+02 0.  0.
         13    1    3    3    0    0 -0.24135246530E+03 -0.93661801633E+02 -0.44163454098E+02  0.26262893266E+03  0.00000000000E+00 0.  1.
        -13    1    3    3    0    0 -0.27275457801E+02 -0.26774236893E+02 -0.45430699254E+02  0.59369679081E+02  0.00000000000E+00 0. -1.
         22    1    1    2    0    0  0.26862792310E+03  0.12043603853E+03  0.29485568916E+03  0.41666014673E+03  0.00000000000E+00 0. -1.
<mgrwt>
<rscale>  0 0.70956639E+03</rscale>
<asrwt>0</asrwt>
<pdfrwt beam="1">  1        2 0.41030556E-01 0.70956639E+03</pdfrwt>
<pdfrwt beam="2">  1       -2 0.72609253E-01 0.70956639E+03</pdfrwt>
<totfact> 0.21685643E+02</totfact>
</mgrwt>
</event>
<event>
 6    1  0.1588846E-005  0.5176474E+04  0.7818608E-02  0.7801846E-01
         -2   -1    0    0    0  501 -0.00000000000E+00  0.00000000000E+00  0.21966832238E+04  0.21966832238E+04  0.00000000000E+00 0.  1.
          2   -1    0    0  501    0  0.00000000000E+00 -0.00000000000E+00 -0.30495839385E+04  0.30495839385E+04  0.00000000000E+00 0. -1.
         23    2    1    2    0    0 -0.30011202736E+03  0.24658845263E+03 -0.30191750239E+04  0.30454451620E+04  0.91898400238E+02 0.  0.
         11    1    3    3    0    0 -0.69961366186E+02  0.96223980596E+02 -0.70071524834E+03  0.71074292572E+03  0.00000000000E+00 0. -1.
        -11    1    3    3    0    0 -0.23015066117E+03  0.15036447204E+03 -0.23184597756E+04  0.23347022363E+04  0.00000000000E+00 0.  1.
         22    1    1    2    0    0  0.30011202736E+03 -0.24658845263E+03  0.21662743092E+04  0.22008220002E+04  0.00000000000E+00 0.  1.
<mgrwt>
<rscale>  0 0.51764737E+04</rscale>
<asrwt>0</asrwt>
<pdfrwt beam="1">  1        2 0.46916676E+00 0.51764737E+04</pdfrwt>
<pdfrwt beam="2">  1       -2 0.33795127E+00 0.51764737E+04</pdfrwt>
<totfact> 0.21530717E-02</totfact>
</mgrwt>
</event>
<event>
 6    1  0.1588846E-005  0.4384046E+03  0.7818608E-02  0.1031237E+00
         -1   -1    0    0    0  501 -0.00000000000E+00  0.00000000000E+00  0.25533819292E+03  0.25533819292E+03  0.00000000000E+00 0.  1.
          1   -1    0    0  501    0  0.00000000000E+00 -0.00000000000E+00 -0.18818038535E+03  0.18818038535E+03  0.00000000000E+00 0. -1.
         23    2    1    2    0    0  0.18775024026E+03  0.60433829933E+02  0.10671056830E+03  0.24235491008E+03  0.91904061574E+02 0.  0.
         13    1    3    3    0    0  0.97307561478E+02  0.68442710385E+02  0.91965266424E+02  0.15036880113E+03  0.00000000000E+00 0. -1.
        -13    1    3    3    0    0  0.90442678785E+02 -0.80088804524E+01  0.14745301878E+02  0.91986108948E+02  0.00000000000E+00 0.  1.
         22    1    1    2    0    0 -0.18775024026E+03 -0.60433829933E+02 -0.39552760731E+02  0.20116366819E+03  0.00000000000E+00 0. -1.
<mgrwt>
<rscale>  0 0.43840456E+03</rscale>
<asrwt>0</asrwt>
<pdfrwt beam="1">  1        1 0.28950828E-01 0.43840456E+03</pdfrwt>
<pdfrwt beam="2">  1       -1 0.39282799E-01 0.43840456E+03</pdfrwt>
<totfact> 0.10152250E+03</totfact>
</mgrwt>
</event>
<event>
 6    1  0.1588846E-005  0.2013932E+04  0.7818608E-02  0.8600135E-01
          2   -1    0    0  501    0  0.00000000000E+00  0.00000000000E+00  0.18544089827E+04  0.18544089827E+04  0.00000000000E+00 0. -1.
         -2   -1    0    0    0  501 -0.00000000000E+00 -0.00000000000E+00 -0.54679419126E+03  0.54679419126E+03  0.00000000000E+00 0.  1.
         23    2    1    2    0    0 -0.39596580601E+03 -0.85841759551E+03  0.10617099661E+04  0.14244028510E+04  0.89586505016E+02 0.  0.
         13    1    3    3    0    0 -0.33111174646E+03 -0.67231013901E+03  0.88517764946E+03  0.11598169609E+04  0.00000000000E+00 0. -1.
        -13    1    3    3    0    0 -0.64854059546E+02 -0.18610745651E+03  0.17653231667E+03  0.26458589010E+03  0.00000000000E+00 0.  1.
         22    1    1    2    0    0  0.39596580601E+03  0.85841759551E+03  0.24590482527E+03  0.97680032294E+03  0.00000000000E+00 0.  1.
<mgrwt>
<rscale>  0 0.20139315E+04</rscale>
<asrwt>0</asrwt>
<pdfrwt beam="1">  1        2 0.28529369E+00 0.20139315E+04</pdfrwt>
<pdfrwt beam="2">  1       -2 0.84122184E-01 0.20139315E+04</pdfrwt>
<totfact> 0.92149127E+00</totfact>
</mgrwt>
</event>
<event>
 6    1  0.1588846E-005  0.2544622E+04  0.7818608E-02  0.8387259E-01
          2   -1    0    0  501    0  0.00000000000E+00  0.00000000000E+00  0.24375586707E+04  0.24375586707E+04  0.00000000000E+00 0. -1.
         -2   -1    0    0    0  501 -0.00000000000E+00 -0.00000000000E+00 -0.66409687580E+03  0.66409687580E+03  0.00000000000E+00 0.  1.
         23    2    1    2    0    0 -0.11409097994E+04 -0.35992804971E+03  0.14100693236E+04  0.18513446014E+04  0.89207424857E+02 0.  0.
         11    1    3    3    0    0 -0.90849419347E+03 -0.24831900322E+03  0.11107598021E+04  0.14563005751E+04  0.00000000000E+00 0.  1.
        -11    1    3    3    0    0 -0.23241560588E+03 -0.11160904649E+03  0.29930952151E+03  0.39504402638E+03  0.00000000000E+00 0. -1.
         22    1    1    2    0    0  0.11409097994E+04  0.35992804971E+03  0.36339247133E+03  0.12503109451E+04  0.00000000000E+00 0. -1.
<mgrwt>
<rscale>  0 0.25446219E+04</rscale>
<asrwt>0</asrwt>
<pdfrwt beam="1">  1        2 0.37500902E+00 0.25446219E+04</pdfrwt>
<pdfrwt beam="2">  1       -2 0.10216875E+00 0.25446219E+04</pdfrwt>
<totfact> 0.26376432E+00</totfact>
</mgrwt>
</event>
<event>
 6    1  0.1588846E-005  0.1865535E+04  0.7818608E-02  0.8672204E-01
          2   -1    0    0  501    0  0.00000000000E+00  0.00000000000E+00  0.51493197734E+03  0.51493197734E+03  0.00000000000E+00 0. -1.
         -2   -1    0    0    0  501 -0.00000000000E+00 -0.00000000000E+00 -0.16896516658E+04  0.16896516658E+04  0.00000000000E+00 0.  1.
         23    2    1    2    0    0  0.72091838665E+03 -0.46789838833E+03 -0.16729482744E+03  0.88036422302E+03  0.91659063149E+02 0.  0.
         13    1    3    3    0    0  0.18955092289E+03 -0.12534601421E+03 -0.85867481921E+02  0.24292879635E+03  0.00000000000E+00 0.  1.
        -13    1    3    3    0    0  0.53136746377E+03 -0.34255237412E+03 -0.81427345521E+02  0.63743542667E+03  0.00000000000E+00 0. -1.
         22    1    1    2    0    0 -0.72091838665E+03  0.46789838833E+03 -0.10074248610E+04  0.13242194201E+04  0.00000000000E+00 0.  1.
<mgrwt>
<rscale>  0 0.18655355E+04</rscale>
<asrwt>0</asrwt>
<pdfrwt beam="1">  1        2 0.79220303E-01 0.18655355E+04</pdfrwt>
<pdfrwt beam="2">  1       -2 0.25994641E+00 0.18655355E+04</pdfrwt>
<totfact> 0.31203467E+00</totfact>
</mgrwt>
</event>
<event>
 6    1  0.1588846E-005  0.2711918E+04  0.7818608E-02  0.8331148E-01
          2   -1    0    0  501    0  0.00000000000E+00  0.00000000000E+00  0.28954612953E+04  0.28954612953E+04  0.00000000000E+00 0. -1.
         -2   -1    0    0    0  501 -0.00000000000E+00 -0.00000000000E+00 -0.63500251663E+03  0.63500251663E+03  0.00000000000E+00 0.  1.
         23    2    1    2    0    0  0.94145329743E+03  0.40183413082E+03  0.22862037505E+04  0.25065166534E+04  0.89962019568E+02 0.  0.
         11    1    3    3    0    0  0.29960360909E+03  0.15556843405E+03  0.83716674709E+03  0.90266938725E+03  0.00000000000E+00 0. -1.
        -11    1    3    3    0    0  0.64184968834E+03  0.24626569677E+03  0.14490370035E+04  0.16038472662E+04  0.00000000000E+00 0.  1.
         22    1    1    2    0    0 -0.94145329743E+03 -0.40183413082E+03 -0.25744971830E+02  0.10239471586E+04  0.00000000000E+00 0.  1.
<mgrwt>
<rscale>  0 0.27119183E+04</rscale>
<asrwt>0</asrwt>
<pdfrwt beam="1">  1        2 0.44545558E+00 0.27119183E+04</pdfrwt>
<pdfrwt beam="2">  1       -2 0.97692696E-01 0.27119183E+04</pdfrwt>
<totfact> 0.15463364E+00</totfact>
</mgrwt>
</event>
<event>
 6    1  0.1588846E-005  0.3683038E+04  0.7818608E-02  0.8071731E-01
          1   -1    0    0  501    0  0.00000000000E+00  0.00000000000E+00  0.41213434039E+04  0.41213434039E+04  0.00000000000E+00 0. -1.
         -1   -1    0    0    0  501 -0.00000000000E+00 -0.00000000000E+00 -0.82283641169E+03  0.82283641169E+03  0.00000000000E+00 0.  1.
         23    2    1    2    0    0  0.54129680812E+03  0.17470488331E+04  0.19258228426E+04  0.26573821345E+04  0.87774299990E+02 0.  0.
         11    1    3    3    0    0  0.32320582352E+03  0.11377705810E+04  0.12897753821E+04  0.17500012673E+04  0.00000000000E+00 0. -1.
        -11    1    3    3    0    0  0.21809098460E+03  0.60927825211E+03  0.63604746057E+03  0.90738086720E+03  0.00000000000E+00 0.  1.
         22    1    1    2    0    0 -0.54129680812E+03 -0.17470488331E+04  0.13726841496E+04  0.22867976811E+04  0.00000000000E+00 0.  1.
<mgrwt>
<rscale>  0 0.36830376E+04</rscale>
<asrwt>0</asrwt>
<pdfrwt beam="1">  1        1 0.63405282E+00 0.36830376E+04</pdfrwt>
<pdfrwt beam="2">  1       -1 0.12659022E+00 0.36830376E+04</pdfrwt>
<totfact> 0.32446647E-02</totfact>
</mgrwt>
</event>
<event>
 6    1  0.1588846E-005  0.7906096E+03  0.7818608E-02  0.9573710E-01
         -2   -1    0    0    0  501 -0.00000000000E+00  0.00000000000E+00  0.87559299405E+03  0.87559299405E+03  0.00000000000E+00 0. -1.
          2   -1    0    0  501    0  0.00000000000E+00 -0.00000000000E+00 -0.17846862221E+03  0.17846862221E+03  0.00000000000E+00 0.  1.
         23    2    1    2    0    0  0.24678037746E+03 -0.10224544975E+03 -0.27029224905E+02  0.28221116548E+03  0.86936046782E+02 0.  0.
         11    1    3    3    0    0  0.13956899838E+03 -0.34758046808E+02  0.23655475176E+02  0.14576422275E+03  0.00000000000E+00 0. -1.
        -11    1    3    3    0    0  0.10721137908E+03 -0.67487402941E+02 -0.50684700081E+02  0.13644694274E+03  0.00000000000E+00 0.  1.
         22    1    1    2    0    0 -0.24678037746E+03  0.10224544975E+03  0.72415359674E+03  0.77185045078E+03  0.00000000000E+00 0. -1.
<mgrwt>
<rscale>  0 0.79060958E+03</rscale>
<asrwt>0</asrwt>
<pdfrwt beam="1">  1        2 0.27456712E-01 0.79060958E+03</pdfrwt>
<pdfrwt beam="2">  1       -2 0.13470661E+00 0.79060958E+03</pdfrwt>
<totfact> 0.78712875E+01</totfact>
</mgrwt>
</event>
<event>
 6    1  0.1588846E-005  0.2132915E+04  0.7818608E-02  0.8546881E-01
         -2   -1    0    0    0  501 -0.00000000000E+00  0.00000000000E+00  0.95657746487E+03  0.95657746487E+03  0.00000000000E+00 0. -1.
          2   -1    0    0  501    0  0.00000000000E+00 -0.00000000000E+00 -0.11889594676E+04  0.11889594676E+04  0.00000000000E+00 0.  1.
         23    2    1    2    0    0  0.94389741523E+03 -0.27793633275E+03  0.29200004835E+03  0.10305627305E+04  0.92760863302E+02 0.  0.
         11    1    3    3    0    0  0.83632085657E+03 -0.26696754707E+03  0.23742324977E+03  0.90943611423E+03  0.00000000000E+00 0. -1.
        -11    1    3    3    0    0  0.10757655865E+03 -0.10968785682E+02  0.54576798577E+02  0.12112661629E+03  0.00000000000E+00 0.  1.
         22    1    1    2    0    0 -0.94389741523E+03  0.27793633275E+03 -0.52438205107E+03  0.11149742020E+04  0.00000000000E+00 0.  1.
<mgrwt>
<rscale>  0 0.21329152E+04</rscale>
<asrwt>0</asrwt>
<pdfrwt beam="1">  1        2 0.18291684E+00 0.21329152E+04</pdfrwt>
<pdfrwt beam="2">  1       -2 0.14716576E+00 0.21329152E+04</pdfrwt>
<totfact> 0.55705411E+00</totfact>
</mgrwt>
</event>
<event>
 6    1  0.1588846E-005  0.3656233E+04  0.7818608E-02  0.8077731E-01
         -1   -1    0    0    0  501 -0.00000000000E+00  0.00000000000E+00  0.24734345289E+04  0.24734345289E+04  0.00000000000E+00 0.  1.
          1   -1    0    0  501    0  0.00000000000E+00 -0.00000000000E+00 -0.13511619712E+04  0.13511619712E+04  0.00000000000E+00 0. -1.
         23    2    1    2    0    0  0.64995677231E+03 -0.13249764784E+04  0.16890853990E+04  0.22436843357E+04  0.55708518932E+02 0.  0.
         11    1    3    3    0    0  0.45147397566E+03 -0.97659325887E+03  0.12298518217E+04  0.16340436492E+04  0.00000000000E+00 0.  1.
        -11    1    3    3    0    0  0.19848279665E+03 -0.34838321952E+03  0.45923357732E+03  0.60964068659E+03  0.00000000000E+00 0. -1.
         22    1    1    2    0    0 -0.64995677231E+03  0.13249764784E+04 -0.56681284136E+03  0.15809121643E+04  0.00000000000E+00 0. -1.
<mgrwt>
<rscale>  0 0.36562334E+04</rscale>
<asrwt>0</asrwt>
<pdfrwt beam="1">  1        1 0.20787107E+00 0.36562334E+04</pdfrwt>
<pdfrwt beam="2">  1       -1 0.38052839E+00 0.36562334E+04</pdfrwt>
<totfact> 0.64949949E-02</totfact>
</mgrwt>
</event>
<event>
 6    1  0.1588846E-005  0.1122916E+04  0.7818608E-02  0.9183140E-01
          1   -1    0    0  501    0  0.00000000000E+00  0.00000000000E+00  0.27516368193E+03  0.27516368193E+03  0.00000000000E+00 0. -1.
         -1   -1    0    0    0  501 -0.00000000000E+00 -0.00000000000E+00 -0.11456281341E+04  0.11456281341E+04  0.00000000000E+00 0.  1.
         23    2    1    2    0    0 -0.33642713301E+03 -0.33222345118E+03 -0.62341569219E+02  0.48451288788E+03  0.85502221765E+02 0.  0.
         13    1    3    3    0    0 -0.33166160710E+03 -0.32264728470E+03 -0.74112533012E+02  0.46860789526E+03  0.00000000000E+00 0.  1.
        -13    1    3    3    0    0 -0.47655259128E+01 -0.95761664829E+01  0.11770963793E+02  0.15904992623E+02  0.00000000000E+00 0. -1.
         22    1    1    2    0    0  0.33642713301E+03  0.33222345118E+03 -0.80812288292E+03  0.93627892812E+03  0.00000000000E+00 0.  1.
<mgrwt>
<rscale>  0 0.11229163E+04</rscale>
<asrwt>0</asrwt>
<pdfrwt beam="1">  1        1 0.42332875E-01 0.11229163E+04</pdfrwt>
<pdfrwt beam="2">  1       -1 0.17625048E+00 0.11229163E+04</pdfrwt>
<totfact> 0.21633779E+01</totfact>
</mgrwt>
</event>
<event>
 6    1  0.1588846E-005  0.3162773E+04  0.7818608E-02  0.8198719E-01
          2   -1    0    0  501    0  0.00000000000E+00  0.00000000000E+00  0.23867239602E+04  0.23867239602E+04  0.00000000000E+00 0. -1.
         -2   -1    0    0    0  501 -0.00000000000E+00 -0.00000000000E+00 -0.10477889086E+04  0.10477889086E+04  0.00000000000E+00 0.  1.
         23    2    1    2    0    0  0.52608833330E+03  0.53308404218E+03 -0.84079904399E+03  0.11296943818E+04  0.91207639317E+02 0.  0.
         11    1    3    3    0    0  0.13723145560E+03  0.18726804452E+03 -0.22274627942E+03  0.32174166330E+03  0.00000000000E+00 0. -1.
        -11    1    3    3    0    0  0.38885687770E+03  0.34581599766E+03 -0.61805276457E+03  0.80795271852E+03  0.00000000000E+00 0.  1.
         22    1    1    2    0    0 -0.52608833330E+03 -0.53308404218E+03  0.21797340956E+04  0.23048184869E+04  0.00000000000E+00 0. -1.
<mgrwt>
<rscale>  0 0.31627728E+04</rscale>
<asrwt>0</asrwt>
<pdfrwt beam="1">  1        2 0.36718830E+00 0.31627728E+04</pdfrwt>
<pdfrwt beam="2">  1       -2 0.16119829E+00 0.31627728E+04</pdfrwt>
<totfact> 0.84332378E-01</totfact>
</mgrwt>
</event>
<event>
 6    1  0.1588846E-005  0.1805613E+04  0.7818608E-02  0.8703320E-01
         -2   -1    0    0    0  501 -0.00000000000E+00  0.00000000000E+00  0.52468218533E+03  0.52468218533E+03  0.00000000000E+00 0. -1.
          2   -1    0    0  501    0  0.00000000000E+00 -0.00000000000E+00 -0.15534349159E+04  0.15534349159E+04  0.00000000000E+00 0.  1.
         23    2    1    2    0    0 -0.79279520262E+03 -0.36730622839E+03 -0.26476440699E+03  0.91746372607E+03  0.90561574231E+02 0.  0.
         11    1    3    3    0    0 -0.55880469523E+03 -0.29849806278E+03 -0.21064264097E+03  0.66763320999E+03  0.00000000000E+00 0. -1.
        -11    1    3    3    0    0 -0.23399050740E+03 -0.68808165618E+02 -0.54121766023E+02  0.24983051608E+03  0.00000000000E+00 0.  1.
         22    1    1    2    0    0  0.79279520262E+03  0.36730622839E+03 -0.76398832361E+03  0.11606533752E+04  0.00000000000E+00 0.  1.
<mgrwt>
<rscale>  0 0.18056131E+04</rscale>
<asrwt>0</asrwt>
<pdfrwt beam="1">  1        2 0.23898999E+00 0.18056131E+04</pdfrwt>
<pdfrwt beam="2">  1       -2 0.80720336E-01 0.18056131E+04</pdfrwt>
<totfact> 0.15139135E+01</totfact>
</mgrwt>
</event>
<event>
 6    1  0.1588846E-005  0.1610427E+04  0.7818608E-02  0.8814168E-01
          1   -1    0    0  501    0  0.00000000000E+00  0.00000000000E+00  0.99141492606E+03  0.99141492606E+03  0.00000000000E+00 0. -1.
         -1   -1    0    0    0  501 -0.00000000000E+00 -0.00000000000E+00 -0.65398304266E+03  0.65398304266E+03  0.00000000000E+00 0.  1.
         23    2    1    2    0    0 -0.12907456152E+03  0.53260437842E+03 -0.43044729423E+03  0.70201782383E+03  0.84949900113E+02 0.  0.
         13    1    3    3    0    0 -0.89861128447E+02  0.29963302310E+03 -0.19580303900E+03  0.36904444315E+03  0.00000000000E+00 0. -1.
        -13    1    3    3    0    0 -0.39213433071E+02  0.23297135532E+03 -0.23464425523E+03  0.33297338068E+03  0.00000000000E+00 0.  1.
         22    1    1    2    0    0  0.12907456152E+03 -0.53260437842E+03  0.76787917763E+03  0.94338014489E+03  0.00000000000E+00 0. -1.
<mgrwt>
<rscale>  0 0.16104267E+04</rscale>
<asrwt>0</asrwt>
<pdfrwt beam="1">  1        1 0.15252537E+00 0.16104267E+04</pdfrwt>
<pdfrwt beam="2">  1       -1 0.10061278E+00 0.16104267E+04</pdfrwt>
<totfact> 0.13849917E+01</totfact>
</mgrwt>
</event>
<event>
 6    1  0.1588846E-005  0.1583819E+04  0.7818608E-02  0.8830551E-01
         -2   -1    0    0    0  501 -0.00000000000E+00  0.00000000000E+00  0.30895512213E+03  0.30895512213E+03  0.00000000000E+00 0.  1.
          2   -1    0    0  501    0  0.00000000000E+00 -0.00000000000E+00 -0.20298106128E+04  0.20298106128E+04  0.00000000000E+00 0. -1.
         23    2    1    2    0    0 -0.12585720178E+03  0.14390671891E+03 -0.19940633760E+04  0.20053114988E+04  0.91849227685E+02 0.  0.
         11    1    3    3    0    0 -0.10677525679E+03  0.15633804856E+03 -0.17828948269E+04  0.17929184322E+04  0.00000000000E+00 0.  1.
        -11    1    3    3    0    0 -0.19081944994E+02 -0.12431329654E+02 -0.21116854914E+03  0.21239306657E+03  0.00000000000E+00 0. -1.
         22    1    1    2    0    0  0.12585720178E+03 -0.14390671891E+03  0.27320788534E+03  0.33345423614E+03  0.00000000000E+00 0.  1.
<mgrwt>
<rscale>  0 0.15838187E+04</rscale>
<asrwt>0</asrwt>
<pdfrwt beam="1">  1        2 0.31227855E+00 0.15838187E+04</pdfrwt>
<pdfrwt beam="2">  1       -2 0.47531557E-01 0.15838187E+04</pdfrwt>
<totfact> 0.25906026E+01</totfact>
</mgrwt>
</event>
<event>
 6    1  0.1588846E-005  0.1923394E+04  0.7818608E-02  0.8643299E-01
          1   -1    0    0  501    0  0.00000000000E+00  0.00000000000E+00  0.59983467428E+03  0.59983467428E+03  0.00000000000E+00 0. -1.
         -1   -1    0    0    0  501 -0.00000000000E+00 -0.00000000000E+00 -0.15418595512E+04  0.15418595512E+04  0.00000000000E+00 0.  1.
         23    2    1    2    0    0  0.73294867015E+02 -0.88231925855E+03 -0.60725664114E+02  0.89247538396E+03  0.94685232013E+02 0.  0.
         11    1    3    3    0    0  0.28270779269E+02 -0.55102450269E+03  0.48224188678E+01  0.55177032835E+03  0.00000000000E+00 0.  1.
        -11    1    3    3    0    0  0.45024087746E+02 -0.33129475586E+03 -0.65548082982E+02  0.34070505561E+03  0.00000000000E+00 0. -1.
         22    1    1    2    0    0 -0.73294867015E+02  0.88231925855E+03 -0.88129921284E+03  0.12492188416E+04  0.00000000000E+00 0.  1.
<mgrwt>
<rscale>  0 0.19233937E+04</rscale>
<asrwt>0</asrwt>
<pdfrwt beam="1">  1        1 0.92282257E-01 0.19233937E+04</pdfrwt>
<pdfrwt beam="2">  1       -1 0.23720916E+00 0.19233937E+04</pdfrwt>
<totfact> 0.27056231E+00</totfact>
</mgrwt>
</event>
<event>
 6    1  0.1588846E-005  0.1434675E+04  0.7818608E-02  0.8929094E-01
         -1   -1    0    0    0  501 -0.00000000000E+00  0.00000000000E+00  0.36942664806E+03  0.36942664806E+03  0.00000000000E+00 0.  1.
          1   -1    0    0  501    0  0.00000000000E+00 -0.00000000000E+00 -0.13928967173E+04  0.13928967173E+04  0.00000000000E+00 0. -1.
         23    2    1    2    0    0  0.55664219768E+03 -0.88485044921E+02  0.25444132151E+02  0.57156682378E+03  0.91439000288E+02 0.  0.
         13    1    3    3    0    0  0.37998881715E+03 -0.43625755039E+02  0.56640763164E+02  0.38665602765E+03  0.00000000000E+00 0. -1.
        -13    1    3    3    0    0  0.17665338053E+03 -0.44859289882E+02 -0.31196631013E+02  0.18491079614E+03  0.00000000000E+00 0.  1.
         22    1    1    2    0    0 -0.55664219768E+03  0.88485044921E+02 -0.10489142014E+04  0.11907565416E+04  0.00000000000E+00 0. -1.
<mgrwt>
<rscale>  0 0.14346751E+04</rscale>
<asrwt>0</asrwt>
<pdfrwt beam="1">  1        1 0.21429181E+00 0.14346751E+04</pdfrwt>
<pdfrwt beam="2">  1       -1 0.56834868E-01 0.14346751E+04</pdfrwt>
<totfact> 0.23682463E+01</totfact>
</mgrwt>
</event>
<event>
 6    1  0.1588846E-005  0.3661948E+04  0.7818608E-02  0.8076447E-01
          2   -1    0    0  501    0  0.00000000000E+00  0.00000000000E+00  0.10425821617E+04  0.10425821617E+04  0.00000000000E+00 0. -1.
         -2   -1    0    0    0  501 -0.00000000000E+00 -0.00000000000E+00 -0.32155403251E+04  0.32155403251E+04  0.00000000000E+00 0.  1.
         23    2    1    2    0    0  0.12679541001E+04  0.54387796020E+03 -0.24847452399E+04  0.28436536761E+04  0.94321190295E+02 0.  0.
         13    1    3    3    0    0  0.11289413157E+04  0.46631796752E+03 -0.22470991547E+04  0.25576191179E+04  0.00000000000E+00 0. -1.
        -13    1    3    3    0    0  0.13901278440E+03  0.77559992681E+02 -0.23764608520E+03  0.28603455823E+03  0.00000000000E+00 0.  1.
         22    1    1    2    0    0 -0.12679541001E+04 -0.54387796020E+03  0.31178707652E+03  0.14144688107E+04  0.00000000000E+00 0. -1.
<mgrwt>
<rscale>  0 0.36619476E+04</rscale>
<asrwt>0</asrwt>
<pdfrwt beam="1">  1        2 0.16039726E+00 0.36619476E+04</pdfrwt>
<pdfrwt beam="2">  1       -2 0.49469850E+00 0.36619476E+04</pdfrwt>
<totfact> 0.34138357E-02</totfact>
</mgrwt>
</event>
<event>
 6    1  0.1588846E-005  0.2572592E+03  0.7818608E-02  0.1108801E+00
         -2   -1    0    0    0  501 -0.00000000000E+00  0.00000000000E+00  0.26307656095E+02  0.26307656095E+02  0.00000000000E+00 0.  1.
          2   -1    0    0  501    0  0.00000000000E+00 -0.00000000000E+00 -0.62892607119E+03  0.62892607119E+03  0.00000000000E+00 0. -1.
         23    2    1    2    0    0 -0.10223427217E+03  0.30333281192E+02 -0.23289032818E+03  0.27043402276E+03  0.86745036463E+02 0.  0.
         13    1    3    3    0    0 -0.80093178702E+02 -0.19698130470E+02 -0.13157075677E+03  0.15528617986E+03  0.00000000000E+00 0.  1.
        -13    1    3    3    0    0 -0.22141093464E+02  0.50031411662E+02 -0.10131957141E+03  0.11514784290E+03  0.00000000000E+00 0. -1.
         22    1    1    2    0    0  0.10223427217E+03 -0.30333281192E+02 -0.36972808692E+03  0.38479970453E+03  0.00000000000E+00 0. -1.
<mgrwt>
<rscale>  0 0.25725918E+03</rscale>
<asrwt>0</asrwt>
<pdfrwt beam="1">  1        2 0.96757856E-01 0.25725918E+03</pdfrwt>
<pdfrwt beam="2">  1       -2 0.40473317E-02 0.25725918E+03</pdfrwt>
<totfact> 0.12778146E+04</totfact>
</mgrwt>
</event>
<event>
 6    1  0.1588846E-005  0.4336123E+04  0.7818608E-02  0.7939972E-01
          2   -1    0    0  501    0  0.00000000000E+00  0.00000000000E+00  0.34526975782E+04  0.34526975782E+04  0.00000000000E+00 0. -1.
         -2   -1    0    0    0  501 -0.00000000000E+00 -0.00000000000E+00 -0.13613964417E+04  0.13613964417E+04  0.00000000000E+00 0.  1.
         23    2    1    2    0    0 -0.10724441624E+04  0.55057422699E+03  0.30455080919E+04  0.32766352807E+04  0.89167059471E+02 0.  0.
         11    1    3    3    0    0 -0.41279421724E+03  0.25194435024E+03  0.12887085856E+04  0.13764609838E+04  0.00000000000E+00 0. -1.
        -11    1    3    3    0    0 -0.65964994511E+03  0.29862987675E+03  0.17567995063E+04  0.19001742969E+04  0.00000000000E+00 0.  1.
         22    1    1    2    0    0  0.10724441624E+04 -0.55057422699E+03 -0.95420695542E+03  0.15374587391E+04  0.00000000000E+00 0.  1.
<mgrwt>
<rscale>  0 0.43361228E+04</rscale>
<asrwt>0</asrwt>
<pdfrwt beam="1">  1        2 0.53118424E+00 0.43361228E+04</pdfrwt>
<pdfrwt beam="2">  1       -2 0.20944561E+00 0.43361228E+04</pdfrwt>
<totfact> 0.77612791E-02</totfact>
</mgrwt>
</event>
<event>
 6    1  0.1588846E-005  0.2549512E+04  0.7818608E-02  0.8385556E-01
          1   -1    0    0  501    0  0.00000000000E+00  0.00000000000E+00  0.15172687693E+04  0.15172687693E+04  0.00000000000E+00 0. -1.
         -1   -1    0    0    0  501 -0.00000000000E+00 -0.00000000000E+00 -0.10710054126E+04  0.10710054126E+04  0.00000000000E+00 0.  1.
         23    2    1    2    0    0  0.42754439631E+03 -0.51568943755E+03  0.13224807255E+04  0.14853296301E+04  0.92298612713E+02 0.  0.
         11    1    3    3    0    0  0.30829665678E+02 -0.85265287005E+02  0.18906936445E+03  0.20968514975E+03  0.00000000000E+00 0. -1.
        -11    1    3    3    0    0  0.39671473063E+03 -0.43042415055E+03  0.11334113611E+04  0.12756444803E+04  0.00000000000E+00 0.  1.
         22    1    1    2    0    0 -0.42754439631E+03  0.51568943755E+03 -0.87621736879E+03  0.11029445517E+04  0.00000000000E+00 0.  1.
<mgrwt>
<rscale>  0 0.25495122E+04</rscale>
<asrwt>0</asrwt>
<pdfrwt beam="1">  1        1 0.23342596E+00 0.25495122E+04</pdfrwt>
<pdfrwt beam="2">  1       -1 0.16477006E+00 0.25495122E+04</pdfrwt>
<totfact> 0.15146615E+00</totfact>
</mgrwt>
</event>
<event>
 6    1  0.1588846E-005  0.1592964E+04  0.7818608E-02  0.8824882E-01
          2   -1    0    0  501    0  0.00000000000E+00  0.00000000000E+00  0.10838233255E+04  0.10838233255E+04  0.00000000000E+00 0. -1.
         -2   -1    0    0    0  501 -0.00000000000E+00 -0.00000000000E+00 -0.58532018004E+03  0.58532018004E+03  0.00000000000E+00 0.  1.
         23    2    1    2    0    0  0.54327457817E+03 -0.55623090208E+03  0.81845677256E+02  0.78701906448E+03  0.90333876545E+02 0.  0.
         13    1    3    3    0    0  0.44005994199E+03 -0.40257179751E+03  0.43666687852E+02  0.59801637463E+03  0.00000000000E+00 0.  1.
        -13    1    3    3    0    0  0.10321463618E+03 -0.15365910457E+03  0.38178989403E+02  0.18900268985E+03  0.00000000000E+00 0. -1.
         22    1    1    2    0    0 -0.54327457817E+03  0.55623090208E+03  0.41665746820E+03  0.88212444106E+03  0.00000000000E+00 0.  1.
<mgrwt>
<rscale>  0 0.15929641E+04</rscale>
<asrwt>0</asrwt>
<pdfrwt beam="1">  1        2 0.16674205E+00 0.15929641E+04</pdfrwt>
<pdfrwt beam="2">  1       -2 0.90049259E-01 0.15929641E+04</pdfrwt>
<totfact> 0.22582062E+01</totfact>
</mgrwt>
</event>
<event>
 6    1  0.1588846E-005  0.1624072E+04  0.7818608E-02  0.8805894E-01
          1   -1    0    0  501    0  0.00000000000E+00  0.00000000000E+00  0.20521434666E+04  0.20521434666E+04  0.00000000000E+00 0. -1.
         -1   -1    0    0    0  501 -0.00000000000E+00 -0.00000000000E+00 -0.32132388559E+03  0.32132388559E+03  0.00000000000E+00 0.  1.
         23    2    1    2    0    0  0.48988361575E+03  0.27670882489E+03  0.17185233146E+04  0.18107019224E+04  0.93623384882E+02 0.  0.
         11    1    3    3    0    0  0.26234666609E+03  0.18791523155E+03  0.10747286214E+04  0.11221316843E+04  0.00000000000E+00 0.  1.
        -11    1    3    3    0    0  0.22753694965E+03  0.88793593336E+02  0.64379469330E+03  0.68857023810E+03  0.00000000000E+00 0. -1.
         22    1    1    2    0    0 -0.48988361575E+03 -0.27670882489E+03  0.12296266348E+02  0.56276542974E+03  0.00000000000E+00 0.  1.
<mgrwt>
<rscale>  0 0.16240723E+04</rscale>
<asrwt>0</asrwt>
<pdfrwt beam="1">  1        1 0.31571437E+00 0.16240723E+04</pdfrwt>
<pdfrwt beam="2">  1       -1 0.49434445E-01 0.16240723E+04</pdfrwt>
<totfact> 0.10794300E+01</totfact>
</mgrwt>
</event>
<event>
 6    1  0.1588846E-005  0.1433115E+04  0.7818608E-02  0.8930191E-01
         -1   -1    0    0    0  501 -0.00000000000E+00  0.00000000000E+00  0.69153570390E+03  0.69153570390E+03  0.00000000000E+00 0.  1.
          1   -1    0    0  501    0  0.00000000000E+00 -0.00000000000E+00 -0.74248477765E+03  0.74248477765E+03  0.00000000000E+00 0. -1.
         23    2    1    2    0    0 -0.46756584502E+03  0.49653312800E+03  0.18446794237E+03  0.71250531323E+03  0.92045820076E+02 0.  0.
         11    1    3    3    0    0 -0.20546161169E+03  0.24932974950E+03  0.45149430492E+02  0.32621813092E+03  0.00000000000E+00 0. -1.
        -11    1    3    3    0    0 -0.26210423332E+03  0.24720337850E+03  0.13931851188E+03  0.38628718231E+03  0.00000000000E+00 0.  1.
         22    1    1    2    0    0  0.46756584502E+03 -0.49653312800E+03 -0.23541701612E+03  0.72151516831E+03  0.00000000000E+00 0. -1.
<mgrwt>
<rscale>  0 0.14331151E+04</rscale>
<asrwt>0</asrwt>
<pdfrwt beam="1">  1        1 0.11422843E+00 0.14331151E+04</pdfrwt>
<pdfrwt beam="2">  1       -1 0.10639011E+00 0.14331151E+04</pdfrwt>
<totfact> 0.19984824E+01</totfact>
</mgrwt>
</event>
<event>
 6    1  0.1588846E-005  0.1844774E+04  0.7818608E-02  0.8682845E-01
         -2   -1    0    0    0  501 -0.00000000000E+00  0.00000000000E+00  0.88859239926E+03  0.88859239926E+03  0.00000000000E+00 0. -1.
          2   -1    0    0  501    0  0.00000000000E+00 -0.00000000000E+00 -0.95746654198E+03  0.95746654198E+03  0.00000000000E+00 0.  1.
         23    2    1    2    0    0  0.51316478616E+03 -0.75944171842E+03 -0.11531953184E+03  0.92831878434E+03  0.91582473846E+02 0.  0.
         11    1    3    3    0    0  0.15539276739E+03 -0.26609277253E+03 -0.32625935326E+00  0.30814344418E+03  0.00000000000E+00 0.  1.
        -11    1    3    3    0    0  0.35777201877E+03 -0.49334894589E+03 -0.11499327249E+03  0.62017534016E+03  0.00000000000E+00 0. -1.
         22    1    1    2    0    0 -0.51316478616E+03  0.75944171842E+03  0.46445389119E+02  0.91774015690E+03  0.00000000000E+00 0. -1.
<mgrwt>
<rscale>  0 0.18447737E+04</rscale>
<asrwt>0</asrwt>
<pdfrwt beam="1">  1        2 0.14730254E+00 0.18447737E+04</pdfrwt>
<pdfrwt beam="2">  1       -2 0.13670652E+00 0.18447737E+04</pdfrwt>
<totfact> 0.96461853E+00</totfact>
</mgrwt>
</event>
<event>
 6    1  0.1588846E-005  0.4328006E+04  0.7818608E-02  0.7941460E-01
         -2   -1    0    0    0  501 -0.00000000000E+00  0.00000000000E+00  0.18521737288E+04  0.18521737288E+04  0.00000000000E+00 0.  1.
          2   -1    0    0  501    0  0.00000000000E+00 -0.00000000000E+00 -0.25283314743E+04  0.25283314743E+04  0.00000000000E+00 0. -1.
         23    2    1    2    0    0  0.13922937244E+04 -0.71387763555E+03 -0.18502253696E+04  0.24243513544E+04  0.77733374897E+02 0.  0.
         13    1    3    3    0    0  0.58342291303E+03 -0.26621770251E+03 -0.71996487958E+03  0.96415952435E+03  0.00000000000E+00 0.  1.
        -13    1    3    3    0    0  0.80887081142E+03 -0.44765993305E+03 -0.11302604900E+04  0.14601918300E+04  0.00000000000E+00 0. -1.
         22    1    1    2    0    0 -0.13922937244E+04  0.71387763555E+03  0.11740676241E+04  0.19561538487E+04  0.00000000000E+00 0. -1.
<mgrwt>
<rscale>  0 0.43280061E+04</rscale>
<asrwt>0</asrwt>
<pdfrwt beam="1">  1        2 0.38897407E+00 0.43280061E+04</pdfrwt>
<pdfrwt beam="2">  1       -2 0.28494980E+00 0.43280061E+04</pdfrwt>
<totfact> 0.10115566E-01</totfact>
</mgrwt>
</event>
<event>
 6    1  0.1588846E-005  0.1144277E+04  0.7818608E-02  0.9163080E-01
         -2   -1    0    0    0  501 -0.00000000000E+00  0.00000000000E+00  0.18185558400E+03  0.18185558400E+03  0.00000000000E+00 0.  1.
          2   -1    0    0  501    0  0.00000000000E+00 -0.00000000000E+00 -0.18000133668E+04  0.18000133668E+04  0.00000000000E+00 0. -1.
         23    2    1    2    0    0 -0.17511105137E+03  0.15201004528E+03 -0.17134428733E+04  0.17311695638E+04  0.85385270259E+02 0.  0.
         13    1    3    3    0    0 -0.63695623396E+02  0.11735912570E+02 -0.34223127843E+03  0.34830606084E+03  0.00000000000E+00 0. -1.
        -13    1    3    3    0    0 -0.11141542797E+03  0.14027413271E+03 -0.13712115949E+04  0.13828635030E+04  0.00000000000E+00 0.  1.
         22    1    1    2    0    0  0.17511105137E+03 -0.15201004528E+03  0.95285090487E+02  0.25069938701E+03  0.00000000000E+00 0.  1.
<mgrwt>
<rscale>  0 0.11442770E+04</rscale>
<asrwt>0</asrwt>
<pdfrwt beam="1">  1        2 0.27692515E+00 0.11442770E+04</pdfrwt>
<pdfrwt beam="2">  1       -2 0.27977780E-01 0.11442770E+04</pdfrwt>
<totfact> 0.99785161E+01</totfact>
</mgrwt>
</event>
<event>
 6    1  0.1588846E-005  0.3718055E+04  0.7818608E-02  0.8063972E-01
         -2   -1    0    0    0  501 -0.00000000000E+00  0.00000000000E+00  0.11384647143E+04  0.11384647143E+04  0.00000000000E+00 0.  1.
          2   -1    0    0  501    0  0.00000000000E+00 -0.00000000000E+00 -0.30356519489E+04  0.30356519489E+04  0.00000000000E+00 0. -1.
         23    2    1    2    0    0 -0.11482700190E+04  0.12830363852E+04 -0.16542373724E+03  0.17320455723E+04  0.88940707404E+02 0.  0.
         13    1    3    3    0    0 -0.85668839178E+03  0.89944034749E+03 -0.10880874417E+03  0.12468950566E+04  0.00000000000E+00 0. -1.
        -13    1    3    3    0    0 -0.29158162723E+03  0.38359603769E+03 -0.56614993067E+02  0.48515051572E+03  0.00000000000E+00 0.  1.
         22    1    1    2    0    0  0.11482700190E+04 -0.12830363852E+04 -0.17317634973E+04  0.24420710909E+04  0.00000000000E+00 0. -1.
<mgrwt>
<rscale>  0 0.37180547E+04</rscale>
<asrwt>0</asrwt>
<pdfrwt beam="1">  1        2 0.46702337E+00 0.37180547E+04</pdfrwt>
<pdfrwt beam="2">  1       -2 0.17514842E+00 0.37180547E+04</pdfrwt>
<totfact> 0.26141875E-01</totfact>
</mgrwt>
</event>
<event>
 6    1  0.1588846E-005  0.4129144E+04  0.7818608E-02  0.7978989E-01
          2   -1    0    0  501    0  0.00000000000E+00  0.00000000000E+00  0.36423062186E+04  0.36423062186E+04  0.00000000000E+00 0. -1.
         -2   -1    0    0    0  501 -0.00000000000E+00 -0.00000000000E+00 -0.11702632642E+04  0.11702632642E+04  0.00000000000E+00 0.  1.
         23    2    1    2    0    0  0.18089479266E+04  0.72558180634E+03  0.20267569503E+04  0.28133093235E+04  0.90576238470E+02 0.  0.
         13    1    3    3    0    0  0.13847550836E+04  0.53679843256E+03  0.15928719230E+04  0.21778292316E+04  0.00000000000E+00 0.  1.
        -13    1    3    3    0    0  0.42419284309E+03  0.18878337378E+03  0.43388502728E+03  0.63548009193E+03  0.00000000000E+00 0. -1.
         22    1    1    2    0    0 -0.18089479266E+04 -0.72558180634E+03  0.44528600416E+03  0.19992601593E+04  0.00000000000E+00 0.  1.
<mgrwt>
<rscale>  0 0.41291438E+04</rscale>
<asrwt>0</asrwt>
<pdfrwt beam="1">  1        2 0.56035480E+00 0.41291438E+04</pdfrwt>
<pdfrwt beam="2">  1       -2 0.18004050E+00 0.41291438E+04</pdfrwt>
<totfact> 0.90816037E-02</totfact>
</mgrwt>
</event>
<event>
 6    1  0.1588846E-005  0.9300094E+03  0.7818608E-02  0.9388827E-01
         -2   -1    0    0    0  501 -0.00000000000E+00  0.00000000000E+00  0.10618710955E+03  0.10618710955E+03  0.00000000000E+00 0.  1.
          2   -1    0    0  501    0  0.00000000000E+00 -0.00000000000E+00 -0.20363054311E+04  0.20363054311E+04  0.00000000000E+00 0. -1.
         23    2    1    2    0    0  0.41796160153E+02 -0.43827225849E+03 -0.12862698483E+04  0.13625115485E+04  0.90100531005E+02 0.  0.
         13    1    3    3    0    0  0.25032689886E+01 -0.33489035742E+03 -0.10388594103E+04  0.10915066158E+04  0.00000000000E+00 0.  1.
        -13    1    3    3    0    0  0.39292891165E+02 -0.10338190107E+03 -0.24741043794E+03  0.27100493274E+03  0.00000000000E+00 0. -1.
         22    1    1    2    0    0 -0.41796160153E+02  0.43827225849E+03 -0.64384847333E+03  0.77998099219E+03  0.00000000000E+00 0.  1.
<mgrwt>
<rscale>  0 0.93000944E+03</rscale>
<asrwt>0</asrwt>
<pdfrwt beam="1">  1        2 0.31327771E+00 0.93000944E+03</pdfrwt>
<pdfrwt beam="2">  1       -2 0.16336481E-01 0.93000944E+03</pdfrwt>
<totfact> 0.19515893E+02</totfact>
</mgrwt>
</event>
<event>
 6    1  0.1588846E-005  0.2332205E+04  0.7818608E-02  0.8465330E-01
          2   -1    0    0  501    0  0.00000000000E+00  0.00000000000E+00  0.82382416565E+03  0.82382416565E+03  0.00000000000E+00 0. -1.
         -2   -1    0    0    0  501 -0.00000000000E+00 -0.00000000000E+00 -0.16505894531E+04  0.16505894531E+04  0.00000000000E+00 0.  1.
         23    2    1    2    0    0 -0.76188031661E+03 -0.79150586717E+03 -0.82253336756E+03  0.13757958218E+04  0.96487553196E+02 0.  0.
         11    1    3    3    0    0 -0.37693073499E+03 -0.34060667498E+03 -0.42036764690E+03  0.65939263309E+03  0.00000000000E+00 0. -1.
        -11    1    3    3    0    0 -0.38494958162E+03 -0.45089919219E+03 -0.40216572066E+03  0.71640318870E+03  0.00000000000E+00 0.  1.
         22    1    1    2    0    0  0.76188031661E+03  0.79150586717E+03 -0.42319198844E+01  0.10986177969E+04  0.00000000000E+00 0. -1.
<mgrwt>
<rscale>  0 0.23322054E+04</rscale>
<asrwt>0</asrwt>
<pdfrwt beam="1">  1        2 0.12674218E+00 0.23322054E+04</pdfrwt>
<pdfrwt beam="2">  1       -2 0.25393684E+00 0.23322054E+04</pdfrwt>
<totfact> 0.18197499E+00</totfact>
</mgrwt>
</event>
<event>
 6    1  0.1588846E-005  0.3645290E+04  0.7818608E-02  0.8080196E-01
          2   -1    0    0  501    0  0.00000000000E+00  0.00000000000E+00  0.24772659556E+04  0.24772659556E+04  0.00000000000E+00 0. -1.
         -2   -1    0    0    0  501 -0.00000000000E+00 -0.00000000000E+00 -0.13410083427E+04  0.13410083427E+04  0.00000000000E+00 0.  1.
         23    2    1    2    0    0 -0.10636435643E+03  0.15842079775E+04  0.15034038436E+04  0.21886041946E+04  0.93471446877E+02 0.  0.
         13    1    3    3    0    0 -0.62727710946E+02  0.56211791853E+03  0.48462850024E+03  0.74483293650E+03  0.00000000000E+00 0. -1.
        -13    1    3    3    0    0 -0.43636645486E+02  0.10220900590E+04  0.10187753434E+04  0.14437712581E+04  0.00000000000E+00 0.  1.
         22    1    1    2    0    0  0.10636435643E+03 -0.15842079775E+04 -0.36714623074E+03  0.16296701037E+04  0.00000000000E+00 0.  1.
<mgrwt>
<rscale>  0 0.36452897E+04</rscale>
<asrwt>0</asrwt>
<pdfrwt beam="1">  1        2 0.38111784E+00 0.36452897E+04</pdfrwt>
<pdfrwt beam="2">  1       -2 0.20630898E+00 0.36452897E+04</pdfrwt>
<totfact> 0.35245896E-01</totfact>
</mgrwt>
</event>
<event>
 6    1  0.1588846E-005  0.3615465E+04  0.7818608E-02  0.8086958E-01
         -1   -1    0    0    0  501 -0.00000000000E+00  0.00000000000E+00  0.20017448757E+04  0.20017448757E+04  0.00000000000E+00 0.  1.
          1   -1    0    0  501    0  0.00000000000E+00 -0.00000000000E+00 -0.16325243920E+04  0.16325243920E+04  0.00000000000E+00 0. -1.
         23    2    1    2    0    0  0.76573951085E+03  0.14248585708E+04 -0.62390775460E+03  0.17361431805E+04  0.91396453668E+02 0.  0.
         13    1    3    3    0    0  0.31096908106E+03  0.64849796707E+03 -0.31056845193E+03  0.78339271506E+03  0.00000000000E+00 0. -1.
        -13    1    3    3    0    0  0.45477042979E+03  0.77636060369E+03 -0.31333930267E+03  0.95275046543E+03  0.00000000000E+00 0.  1.
         22    1    1    2    0    0 -0.76573951085E+03 -0.14248585708E+04  0.99312823831E+03  0.18981260872E+04  0.00000000000E+00 0. -1.
<mgrwt>
<rscale>  0 0.36154653E+04</rscale>
<asrwt>0</asrwt>
<pdfrwt beam="1">  1        1 0.25115760E+00 0.36154653E+04</pdfrwt>
<pdfrwt beam="2">  1       -1 0.30796075E+00 0.36154653E+04</pdfrwt>
<totfact> 0.12554726E-01</totfact>
</mgrwt>
</event>
<event>
 6    1  0.1588846E-005  0.2055339E+04  0.7818608E-02  0.8581176E-01
          2   -1    0    0  501    0  0.00000000000E+00  0.00000000000E+00  0.75949846713E+03  0.75949846713E+03  0.00000000000E+00 0. -1.
         -2   -1    0    0    0  501 -0.00000000000E+00 -0.00000000000E+00 -0.13905292505E+04  0.13905292505E+04  0.00000000000E+00 0.  1.
         23    2    1    2    0    0 -0.39280602130E+03  0.11245274293E+03  0.66798646051E+03  0.78826856505E+03  0.90659966161E+02 0.  0.
         11    1    3    3    0    0 -0.20485969111E+03  0.33033058618E+02  0.40839188435E+03  0.45808580769E+03  0.00000000000E+00 0. -1.
        -11    1    3    3    0    0 -0.18794633020E+03  0.79419684309E+02  0.25959457615E+03  0.33018275736E+03  0.00000000000E+00 0.  1.
         22    1    1    2    0    0  0.39280602130E+03 -0.11245274293E+03 -0.12990172439E+04  0.13617591526E+04  0.00000000000E+00 0.  1.
<mgrwt>
<rscale>  0 0.20553392E+04</rscale>
<asrwt>0</asrwt>
<pdfrwt beam="1">  1        2 0.11684592E+00 0.20553392E+04</pdfrwt>
<pdfrwt beam="2">  1       -2 0.21392758E+00 0.20553392E+04</pdfrwt>
<totfact> 0.36846076E+00</totfact>
</mgrwt>
</event>
<event>
 6    1  0.1588846E-005  0.1797123E+04  0.7818608E-02  0.8707831E-01
          1   -1    0    0  501    0  0.00000000000E+00  0.00000000000E+00  0.50876624508E+03  0.50876624508E+03  0.00000000000E+00 0. -1.
         -1   -1    0    0    0  501 -0.00000000000E+00 -0.00000000000E+00 -0.15870007181E+04  0.15870007181E+04  0.00000000000E+00 0.  1.
         23    2    1    2    0    0  0.38926105713E+03 -0.14367847454E+03  0.38604503997E+03  0.57383326989E+03  0.89923156643E+02 0.  0.
         11    1    3    3    0    0  0.28246447415E+03 -0.95324648937E+02  0.32725964704E+03  0.44268707281E+03  0.00000000000E+00 0. -1.
        -11    1    3    3    0    0  0.10679658297E+03 -0.48353825604E+02  0.58785392932E+02  0.13114619707E+03  0.00000000000E+00 0.  1.
         22    1    1    2    0    0 -0.38926105713E+03  0.14367847454E+03 -0.14642795130E+04  0.15219336933E+04  0.00000000000E+00 0.  1.
<mgrwt>
<rscale>  0 0.17971226E+04</rscale>
<asrwt>0</asrwt>
<pdfrwt beam="1">  1        1 0.78271730E-01 0.17971226E+04</pdfrwt>
<pdfrwt beam="2">  1       -1 0.24415396E+00 0.17971226E+04</pdfrwt>
<totfact> 0.31094935E+00</totfact>
</mgrwt>
</event>
<event>
 6    1  0.1588846E-005  0.2975025E+04  0.7818608E-02  0.8250899E-01
         -2   -1    0    0    0  501 -0.00000000000E+00  0.00000000000E+00  0.10417970426E+04  0.10417970426E+04  0.00000000000E+00 0.  1.
          2   -1    0    0  501    0  0.00000000000E+00 -0.00000000000E+00 -0.21239199219E+04  0.21239199219E+04  0.00000000000E+00 0. -1.
         23    2    1    2    0    0 -0.12968075035E+04  0.63346144603E+03 -0.91863812627E+03  0.17132327583E+04  0.91035006480E+02 0.  0.
         11    1    3    3    0    0 -0.50529515386E+03  0.28057864648E+03 -0.32899628753E+03  0.66504595825E+03  0.00000000000E+00 0.  1.
        -11    1    3    3    0    0 -0.79151234966E+03  0.35288279955E+03 -0.58964183874E+03  0.10481868001E+04  0.00000000000E+00 0. -1.
         22    1    1    2    0    0  0.12968075035E+04 -0.63346144603E+03 -0.16348475302E+03  0.14524842062E+04  0.00000000000E+00 0.  1.
<mgrwt>
<rscale>  0 0.29750250E+04</rscale>
<asrwt>0</asrwt>
<pdfrwt beam="1">  1        2 0.32675690E+00 0.29750250E+04</pdfrwt>
<pdfrwt beam="2">  1       -2 0.16027647E+00 0.29750250E+04</pdfrwt>
<totfact> 0.12252876E+00</totfact>
</mgrwt>
</event>
<event>
 6    1  0.1588846E-005  0.2258708E+04  0.7818608E-02  0.8494382E-01
         -1   -1    0    0    0  501 -0.00000000000E+00  0.00000000000E+00  0.75048972312E+03  0.75048972312E+03  0.00000000000E+00 0.  1.
          1   -1    0    0  501    0  0.00000000000E+00 -0.00000000000E+00 -0.16994779414E+04  0.16994779414E+04  0.00000000000E+00 0. -1.
         23    2    1    2    0    0 -0.78825736357E+03 -0.45858574111E+02 -0.13481475568E+04  0.15652186280E+04  0.94630008365E+02 0.  0.
         13    1    3    3    0    0 -0.12661671833E+03 -0.39118548441E+02 -0.25605438559E+03  0.28831563012E+03  0.00000000000E+00 0. -1.
        -13    1    3    3    0    0 -0.66164064525E+03 -0.67400256702E+01 -0.10920931712E+04  0.12769029979E+04  0.00000000000E+00 0.  1.
         22    1    1    2    0    0  0.78825736357E+03  0.45858574111E+02  0.39915933854E+03  0.88474903650E+03  0.00000000000E+00 0.  1.
<mgrwt>
<rscale>  0 0.22587082E+04</rscale>
<asrwt>0</asrwt>
<pdfrwt beam="1">  1        1 0.26145814E+00 0.22587082E+04</pdfrwt>
<pdfrwt beam="2">  1       -1 0.11545996E+00 0.22587082E+04</pdfrwt>
<totfact> 0.29413305E+00</totfact>
</mgrwt>
</event>
<event>
 6    1  0.1588846E-005  0.2365239E+04  0.7818608E-02  0.8452633E-01
          1   -1    0    0  501    0  0.00000000000E+00  0.00000000000E+00  0.11726434032E+04  0.11726434032E+04  0.00000000000E+00 0. -1.
         -1   -1    0    0    0  501 -0.00000000000E+00 -0.00000000000E+00 -0.11926804035E+04  0.11926804035E+04  0.00000000000E+00 0.  1.
         23    2    1    2    0    0 -0.17309032488E+03  0.39208417608E+03  0.10903620251E+04  0.11750817064E+04  0.90760174624E+02 0.  0.
         11    1    3    3    0    0 -0.80650612962E+02  0.18673953452E+03  0.39717242115E+03  0.44623100211E+03  0.00000000000E+00 0. -1.
        -11    1    3    3    0    0 -0.92439711920E+02  0.20534464157E+03  0.69318960391E+03  0.72885070428E+03  0.00000000000E+00 0.  1.
         22    1    1    2    0    0  0.17309032488E+03 -0.39208417608E+03 -0.11103990254E+04  0.11902421003E+04  0.00000000000E+00 0.  1.
<mgrwt>
<rscale>  0 0.23652389E+04</rscale>
<asrwt>0</asrwt>
<pdfrwt beam="1">  1        1 0.18040668E+00 0.23652389E+04</pdfrwt>
<pdfrwt beam="2">  1       -1 0.18348929E+00 0.23652389E+04</pdfrwt>
<totfact> 0.19765480E+00</totfact>
</mgrwt>
</event>
<event>
 6    1  0.1588846E-005  0.1810852E+04  0.7818608E-02  0.8700550E-01
          1   -1    0    0  501    0  0.00000000000E+00  0.00000000000E+00  0.54974714611E+03  0.54974714611E+03  0.00000000000E+00 0. -1.
         -1   -1    0    0    0  501 -0.00000000000E+00 -0.00000000000E+00 -0.14912248182E+04  0.14912248182E+04  0.00000000000E+00 0.  1.
         23    2    1    2    0    0 -0.75134560660E+03  0.40476416168E+03 -0.13893946976E+03  0.86946788266E+03  0.91191971032E+02 0.  0.
         13    1    3    3    0    0 -0.35186690563E+03  0.23520968506E+03 -0.90407718383E+02  0.43279033118E+03  0.00000000000E+00 0. -1.
        -13    1    3    3    0    0 -0.39947870097E+03  0.16955447662E+03 -0.48531751379E+02  0.43667755148E+03  0.00000000000E+00 0.  1.
         22    1    1    2    0    0  0.75134560660E+03 -0.40476416168E+03 -0.80253820232E+03  0.11715040816E+04  0.00000000000E+00 0.  1.
<mgrwt>
<rscale>  0 0.18108524E+04</rscale>
<asrwt>0</asrwt>
<pdfrwt beam="1">  1        1 0.84576487E-01 0.18108524E+04</pdfrwt>
<pdfrwt beam="2">  1       -1 0.22941919E+00 0.18108524E+04</pdfrwt>
<totfact> 0.34845829E+00</totfact>
</mgrwt>
</event>
<event>
 6    1  0.1588846E-005  0.3256800E+04  0.7818608E-02  0.8173975E-01
          2   -1    0    0  501    0  0.00000000000E+00  0.00000000000E+00  0.39529055884E+04  0.39529055884E+04  0.00000000000E+00 0. -1.
         -2   -1    0    0    0  501 -0.00000000000E+00 -0.00000000000E+00 -0.67081953603E+03  0.67081953603E+03  0.00000000000E+00 0.  1.
         23    2    1    2    0    0 -0.11177070335E+04  0.11243899364E+04  0.21620220886E+04  0.26825746860E+04  0.91354761344E+02 0.  0.
         11    1    3    3    0    0 -0.10595383761E+03  0.75635657244E+02  0.15735270688E+03  0.20422253234E+03  0.00000000000E+00 0. -1.
        -11    1    3    3    0    0 -0.10117531959E+04  0.10487542791E+04  0.20046693817E+04  0.24783521536E+04  0.00000000000E+00 0.  1.
         22    1    1    2    0    0  0.11177070335E+04 -0.11243899364E+04  0.11200639638E+04  0.19411504385E+04  0.00000000000E+00 0.  1.
<mgrwt>
<rscale>  0 0.32567998E+04</rscale>
<asrwt>0</asrwt>
<pdfrwt beam="1">  1        2 0.60813931E+00 0.32567998E+04</pdfrwt>
<pdfrwt beam="2">  1       -2 0.10320301E+00 0.32567998E+04</pdfrwt>
<totfact> 0.23926342E-01</totfact>
</mgrwt>
</event>
<event>
 6    1  0.1588846E-005  0.3106926E+04  0.7818608E-02  0.8213840E-01
         -2   -1    0    0    0  501 -0.00000000000E+00  0.00000000000E+00  0.90560142706E+03  0.90560142706E+03  0.00000000000E+00 0.  1.
          2   -1    0    0  501    0  0.00000000000E+00 -0.00000000000E+00 -0.26648012197E+04  0.26648012197E+04  0.00000000000E+00 0. -1.
         23    2    1    2    0    0 -0.36939392785E+03  0.11225786051E+04  0.27587248086E+03  0.12170744170E+04  0.92357524880E+02 0.  0.
         11    1    3    3    0    0 -0.24368528086E+03  0.64172857572E+03  0.12552508600E+03  0.69782134405E+03  0.00000000000E+00 0.  1.
        -11    1    3    3    0    0 -0.12570864699E+03  0.48085002935E+03  0.15034739485E+03  0.51925307297E+03  0.00000000000E+00 0. -1.
         22    1    1    2    0    0  0.36939392785E+03 -0.11225786051E+04 -0.20350722735E+04  0.23533282297E+04  0.00000000000E+00 0. -1.
<mgrwt>
<rscale>  0 0.31069263E+04</rscale>
<asrwt>0</asrwt>
<pdfrwt beam="1">  1        2 0.40996941E+00 0.31069263E+04</pdfrwt>
<pdfrwt beam="2">  1       -2 0.13932330E+00 0.31069263E+04</pdfrwt>
<totfact> 0.85972004E-01</totfact>
</mgrwt>
</event>
<event>
 6    1  0.1588846E-005  0.1629321E+04  0.7818608E-02  0.8802735E-01
          2   -1    0    0  501    0  0.00000000000E+00  0.00000000000E+00  0.13339657611E+04  0.13339657611E+04  0.00000000000E+00 0. -1.
         -2   -1    0    0    0  501 -0.00000000000E+00 -0.00000000000E+00 -0.49751795957E+03  0.49751795957E+03  0.00000000000E+00 0.  1.
         23    2    1    2    0    0 -0.94788177702E+02  0.64572071293E+03 -0.12361581528E+03  0.67059518767E+03  0.92070615308E+02 0.  0.
         11    1    3    3    0    0 -0.93610579451E+02  0.45850449433E+03 -0.54940354306E+02  0.47117698845E+03  0.00000000000E+00 0.  1.
        -11    1    3    3    0    0 -0.11775982510E+01  0.18721621859E+03 -0.68675460970E+02  0.19941819922E+03  0.00000000000E+00 0. -1.
         22    1    1    2    0    0  0.94788177702E+02 -0.64572071293E+03  0.96006361681E+03  0.11608885330E+04  0.00000000000E+00 0. -1.
<mgrwt>
<rscale>  0 0.16293212E+04</rscale>
<asrwt>0</asrwt>
<pdfrwt beam="1">  1        2 0.20522550E+00 0.16293212E+04</pdfrwt>
<pdfrwt beam="2">  1       -2 0.76541225E-01 0.16293212E+04</pdfrwt>
<totfact> 0.23066372E+01</totfact>
</mgrwt>
</event>
<event>
 6    1  0.1588846E-005  0.4344168E+04  0.7818608E-02  0.7938501E-01
          1   -1    0    0  501    0  0.00000000000E+00  0.00000000000E+00  0.25357489094E+04  0.25357489094E+04  0.00000000000E+00 0. -1.
         -1   -1    0    0    0  501 -0.00000000000E+00 -0.00000000000E+00 -0.18605739702E+04  0.18605739702E+04  0.00000000000E+00 0.  1.
         23    2    1    2    0    0  0.12031575652E+04  0.17889398606E+04  0.59488205478E+03  0.22389307273E+04  0.10503423835E+03 0.  0.
         11    1    3    3    0    0  0.10169554486E+04  0.15600755523E+04  0.53837601012E+03  0.19385259456E+04  0.00000000000E+00 0. -1.
        -11    1    3    3    0    0  0.18620211660E+03  0.22886430826E+03  0.56506044657E+02  0.30040478176E+03  0.00000000000E+00 0.  1.
         22    1    1    2    0    0 -0.12031575652E+04 -0.17889398606E+04  0.80292884368E+02  0.21573921523E+04  0.00000000000E+00 0.  1.
<mgrwt>
<rscale>  0 0.43441678E+04</rscale>
<asrwt>0</asrwt>
<pdfrwt beam="1">  1        1 0.39011522E+00 0.43441678E+04</pdfrwt>
<pdfrwt beam="2">  1       -1 0.28624215E+00 0.43441678E+04</pdfrwt>
<totfact> 0.39483539E-02</totfact>
</mgrwt>
</event>
<event>
 6    1  0.1588846E-005  0.9350135E+03  0.7818608E-02  0.9382841E-01
          2   -1    0    0  501    0  0.00000000000E+00  0.00000000000E+00  0.12157402236E+04  0.12157402236E+04  0.00000000000E+00 0. -1.
         -2   -1    0    0    0  501 -0.00000000000E+00 -0.00000000000E+00 -0.17977734852E+03  0.17977734852E+03  0.00000000000E+00 0.  1.
         23    2    1    2    0    0 -0.14596639114E+03 -0.43011942291E+03  0.65604085951E+03  0.80336079962E+03  0.93220489744E+02 0.  0.
         13    1    3    3    0    0  0.19852453087E+00 -0.54156136048E+02  0.12713121173E+03  0.13818564136E+03  0.00000000000E+00 0. -1.
        -13    1    3    3    0    0 -0.14616491567E+03 -0.37596328686E+03  0.52890964778E+03  0.66517515825E+03  0.00000000000E+00 0.  1.
         22    1    1    2    0    0  0.14596639114E+03  0.43011942291E+03  0.37992201557E+03  0.59215677250E+03  0.00000000000E+00 0.  1.
<mgrwt>
<rscale>  0 0.93501348E+03</rscale>
<asrwt>0</asrwt>
<pdfrwt beam="1">  1        2 0.18703695E+00 0.93501348E+03</pdfrwt>
<pdfrwt beam="2">  1       -2 0.27658054E-01 0.93501348E+03</pdfrwt>
<totfact> 0.22096997E+02</totfact>
</mgrwt>
</event>
<event>
 6    1  0.1588846E-005  0.4693984E+04  0.7818608E-02  0.7877529E-01
         -1   -1    0    0    0  501 -0.00000000000E+00  0.00000000000E+00  0.21893735083E+04  0.21893735083E+04  0.00000000000E+00 0.  1.
          1   -1    0    0  501    0  0.00000000000E+00 -0.00000000000E+00 -0.25159576776E+04  0.25159576776E+04  0.00000000000E+00 0. -1.
         23    2    1    2    0    0 -0.13510623149E+04 -0.32666574525E+03 -0.20575462828E+04  0.24853515180E+04  0.10675005589E+03 0.  0.
         11    1    3    3    0    0 -0.51964474842E+03 -0.12004744577E+03 -0.69877797743E+03  0.87905216884E+03  0.00000000000E+00 0.  1.
        -11    1    3    3    0    0 -0.83141756647E+03 -0.20661829948E+03 -0.13587683053E+04  0.16062993491E+04  0.00000000000E+00 0. -1.
         22    1    1    2    0    0  0.13510623149E+04  0.32666574525E+03  0.17309621134E+04  0.22199796679E+04  0.00000000000E+00 0.  1.
<mgrwt>
<rscale>  0 0.46939838E+04</rscale>
<asrwt>0</asrwt>
<pdfrwt beam="1">  1        1 0.38707041E+00 0.46939838E+04</pdfrwt>
<pdfrwt beam="2">  1       -1 0.33682669E+00 0.46939838E+04</pdfrwt>
<totfact> 0.18547771E-02</totfact>
</mgrwt>
</event>
<event>
 6    1  0.1588846E-005  0.1571298E+04  0.7818608E-02  0.8838377E-01
          2   -1    0    0  501    0  0.00000000000E+00  0.00000000000E+00  0.18263795019E+04  0.18263795019E+04  0.00000000000E+00 0. -1.
         -2   -1    0    0    0  501 -0.00000000000E+00 -0.00000000000E+00 -0.33796064886E+03  0.33796064886E+03  0.00000000000E+00 0.  1.
         23    2    1    2    0    0  0.55652279048E+03 -0.37647581188E+03  0.13004868025E+04  0.14666510303E+04  0.91365573309E+02 0.  0.
         13    1    3    3    0    0  0.24747874113E+03 -0.18170135565E+03  0.68988633065E+03  0.75511870535E+03  0.00000000000E+00 0.  1.
        -13    1    3    3    0    0  0.30904404934E+03 -0.19477445623E+03  0.61060047182E+03  0.71153232493E+03  0.00000000000E+00 0. -1.
         22    1    1    2    0    0 -0.55652279048E+03  0.37647581188E+03  0.18793205061E+03  0.69768912052E+03  0.00000000000E+00 0.  1.
<mgrwt>
<rscale>  0 0.15712981E+04</rscale>
<asrwt>0</asrwt>
<pdfrwt beam="1">  1        2 0.28098146E+00 0.15712981E+04</pdfrwt>
<pdfrwt beam="2">  1       -2 0.51993947E-01 0.15712981E+04</pdfrwt>
<totfact> 0.28001398E+01</totfact>
</mgrwt>
</event>
<event>
 6    1  0.1588846E-005  0.2332570E+04  0.7818608E-02  0.8465189E-01
          1   -1    0    0  501    0  0.00000000000E+00  0.00000000000E+00  0.12519089430E+04  0.12519089430E+04  0.00000000000E+00 0. -1.
         -1   -1    0    0    0  501 -0.00000000000E+00 -0.00000000000E+00 -0.10865175979E+04  0.10865175979E+04  0.00000000000E+00 0.  1.
         23    2    1    2    0    0  0.48609513923E+03 -0.82341453993E+03 -0.58350244039E+03  0.11238723467E+04  0.91180945038E+02 0.  0.
         11    1    3    3    0    0  0.11390542961E+03 -0.23172478169E+03 -0.19970862665E+03  0.32642664858E+03  0.00000000000E+00 0. -1.
        -11    1    3    3    0    0  0.37218970962E+03 -0.59168975823E+03 -0.38379381373E+03  0.79744569809E+03  0.00000000000E+00 0.  1.
         22    1    1    2    0    0 -0.48609513923E+03  0.82341453993E+03  0.74889378548E+03  0.12145541943E+04  0.00000000000E+00 0. -1.
<mgrwt>
<rscale>  0 0.23325703E+04</rscale>
<asrwt>0</asrwt>
<pdfrwt beam="1">  1        1 0.19260138E+00 0.23325703E+04</pdfrwt>
<pdfrwt beam="2">  1       -1 0.16715655E+00 0.23325703E+04</pdfrwt>
<totfact> 0.22804241E+00</totfact>
</mgrwt>
</event>
<event>
 6    1  0.1588846E-005  0.2933641E+04  0.7818608E-02  0.8262938E-01
          2   -1    0    0  501    0  0.00000000000E+00  0.00000000000E+00  0.12813403872E+04  0.12813403872E+04  0.00000000000E+00 0.  1.
         -2   -1    0    0    0  501 -0.00000000000E+00 -0.00000000000E+00 -0.16791499882E+04  0.16791499882E+04  0.00000000000E+00 0. -1.
         23    2    1    2    0    0  0.11810107078E+04 -0.79424513673E+02  0.67331103956E+03  0.13641213793E+04  0.79905168927E+02 0.  0.
         11    1    3    3    0    0  0.73954945569E+03 -0.65511397027E+02  0.46242556675E+03  0.87467853828E+03  0.00000000000E+00 0.  1.
        -11    1    3    3    0    0  0.44146125212E+03 -0.13913116645E+02  0.21088547282E+03  0.48944284097E+03  0.00000000000E+00 0. -1.
         22    1    1    2    0    0 -0.11810107078E+04  0.79424513673E+02 -0.10711206406E+04  0.15963689962E+04  0.00000000000E+00 0. -1.
<mgrwt>
<rscale>  0 0.29336412E+04</rscale>
<asrwt>0</asrwt>
<pdfrwt beam="1">  1        2 0.19712929E+00 0.29336412E+04</pdfrwt>
<pdfrwt beam="2">  1       -2 0.25833076E+00 0.29336412E+04</pdfrwt>
<totfact> 0.83343336E-01</totfact>
</mgrwt>
</event>
<event>
 6    1  0.1588846E-005  0.2489536E+04  0.7818608E-02  0.8406723E-01
         -2   -1    0    0    0  501 -0.00000000000E+00  0.00000000000E+00  0.12287037398E+04  0.12287037398E+04  0.00000000000E+00 0.  1.
          2   -1    0    0  501    0  0.00000000000E+00 -0.00000000000E+00 -0.12610422489E+04  0.12610422489E+04  0.00000000000E+00 0. -1.
         23    2    1    2    0    0 -0.12589878174E+03 -0.11955809088E+04 -0.33246976016E+03  0.12506564114E+04  0.91329652375E+02 0.  0.
         13    1    3    3    0    0 -0.28543155537E+02 -0.13810898797E+03 -0.12627270532E+02  0.14159185093E+03  0.00000000000E+00 0. -1.
        -13    1    3    3    0    0 -0.97355626202E+02 -0.10574719208E+04 -0.31984248962E+03  0.11090645605E+04  0.00000000000E+00 0.  1.
         22    1    1    2    0    0  0.12589878174E+03  0.11955809088E+04  0.30013125099E+03  0.12390895773E+04  0.00000000000E+00 0.  1.
<mgrwt>
<rscale>  0 0.24895360E+04</rscale>
<asrwt>0</asrwt>
<pdfrwt beam="1">  1        2 0.19400650E+00 0.24895360E+04</pdfrwt>
<pdfrwt beam="2">  1       -2 0.18903134E+00 0.24895360E+04</pdfrwt>
<totfact> 0.24473571E+00</totfact>
</mgrwt>
</event>
<event>
 6    1  0.1588846E-005  0.5364927E+03  0.7818608E-02  0.1004670E+00
          2   -1    0    0  501    0  0.00000000000E+00  0.00000000000E+00  0.37338698340E+03  0.37338698340E+03  0.00000000000E+00 0. -1.
         -2   -1    0    0    0  501 -0.00000000000E+00 -0.00000000000E+00 -0.19271190342E+03  0.19271190342E+03  0.00000000000E+00 0.  1.
         23    2    1    2    0    0 -0.22757608306E+03  0.12134966990E+03  0.72247858536E+02  0.28632562449E+03  0.10122249856E+03 0.  0.
         11    1    3    3    0    0 -0.11274681478E+03  0.45407225616E+01  0.37267397396E+02  0.11883316588E+03  0.00000000000E+00 0. -1.
        -11    1    3    3    0    0 -0.11482926827E+03  0.11680894733E+03  0.34980461141E+02  0.16749245861E+03  0.00000000000E+00 0.  1.
         22    1    1    2    0    0  0.22757608306E+03 -0.12134966990E+03  0.10842722145E+03  0.27977326233E+03  0.00000000000E+00 0. -1.
<mgrwt>
<rscale>  0 0.53649274E+03</rscale>
<asrwt>0</asrwt>
<pdfrwt beam="1">  1        2 0.57444151E-01 0.53649274E+03</pdfrwt>
<pdfrwt beam="2">  1       -2 0.29647985E-01 0.53649274E+03</pdfrwt>
<totfact> 0.90344457E+02</totfact>
</mgrwt>
</event>
<event>
 6    1  0.2782741E-005  0.3163106E+04  0.7818608E-02  0.8198629E-01
          2   -1    0    0  501    0  0.00000000000E+00  0.00000000000E+00  0.23348224004E+04  0.23348224004E+04  0.00000000000E+00 0. -1.
         -2   -1    0    0    0  501 -0.00000000000E+00 -0.00000000000E+00 -0.10713065771E+04  0.10713065771E+04  0.00000000000E+00 0.  1.
         23    2    1    2    0    0 -0.64055367671E+03 -0.46912806811E+03 -0.83911839970E+03  0.11585834645E+04  0.88350429689E+02 0.  0.
         13    1    3    3    0    0 -0.35659359307E+03 -0.28627463500E+03 -0.42592666174E+03  0.62492053770E+03  0.00000000000E+00 0. -1.
        -13    1    3    3    0    0 -0.28396008364E+03 -0.18285343311E+03 -0.41319173797E+03  0.53366292678E+03  0.00000000000E+00 0.  1.
         22    1    1    2    0    0  0.64055367671E+03  0.46912806811E+03  0.21026342231E+04  0.22475455130E+04  0.00000000000E+00 0. -1.
<mgrwt>
<rscale>  0 0.31631064E+04</rscale>
<asrwt>0</asrwt>
<pdfrwt beam="1">  1        2 0.35920344E+00 0.31631064E+04</pdfrwt>
<pdfrwt beam="2">  1       -2 0.16481640E+00 0.31631064E+04</pdfrwt>
<totfact> 0.84954489E-01</totfact>
</mgrwt>
</event>
<event>
 6    1  0.1588846E-005  0.1289731E+04  0.7818608E-02  0.9037748E-01
         -2   -1    0    0    0  501 -0.00000000000E+00  0.00000000000E+00  0.53345670836E+03  0.53345670836E+03  0.00000000000E+00 0.  1.
          2   -1    0    0  501    0  0.00000000000E+00 -0.00000000000E+00 -0.77954143629E+03  0.77954143629E+03  0.00000000000E+00 0. -1.
         23    2    1    2    0    0  0.61119285902E+03 -0.14535641855E+03 -0.25585674025E+03  0.68468238680E+03  0.92962895491E+02 0.  0.
         11    1    3    3    0    0  0.19753327209E+03 -0.67561860138E+02 -0.12755372090E+03  0.24465066982E+03  0.00000000000E+00 0.  1.
        -11    1    3    3    0    0  0.41365958693E+03 -0.77794558416E+02 -0.12830301935E+03  0.44003171698E+03  0.00000000000E+00 0. -1.
         22    1    1    2    0    0 -0.61119285902E+03  0.14535641855E+03  0.97720123200E+01  0.62831575784E+03  0.00000000000E+00 0.  1.
<mgrwt>
<rscale>  0 0.12897311E+04</rscale>
<asrwt>0</asrwt>
<pdfrwt beam="1">  1        2 0.11992945E+00 0.12897311E+04</pdfrwt>
<pdfrwt beam="2">  1       -2 0.82070263E-01 0.12897311E+04</pdfrwt>
<totfact> 0.45646586E+01</totfact>
</mgrwt>
</event>
<event>
 6    1  0.1588846E-005  0.2510097E+04  0.7818608E-02  0.8399397E-01
          1   -1    0    0  501    0  0.00000000000E+00  0.00000000000E+00  0.85351558462E+03  0.85351558462E+03  0.00000000000E+00 0. -1.
         -1   -1    0    0    0  501 -0.00000000000E+00 -0.00000000000E+00 -0.18454810816E+04  0.18454810816E+04  0.00000000000E+00 0.  1.
         23    2    1    2    0    0  0.34278080173E+03  0.82708272063E+03  0.44633946508E+03  0.10048049212E+04  0.94071817637E+02 0.  0.
         11    1    3    3    0    0  0.26420425595E+03  0.65171185398E+03  0.39197118367E+03  0.80509231664E+03  0.00000000000E+00 0.  1.
        -11    1    3    3    0    0  0.78576545772E+02  0.17537086665E+03  0.54368281408E+02  0.19971260461E+03  0.00000000000E+00 0. -1.
         22    1    1    2    0    0 -0.34278080173E+03 -0.82708272063E+03 -0.14383049620E+04  0.16941917449E+04  0.00000000000E+00 0.  1.
<mgrwt>
<rscale>  0 0.25100971E+04</rscale>
<asrwt>0</asrwt>
<pdfrwt beam="1">  1        1 0.13131009E+00 0.25100971E+04</pdfrwt>
<pdfrwt beam="2">  1       -1 0.28392016E+00 0.25100971E+04</pdfrwt>
<totfact> 0.74123617E-01</totfact>
</mgrwt>
</event>
<event>
 6    1  0.1588846E-005  0.4636286E+03  0.7818608E-02  0.1023734E+00
          2   -1    0    0  501    0  0.00000000000E+00  0.00000000000E+00  0.79617388186E+03  0.79617388186E+03  0.00000000000E+00 0. -1.
         -2   -1    0    0    0  501 -0.00000000000E+00 -0.00000000000E+00 -0.67495143580E+02  0.67495143580E+02  0.00000000000E+00 0.  1.
         23    2    1    2    0    0 -0.15051310082E+03 -0.93362477057E+02  0.62892577869E+03  0.66039237014E+03  0.95915075993E+02 0.  0.
         13    1    3    3    0    0 -0.32191879993E+02 -0.74956829542E+02  0.24470947625E+03  0.25794877630E+03  0.00000000000E+00 0. -1.
        -13    1    3    3    0    0 -0.11832122083E+03 -0.18405647515E+02  0.38421630244E+03  0.40244359384E+03  0.00000000000E+00 0.  1.
         22    1    1    2    0    0  0.15051310082E+03  0.93362477057E+02  0.99752959587E+02  0.20327665529E+03  0.00000000000E+00 0.  1.
<mgrwt>
<rscale>  0 0.46362860E+03</rscale>
<asrwt>0</asrwt>
<pdfrwt beam="1">  1        2 0.12248828E+00 0.46362860E+03</pdfrwt>
<pdfrwt beam="2">  1       -2 0.10383869E-01 0.46362860E+03</pdfrwt>
<totfact> 0.22378852E+03</totfact>
</mgrwt>
</event>
<event>
 6    1  0.1784460E-005  0.2659455E+04  0.7818608E-02  0.8348282E-01
          3   -1    0    0  501    0  0.00000000000E+00  0.00000000000E+00  0.10422744666E+04  0.10422744666E+04  0.00000000000E+00 0. -1.
         -3   -1    0    0    0  501 -0.00000000000E+00 -0.00000000000E+00 -0.16964583766E+04  0.16964583766E+04  0.00000000000E+00 0.  1.
         23    2    1    2    0    0 -0.70488655110E+03  0.10288051347E+04  0.14302567336E+03  0.12585814404E+04  0.90916685663E+02 0.  0.
         13    1    3    3    0    0 -0.30524517809E+03  0.51541754668E+03  0.46015277067E+02  0.60078887464E+03  0.00000000000E+00 0. -1.
        -13    1    3    3    0    0 -0.39964137301E+03  0.51338758804E+03  0.97010396292E+02  0.65779256575E+03  0.00000000000E+00 0.  1.
         22    1    1    2    0    0  0.70488655110E+03 -0.10288051347E+04 -0.79720958336E+03  0.14801514027E+04  0.00000000000E+00 0.  1.
<mgrwt>
<rscale>  0 0.26594550E+04</rscale>
<asrwt>0</asrwt>
<pdfrwt beam="1">  1        3 0.16034992E+00 0.26594550E+04</pdfrwt>
<pdfrwt beam="2">  1       -3 0.26099359E+00 0.26594550E+04</pdfrwt>
<totfact> 0.39291587E-02</totfact>
</mgrwt>
</event>
<event>
 6    1  0.1588846E-005  0.7476909E+03  0.7818608E-02  0.9638980E-01
          1   -1    0    0  501    0  0.00000000000E+00  0.00000000000E+00  0.89156931006E+03  0.89156931006E+03  0.00000000000E+00 0.  1.
         -1   -1    0    0    0  501 -0.00000000000E+00 -0.00000000000E+00 -0.15675778932E+03  0.15675778932E+03  0.00000000000E+00 0. -1.
         23    2    1    2    0    0 -0.35767399696E+03  0.34721957876E+02  0.26202895145E+03  0.45447555203E+03  0.93555082911E+02 0.  0.
         11    1    3    3    0    0 -0.23292660399E+03 -0.22642722401E+02  0.16621737720E+03  0.28704653318E+03  0.00000000000E+00 0. -1.
        -11    1    3    3    0    0 -0.12474739297E+03  0.57364680277E+02  0.95811574242E+02  0.16742901886E+03  0.00000000000E+00 0.  1.
         22    1    1    2    0    0  0.35767399696E+03 -0.34721957876E+02  0.47278256929E+03  0.59385154735E+03  0.00000000000E+00 0.  1.
<mgrwt>
<rscale>  0 0.74769094E+03</rscale>
<asrwt>0</asrwt>
<pdfrwt beam="1">  1        1 0.13716451E+00 0.74769094E+03</pdfrwt>
<pdfrwt beam="2">  1       -1 0.24116583E-01 0.74769094E+03</pdfrwt>
<totfact> 0.27842835E+02</totfact>
</mgrwt>
</event>
<event>
 6    1  0.1588846E-005  0.2290666E+04  0.7818608E-02  0.8481610E-01
          2   -1    0    0  501    0  0.00000000000E+00  0.00000000000E+00  0.11966605232E+04  0.11966605232E+04  0.00000000000E+00 0. -1.
         -2   -1    0    0    0  501 -0.00000000000E+00 -0.00000000000E+00 -0.10962071618E+04  0.10962071618E+04  0.00000000000E+00 0.  1.
         23    2    1    2    0    0  0.18048861322E+03 -0.58932351943E+03 -0.91381327979E+03  0.11060167384E+04  0.91323410513E+02 0.  0.
         13    1    3    3    0    0  0.15738635262E+03 -0.36642858296E+03 -0.59788685241E+03  0.71868564664E+03  0.00000000000E+00 0.  1.
        -13    1    3    3    0    0  0.23102260598E+02 -0.22289493647E+03 -0.31592642738E+03  0.38733109179E+03  0.00000000000E+00 0. -1.
         22    1    1    2    0    0 -0.18048861322E+03  0.58932351943E+03  0.10142666411E+04  0.11868509466E+04  0.00000000000E+00 0. -1.
<mgrwt>
<rscale>  0 0.22906661E+04</rscale>
<asrwt>0</asrwt>
<pdfrwt beam="1">  1        2 0.18410162E+00 0.22906661E+04</pdfrwt>
<pdfrwt beam="2">  1       -2 0.16864726E+00 0.22906661E+04</pdfrwt>
<totfact> 0.37624512E+00</totfact>
</mgrwt>
</event>
<event>
 6    1  0.1588846E-005  0.2140077E+04  0.7818608E-02  0.8543792E-01
          2   -1    0    0  501    0  0.00000000000E+00  0.00000000000E+00  0.25808945001E+04  0.25808945001E+04  0.00000000000E+00 0. -1.
         -2   -1    0    0    0  501 -0.00000000000E+00 -0.00000000000E+00 -0.44363784050E+03  0.44363784050E+03  0.00000000000E+00 0.  1.
         23    2    1    2    0    0 -0.74307698950E+03  0.17933820713E+03  0.21248989470E+04  0.22600205239E+04  0.90397061423E+02 0.  0.
         11    1    3    3    0    0 -0.23359381607E+03  0.14713510861E+02  0.61950800522E+03  0.66224823657E+03  0.00000000000E+00 0. -1.
        -11    1    3    3    0    0 -0.50948317343E+03  0.16462469627E+03  0.15053909417E+04  0.15977722873E+04  0.00000000000E+00 0.  1.
         22    1    1    2    0    0  0.74307698950E+03 -0.17933820713E+03  0.12357712642E+02  0.76451181673E+03  0.00000000000E+00 0.  1.
<mgrwt>
<rscale>  0 0.21400771E+04</rscale>
<asrwt>0</asrwt>
<pdfrwt beam="1">  1        2 0.39706068E+00 0.21400771E+04</pdfrwt>
<pdfrwt beam="2">  1       -2 0.68251977E-01 0.21400771E+04</pdfrwt>
<totfact> 0.56365635E+00</totfact>
</mgrwt>
</event>
<event>
 6    1  0.1588846E-005  0.5272126E+04  0.7818608E-02  0.7787847E-01
          1   -1    0    0  501    0  0.00000000000E+00  0.00000000000E+00  0.32696749863E+04  0.32696749863E+04  0.00000000000E+00 0. -1.
         -1   -1    0    0    0  501 -0.00000000000E+00 -0.00000000000E+00 -0.21252350748E+04  0.21252350748E+04  0.00000000000E+00 0.  1.
         23    2    1    2    0    0  0.22364421600E+04 -0.13469522539E+02  0.19986615174E+04  0.30008445826E+04  0.92549364130E+02 0.  0.
         11    1    3    3    0    0  0.15687053171E+04 -0.48447762668E+02  0.13792849573E+04  0.20894043531E+04  0.00000000000E+00 0.  1.
        -11    1    3    3    0    0  0.66773684291E+03  0.34978240129E+02  0.61937656013E+03  0.91144022947E+03  0.00000000000E+00 0. -1.
         22    1    1    2    0    0 -0.22364421600E+04  0.13469522539E+02 -0.85422160591E+03  0.23940654784E+04  0.00000000000E+00 0.  1.
<mgrwt>
<rscale>  0 0.52721259E+04</rscale>
<asrwt>0</asrwt>
<pdfrwt beam="1">  1        1 0.50302692E+00 0.52721259E+04</pdfrwt>
<pdfrwt beam="2">  1       -1 0.32695924E+00 0.52721259E+04</pdfrwt>
<totfact> 0.58627427E-03</totfact>
</mgrwt>
</event>
<event>
 6    1  0.1588846E-005  0.2514898E+04  0.7818608E-02  0.8397697E-01
          1   -1    0    0  501    0  0.00000000000E+00  0.00000000000E+00  0.92052503424E+03  0.92052503424E+03  0.00000000000E+00 0. -1.
         -1   -1    0    0    0  501 -0.00000000000E+00 -0.00000000000E+00 -0.17176908317E+04  0.17176908317E+04  0.00000000000E+00 0.  1.
         23    2    1    2    0    0 -0.28028409087E+02  0.97796296274E+03  0.42671598823E+03  0.10713451714E+04  0.92178052513E+02 0.  0.
         11    1    3    3    0    0 -0.19481219407E+02  0.37999632295E+03  0.21442625056E+03  0.43675546968E+03  0.00000000000E+00 0.  1.
        -11    1    3    3    0    0 -0.85471896801E+01  0.59796663979E+03  0.21228973767E+03  0.63458970167E+03  0.00000000000E+00 0. -1.
         22    1    1    2    0    0  0.28028409087E+02 -0.97796296274E+03 -0.12238817857E+04  0.15668706946E+04  0.00000000000E+00 0.  1.
<mgrwt>
<rscale>  0 0.25148975E+04</rscale>
<asrwt>0</asrwt>
<pdfrwt beam="1">  1        1 0.14161924E+00 0.25148975E+04</pdfrwt>
<pdfrwt beam="2">  1       -1 0.26426013E+00 0.25148975E+04</pdfrwt>
<totfact> 0.87447179E-01</totfact>
</mgrwt>
</event>
<event>
 6    1  0.1588846E-005  0.1065493E+04  0.7818608E-02  0.9239493E-01
          2   -1    0    0  501    0  0.00000000000E+00  0.00000000000E+00  0.51125158361E+03  0.51125158361E+03  0.00000000000E+00 0. -1.
         -2   -1    0    0    0  501 -0.00000000000E+00 -0.00000000000E+00 -0.55514525001E+03  0.55514525001E+03  0.00000000000E+00 0.  1.
         23    2    1    2    0    0 -0.95014002111E+02 -0.51385569937E+03  0.59558318582E+02  0.53368898351E+03  0.90561567088E+02 0.  0.
         13    1    3    3    0    0 -0.43865475788E+01 -0.11213945889E+03  0.47044173026E+02  0.12168670534E+03  0.00000000000E+00 0.  1.
        -13    1    3    3    0    0 -0.90627454532E+02 -0.40171624048E+03  0.12514145556E+02  0.41200227817E+03  0.00000000000E+00 0. -1.
         22    1    1    2    0    0  0.95014002111E+02  0.51385569937E+03 -0.10345198498E+03  0.53270785011E+03  0.00000000000E+00 0. -1.
<mgrwt>
<rscale>  0 0.10654931E+04</rscale>
<asrwt>0</asrwt>
<pdfrwt beam="1">  1        2 0.78654090E-01 0.10654931E+04</pdfrwt>
<pdfrwt beam="2">  1       -2 0.85406961E-01 0.10654931E+04</pdfrwt>
<totfact> 0.71185959E+01</totfact>
</mgrwt>
</event>
<event>
 6    1  0.1588846E-005  0.3246480E+04  0.7818608E-02  0.8176649E-01
          2   -1    0    0  501    0  0.00000000000E+00  0.00000000000E+00  0.22028351088E+04  0.22028351088E+04  0.00000000000E+00 0. -1.
         -2   -1    0    0    0  501 -0.00000000000E+00 -0.00000000000E+00 -0.11961439213E+04  0.11961439213E+04  0.00000000000E+00 0.  1.
         23    2    1    2    0    0  0.11563241300E+04 -0.11236141695E+04  0.31887396661E+03  0.16460709250E+04  0.90964761923E+02 0.  0.
         13    1    3    3    0    0  0.61494568133E+03 -0.61799339050E+03  0.21608130659E+03  0.89820106476E+03  0.00000000000E+00 0. -1.
        -13    1    3    3    0    0  0.54137844867E+03 -0.50562077901E+03  0.10279266002E+03  0.74786986020E+03  0.00000000000E+00 0.  1.
         22    1    1    2    0    0 -0.11563241300E+04  0.11236141695E+04  0.68781722099E+03  0.17529081051E+04  0.00000000000E+00 0.  1.
<mgrwt>
<rscale>  0 0.32464798E+04</rscale>
<asrwt>0</asrwt>
<pdfrwt beam="1">  1        2 0.33889771E+00 0.32464798E+04</pdfrwt>
<pdfrwt beam="2">  1       -2 0.18402214E+00 0.32464798E+04</pdfrwt>
<totfact> 0.73431367E-01</totfact>
</mgrwt>
</event>
<event>
 6    1  0.1588846E-005  0.3143808E+04  0.7818608E-02  0.8203817E-01
          1   -1    0    0  501    0  0.00000000000E+00  0.00000000000E+00  0.26410329262E+04  0.26410329262E+04  0.00000000000E+00 0. -1.
         -1   -1    0    0    0  501 -0.00000000000E+00 -0.00000000000E+00 -0.93557433506E+03  0.93557433506E+03  0.00000000000E+00 0.  1.
         23    2    1    2    0    0  0.45339600336E+03  0.13937524337E+04  0.14955458288E+04  0.20960069944E+04  0.92055485131E+02 0.  0.
         11    1    3    3    0    0  0.37185714275E+03  0.10161072722E+04  0.10878282619E+04  0.15343148472E+04  0.00000000000E+00 0. -1.
        -11    1    3    3    0    0  0.81538860604E+02  0.37764516159E+03  0.40771756690E+03  0.56169214719E+03  0.00000000000E+00 0.  1.
         22    1    1    2    0    0 -0.45339600336E+03 -0.13937524337E+04  0.20991276242E+03  0.14806002669E+04  0.00000000000E+00 0.  1.
<mgrwt>
<rscale>  0 0.31438083E+04</rscale>
<asrwt>0</asrwt>
<pdfrwt beam="1">  1        1 0.40631275E+00 0.31438083E+04</pdfrwt>
<pdfrwt beam="2">  1       -1 0.14393451E+00 0.31438083E+04</pdfrwt>
<totfact> 0.35355171E-01</totfact>
</mgrwt>
</event>
<event>
 6    1  0.1588846E-005  0.3527199E+04  0.7818608E-02  0.8107374E-01
         -2   -1    0    0    0  501 -0.00000000000E+00  0.00000000000E+00  0.17209359410E+04  0.17209359410E+04  0.00000000000E+00 0.  1.
          2   -1    0    0  501    0  0.00000000000E+00 -0.00000000000E+00 -0.18073206471E+04  0.18073206471E+04  0.00000000000E+00 0. -1.
         23    2    1    2    0    0 -0.13904120643E+03  0.76607610692E+03  0.15383389092E+04  0.17266095958E+04  0.92135976194E+02 0.  0.
         13    1    3    3    0    0  0.94251232866E+00  0.22695233325E+03  0.43499999840E+03  0.49064574645E+03  0.00000000000E+00 0. -1.
        -13    1    3    3    0    0 -0.13998371876E+03  0.53912377367E+03  0.11033389108E+04  0.12359638493E+04  0.00000000000E+00 0.  1.
         22    1    1    2    0    0  0.13904120643E+03 -0.76607610692E+03 -0.16247236153E+04  0.18016469923E+04  0.00000000000E+00 0. -1.
<mgrwt>
<rscale>  0 0.35271989E+04</rscale>
<asrwt>0</asrwt>
<pdfrwt beam="1">  1        2 0.27804933E+00 0.35271989E+04</pdfrwt>
<pdfrwt beam="2">  1       -2 0.26475938E+00 0.35271989E+04</pdfrwt>
<totfact> 0.36570601E-01</totfact>
</mgrwt>
</event>
<event>
 6    1  0.1588846E-005  0.6941089E+04  0.7818608E-02  0.7583542E-01
         -2   -1    0    0    0  501 -0.00000000000E+00  0.00000000000E+00  0.50551686077E+04  0.50551686077E+04  0.00000000000E+00 0.  1.
          2   -1    0    0  501    0  0.00000000000E+00 -0.00000000000E+00 -0.23826464023E+04  0.23826464023E+04  0.00000000000E+00 0. -1.
         23    2    1    2    0    0  0.11122941455E+04 -0.29455289328E+04 -0.22652395822E+03  0.31578842140E+04  0.87066904271E+02 0.  0.
         11    1    3    3    0    0  0.71422334662E+03 -0.17754195908E+04 -0.12623064505E+03  0.19178539799E+04  0.00000000000E+00 0. -1.
        -11    1    3    3    0    0  0.39807079887E+03 -0.11701093419E+04 -0.10029331317E+03  0.12400302342E+04  0.00000000000E+00 0.  1.
         22    1    1    2    0    0 -0.11122941455E+04  0.29455289328E+04  0.28990461636E+04  0.42799307960E+04  0.00000000000E+00 0.  1.
<mgrwt>
<rscale>  0 0.69410890E+04</rscale>
<asrwt>0</asrwt>
<pdfrwt beam="1">  1        2 0.36656099E+00 0.69410890E+04</pdfrwt>
<pdfrwt beam="2">  1       -2 0.77771824E+00 0.69410890E+04</pdfrwt>
<totfact> 0.27071011E-04</totfact>
</mgrwt>
</event>
<event>
 6    1  0.1588846E-005  0.1837072E+04  0.7818608E-02  0.8686830E-01
         -2   -1    0    0    0  501 -0.00000000000E+00  0.00000000000E+00  0.22392750966E+03  0.22392750966E+03  0.00000000000E+00 0.  1.
          2   -1    0    0  501    0  0.00000000000E+00 -0.00000000000E+00 -0.37677762090E+04  0.37677762090E+04  0.00000000000E+00 0. -1.
         23    2    1    2    0    0 -0.47547665167E+03 -0.77934696196E+03 -0.16068587607E+04  0.18503513993E+04  0.91353656219E+02 0.  0.
         11    1    3    3    0    0 -0.28222168734E+03 -0.37494843743E+03 -0.81906652325E+03  0.94398378219E+03  0.00000000000E+00 0.  1.
        -11    1    3    3    0    0 -0.19325496433E+03 -0.40439852453E+03 -0.78779223745E+03  0.90636761706E+03  0.00000000000E+00 0. -1.
         22    1    1    2    0    0  0.47547665167E+03  0.77934696196E+03 -0.19369899386E+04  0.21413523194E+04  0.00000000000E+00 0.  1.
<mgrwt>
<rscale>  0 0.18370724E+04</rscale>
<asrwt>0</asrwt>
<pdfrwt beam="1">  1        2 0.57965783E+00 0.18370724E+04</pdfrwt>
<pdfrwt beam="2">  1       -2 0.34450389E-01 0.18370724E+04</pdfrwt>
<totfact> 0.39027806E+00</totfact>
</mgrwt>
</event>
<event>
 6    1  0.1588846E-005  0.1367874E+04  0.7818608E-02  0.8977407E-01
         -2   -1    0    0    0  501 -0.00000000000E+00  0.00000000000E+00  0.13205558591E+04  0.13205558591E+04  0.00000000000E+00 0.  1.
          2   -1    0    0  501    0  0.00000000000E+00 -0.00000000000E+00 -0.35422169984E+03  0.35422169984E+03  0.00000000000E+00 0. -1.
         23    2    1    2    0    0  0.61557347061E+03 -0.24619648207E+03  0.67498603960E+03  0.95060414580E+03  0.92188301088E+02 0.  0.
         13    1    3    3    0    0  0.13139522507E+03 -0.59169123279E+02  0.20371499187E+03  0.24953053567E+03  0.00000000000E+00 0. -1.
        -13    1    3    3    0    0  0.48417824554E+03 -0.18702735879E+03  0.47127104773E+03  0.70107361013E+03  0.00000000000E+00 0.  1.
         22    1    1    2    0    0 -0.61557347061E+03  0.24619648207E+03  0.29134811970E+03  0.72417341318E+03  0.00000000000E+00 0. -1.
<mgrwt>
<rscale>  0 0.13678736E+04</rscale>
<asrwt>0</asrwt>
<pdfrwt beam="1">  1        2 0.54495647E-01 0.13678736E+04</pdfrwt>
<pdfrwt beam="2">  1       -2 0.20316244E+00 0.13678736E+04</pdfrwt>
<totfact> 0.11269179E+01</totfact>
</mgrwt>
</event>
<event>
 6    1  0.1588846E-005  0.1877207E+04  0.7818608E-02  0.8666286E-01
         -1   -1    0    0    0  501 -0.00000000000E+00  0.00000000000E+00  0.64065270738E+03  0.64065270738E+03  0.00000000000E+00 0.  1.
          1   -1    0    0  501    0  0.00000000000E+00 -0.00000000000E+00 -0.13751229468E+04  0.13751229468E+04  0.00000000000E+00 0. -1.
         23    2    1    2    0    0 -0.23551161493E+03 -0.32927317556E+03  0.53848686578E+03  0.67999635481E+03  0.92414246893E+02 0.  0.
         11    1    3    3    0    0 -0.27417270282E+02 -0.98799765592E+02  0.16529621259E+03  0.19451462230E+03  0.00000000000E+00 0. -1.
        -11    1    3    3    0    0 -0.20809434465E+03 -0.23047340997E+03  0.37319065319E+03  0.48548173252E+03  0.00000000000E+00 0.  1.
         22    1    1    2    0    0  0.23551161493E+03  0.32927317556E+03 -0.12729571052E+04  0.13357792993E+04  0.00000000000E+00 0. -1.
<mgrwt>
<rscale>  0 0.18772067E+04</rscale>
<asrwt>0</asrwt>
<pdfrwt beam="1">  1        1 0.21155737E+00 0.18772067E+04</pdfrwt>
<pdfrwt beam="2">  1       -1 0.98561956E-01 0.18772067E+04</pdfrwt>
<totfact> 0.73877113E+00</totfact>
</mgrwt>
</event>
<event>
 6    1  0.1588846E-005  0.1561737E+04  0.7818608E-02  0.8844405E-01
         -2   -1    0    0    0  501 -0.00000000000E+00  0.00000000000E+00  0.94273078497E+03  0.94273078497E+03  0.00000000000E+00 0.  1.
          2   -1    0    0  501    0  0.00000000000E+00 -0.00000000000E+00 -0.64679724979E+03  0.64679724979E+03  0.00000000000E+00 0. -1.
         23    2    1    2    0    0 -0.39843809182E+03  0.65126416561E+03 -0.52937440045E+01  0.76877484400E+03  0.89937815358E+02 0.  0.
         11    1    3    3    0    0 -0.20615544373E+03  0.25270249634E+03 -0.86690947109E+01  0.32624189161E+03  0.00000000000E+00 0. -1.
        -11    1    3    3    0    0 -0.19228264808E+03  0.39856166926E+03  0.33753507064E+01  0.44253295239E+03  0.00000000000E+00 0.  1.
         22    1    1    2    0    0  0.39843809182E+03 -0.65126416561E+03  0.30122727918E+03  0.82075319076E+03  0.00000000000E+00 0.  1.
<mgrwt>
<rscale>  0 0.15617371E+04</rscale>
<asrwt>0</asrwt>
<pdfrwt beam="1">  1        2 0.99507269E-01 0.15617371E+04</pdfrwt>
<pdfrwt beam="2">  1       -2 0.14503551E+00 0.15617371E+04</pdfrwt>
<totfact> 0.14238661E+01</totfact>
</mgrwt>
</event>
<event>
 6    1  0.1588846E-005  0.9454274E+03  0.7818608E-02  0.9370511E-01
          1   -1    0    0  501    0  0.00000000000E+00  0.00000000000E+00  0.53298341933E+03  0.53298341933E+03  0.00000000000E+00 0. -1.
         -1   -1    0    0    0  501 -0.00000000000E+00 -0.00000000000E+00 -0.41925926252E+03  0.41925926252E+03  0.00000000000E+00 0.  1.
         23    2    1    2    0    0  0.27319649142E+03 -0.24563966134E+03 -0.23521871247E+03  0.44555116607E+03  0.90624680622E+02 0.  0.
         13    1    3    3    0    0  0.13653572089E+03 -0.17226145167E+03 -0.16722447738E+03  0.27618840788E+03  0.00000000000E+00 0.  1.
        -13    1    3    3    0    0  0.13666077052E+03 -0.73378209674E+02 -0.67994235093E+02  0.16936275819E+03  0.00000000000E+00 0. -1.
         22    1    1    2    0    0 -0.27319649142E+03  0.24563966134E+03  0.34894286928E+03  0.50669151579E+03  0.00000000000E+00 0. -1.
<mgrwt>
<rscale>  0 0.94542739E+03</rscale>
<asrwt>0</asrwt>
<pdfrwt beam="1">  1        1 0.81997449E-01 0.94542739E+03</pdfrwt>
<pdfrwt beam="2">  1       -1 0.64501425E-01 0.94542739E+03</pdfrwt>
<totfact> 0.99414219E+01</totfact>
</mgrwt>
</event>
<event>
 6    1  0.1588846E-005  0.8114178E+03  0.7818608E-02  0.9543636E-01
         -1   -1    0    0    0  501 -0.00000000000E+00  0.00000000000E+00  0.74966972590E+02  0.74966972590E+02  0.00000000000E+00 0.  1.
          1   -1    0    0  501    0  0.00000000000E+00 -0.00000000000E+00 -0.21956296596E+04  0.21956296596E+04  0.00000000000E+00 0. -1.
         23    2    1    2    0    0 -0.10018567453E+03  0.38773994739E+03 -0.10344170668E+04  0.11128794890E+04  0.90014736540E+02 0.  0.
         11    1    3    3    0    0 -0.67120113151E+02  0.10909220733E+03 -0.27785456213E+03  0.30595649525E+03  0.00000000000E+00 0.  1.
        -11    1    3    3    0    0 -0.33065561381E+02  0.27864774006E+03 -0.75656250463E+03  0.80692299372E+03  0.00000000000E+00 0. -1.
         22    1    1    2    0    0  0.10018567453E+03 -0.38773994739E+03 -0.10862456202E+04  0.11577171432E+04  0.00000000000E+00 0. -1.
<mgrwt>
<rscale>  0 0.81141779E+03</rscale>
<asrwt>0</asrwt>
<pdfrwt beam="1">  1        1 0.33778916E+00 0.81141779E+03</pdfrwt>
<pdfrwt beam="2">  1       -1 0.11533381E-01 0.81141779E+03</pdfrwt>
<totfact> 0.11342560E+02</totfact>
</mgrwt>
</event>
<event>
 6    1  0.1588846E-005  0.1437361E+04  0.7818608E-02  0.8927210E-01
          2   -1    0    0  501    0  0.00000000000E+00  0.00000000000E+00  0.13517184877E+04  0.13517184877E+04  0.00000000000E+00 0. -1.
         -2   -1    0    0    0  501 -0.00000000000E+00 -0.00000000000E+00 -0.38210741704E+03  0.38210741704E+03  0.00000000000E+00 0.  1.
         23    2    1    2    0    0 -0.60345853898E+03  0.35597526168E+03  0.66003896458E+03  0.96785235162E+03  0.10102546497E+03 0.  0.
         13    1    3    3    0    0 -0.39664030724E+03  0.24351995467E+03  0.37185105076E+03  0.59573375396E+03  0.00000000000E+00 0. -1.
        -13    1    3    3    0    0 -0.20681823174E+03  0.11245530701E+03  0.28818791382E+03  0.37211859766E+03  0.00000000000E+00 0.  1.
         22    1    1    2    0    0  0.60345853898E+03 -0.35597526168E+03  0.30957210606E+03  0.76597355310E+03  0.00000000000E+00 0.  1.
<mgrwt>
<rscale>  0 0.14373610E+04</rscale>
<asrwt>0</asrwt>
<pdfrwt beam="1">  1        2 0.20795669E+00 0.14373610E+04</pdfrwt>
<pdfrwt beam="2">  1       -2 0.58785757E-01 0.14373610E+04</pdfrwt>
<totfact> 0.40490146E+01</totfact>
</mgrwt>
</event>
<event>
 6    1  0.1588846E-005  0.1954060E+04  0.7818608E-02  0.8628405E-01
          2   -1    0    0  501    0  0.00000000000E+00  0.00000000000E+00  0.16292637799E+04  0.16292637799E+04  0.00000000000E+00 0. -1.
         -2   -1    0    0    0  501 -0.00000000000E+00 -0.00000000000E+00 -0.58590132032E+03  0.58590132032E+03  0.00000000000E+00 0.  1.
         23    2    1    2    0    0 -0.32233773407E+03  0.49413161957E+03 -0.35738013286E+03  0.69524816744E+03  0.87073432778E+02 0.  0.
         13    1    3    3    0    0 -0.18795160579E+03  0.20857744305E+03 -0.16804321583E+03  0.32721381122E+03  0.00000000000E+00 0. -1.
        -13    1    3    3    0    0 -0.13438612828E+03  0.28555417653E+03 -0.18933691703E+03  0.36803435622E+03  0.00000000000E+00 0.  1.
         22    1    1    2    0    0  0.32233773407E+03 -0.49413161957E+03  0.14007425925E+04  0.15199169328E+04  0.00000000000E+00 0. -1.
<mgrwt>
<rscale>  0 0.19540602E+04</rscale>
<asrwt>0</asrwt>
<pdfrwt beam="1">  1        2 0.25065596E+00 0.19540602E+04</pdfrwt>
<pdfrwt beam="2">  1       -2 0.90138665E-01 0.19540602E+04</pdfrwt>
<totfact> 0.10546096E+01</totfact>
</mgrwt>
</event>
<event>
 6    1  0.1588846E-005  0.1230836E+04  0.7818608E-02  0.9086286E-01
          2   -1    0    0  501    0  0.00000000000E+00  0.00000000000E+00  0.15377039709E+04  0.15377039709E+04  0.00000000000E+00 0. -1.
         -2   -1    0    0    0  501 -0.00000000000E+00 -0.00000000000E+00 -0.24630195351E+03  0.24630195351E+03  0.00000000000E+00 0.  1.
         23    2    1    2    0    0 -0.51653439008E+03 -0.30824828587E+03  0.80877449204E+03  0.10128028966E+04  0.99140034754E+02 0.  0.
         13    1    3    3    0    0 -0.44505277787E+03 -0.29328724739E+03  0.67161454377E+03  0.85741208294E+03  0.00000000000E+00 0. -1.
        -13    1    3    3    0    0 -0.71481612215E+02 -0.14961038474E+02  0.13715994827E+03  0.15539081365E+03  0.00000000000E+00 0.  1.
         22    1    1    2    0    0  0.51653439008E+03  0.30824828587E+03  0.48262752534E+03  0.77120302780E+03  0.00000000000E+00 0.  1.
<mgrwt>
<rscale>  0 0.12308363E+04</rscale>
<asrwt>0</asrwt>
<pdfrwt beam="1">  1        2 0.23656984E+00 0.12308363E+04</pdfrwt>
<pdfrwt beam="2">  1       -2 0.37892609E-01 0.12308363E+04</pdfrwt>
<totfact> 0.78200184E+01</totfact>
</mgrwt>
</event>
<event>
 6    1  0.1588846E-005  0.1109969E+04  0.7818608E-02  0.9195529E-01
          2   -1    0    0  501    0  0.00000000000E+00  0.00000000000E+00  0.65965223242E+03  0.65965223242E+03  0.00000000000E+00 0. -1.
         -2   -1    0    0    0  501 -0.00000000000E+00 -0.00000000000E+00 -0.46692483370E+03  0.46692483370E+03  0.00000000000E+00 0.  1.
         23    2    1    2    0    0  0.36829541570E+03 -0.40410824645E+03  0.14599611428E+03  0.57782502647E+03  0.11671292883E+03 0.  0.
         13    1    3    3    0    0  0.18019905211E+03 -0.21519200432E+03  0.13385333718E+03  0.31095982534E+03  0.00000000000E+00 0.  1.
        -13    1    3    3    0    0  0.18809636359E+03 -0.18891624213E+03  0.12142777107E+02  0.26686520113E+03  0.00000000000E+00 0. -1.
         22    1    1    2    0    0 -0.36829541570E+03  0.40410824645E+03  0.46731284439E+02  0.54875203965E+03  0.00000000000E+00 0.  1.
<mgrwt>
<rscale>  0 0.11099694E+04</rscale>
<asrwt>0</asrwt>
<pdfrwt beam="1">  1        2 0.10148496E+00 0.11099694E+04</pdfrwt>
<pdfrwt beam="2">  1       -2 0.71834589E-01 0.11099694E+04</pdfrwt>
<totfact> 0.76988132E+01</totfact>
</mgrwt>
</event>
<event>
 6    1  0.1588846E-005  0.1764501E+04  0.7818608E-02  0.8725409E-01
          1   -1    0    0  501    0  0.00000000000E+00  0.00000000000E+00  0.16860635868E+04  0.16860635868E+04  0.00000000000E+00 0. -1.
         -1   -1    0    0    0  501 -0.00000000000E+00 -0.00000000000E+00 -0.46164675084E+03  0.46164675084E+03  0.00000000000E+00 0.  1.
         23    2    1    2    0    0 -0.72042976561E+03 -0.22021975329E+02 -0.68502579621E+00  0.72631011734E+03  0.89565075328E+02 0.  0.
         13    1    3    3    0    0 -0.40783443408E+03 -0.24565283475E+02 -0.43097908676E+02  0.41084036864E+03  0.00000000000E+00 0.  1.
        -13    1    3    3    0    0 -0.31259533153E+03  0.25433081455E+01  0.42412882879E+02  0.31546974870E+03  0.00000000000E+00 0. -1.
         22    1    1    2    0    0  0.72042976561E+03  0.22021975329E+02  0.12251018617E+04  0.14214002203E+04  0.00000000000E+00 0. -1.
<mgrwt>
<rscale>  0 0.17645008E+04</rscale>
<asrwt>0</asrwt>
<pdfrwt beam="1">  1        1 0.25939439E+00 0.17645008E+04</pdfrwt>
<pdfrwt beam="2">  1       -1 0.71022578E-01 0.17645008E+04</pdfrwt>
<totfact> 0.92324243E+00</totfact>
</mgrwt>
</event>
<event>
 6    1  0.1588846E-005  0.3865695E+04  0.7818608E-02  0.8032202E-01
          2   -1    0    0  501    0  0.00000000000E+00  0.00000000000E+00  0.27910598515E+04  0.27910598515E+04  0.00000000000E+00 0. -1.
         -2   -1    0    0    0  501 -0.00000000000E+00 -0.00000000000E+00 -0.13385234333E+04  0.13385234333E+04  0.00000000000E+00 0.  1.
         23    2    1    2    0    0 -0.19295142792E+03 -0.15075454735E+04 -0.54706318291E+03  0.16179459357E+04  0.92451698134E+02 0.  0.
         11    1    3    3    0    0 -0.86221442639E+01 -0.32124780635E+03 -0.94861999197E+02  0.33507207187E+03  0.00000000000E+00 0. -1.
        -11    1    3    3    0    0 -0.18432928365E+03 -0.11862976672E+04 -0.45220118371E+03  0.12828738638E+04  0.00000000000E+00 0.  1.
         22    1    1    2    0    0  0.19295142792E+03  0.15075454735E+04  0.19995996011E+04  0.25116373490E+04  0.00000000000E+00 0. -1.
<mgrwt>
<rscale>  0 0.38656948E+04</rscale>
<asrwt>0</asrwt>
<pdfrwt beam="1">  1        2 0.42939382E+00 0.38656948E+04</pdfrwt>
<pdfrwt beam="2">  1       -2 0.20592668E+00 0.38656948E+04</pdfrwt>
<totfact> 0.22711108E-01</totfact>
</mgrwt>
</event>
<event>
 6    1  0.1588846E-005  0.1403165E+04  0.7818608E-02  0.8951531E-01
          2   -1    0    0  501    0  0.00000000000E+00  0.00000000000E+00  0.10676121631E+04  0.10676121631E+04  0.00000000000E+00 0. -1.
         -2   -1    0    0    0  501 -0.00000000000E+00 -0.00000000000E+00 -0.46104569481E+03  0.46104569481E+03  0.00000000000E+00 0.  1.
         23    2    1    2    0    0  0.23984007076E+03  0.27208250851E+03  0.95488688626E+03  0.10257868361E+04  0.94220573939E+02 0.  0.
         11    1    3    3    0    0  0.12822200503E+03  0.15668835410E+03  0.65570531380E+03  0.68625183529E+03  0.00000000000E+00 0. -1.
        -11    1    3    3    0    0  0.11161806573E+03  0.11539415441E+03  0.29918157246E+03  0.33953500080E+03  0.00000000000E+00 0.  1.
         22    1    1    2    0    0 -0.23984007076E+03 -0.27208250851E+03 -0.34832041799E+03  0.50287102181E+03  0.00000000000E+00 0.  1.
<mgrwt>
<rscale>  0 0.14031650E+04</rscale>
<asrwt>0</asrwt>
<pdfrwt beam="1">  1        2 0.16424802E+00 0.14031650E+04</pdfrwt>
<pdfrwt beam="2">  1       -2 0.70930107E-01 0.14031650E+04</pdfrwt>
<totfact> 0.40110360E+01</totfact>
</mgrwt>
</event>
<event>
 6    1  0.1588846E-005  0.2164050E+04  0.7818608E-02  0.8533542E-01
          2   -1    0    0  501    0  0.00000000000E+00  0.00000000000E+00  0.11111811556E+04  0.11111811556E+04  0.00000000000E+00 0. -1.
         -2   -1    0    0    0  501 -0.00000000000E+00 -0.00000000000E+00 -0.10536340892E+04  0.10536340892E+04  0.00000000000E+00 0.  1.
         23    2    1    2    0    0  0.91472584478E+03  0.33891132977E+03  0.49172384507E+03  0.10970635248E+04  0.10085522857E+03 0.  0.
         13    1    3    3    0    0  0.50900210660E+03  0.18330582216E+03  0.21660873125E+03  0.58275510415E+03  0.00000000000E+00 0.  1.
        -13    1    3    3    0    0  0.40572373819E+03  0.15560550762E+03  0.27511511382E+03  0.51430842068E+03  0.00000000000E+00 0. -1.
         22    1    1    2    0    0 -0.91472584478E+03 -0.33891132977E+03 -0.43417677866E+03  0.10677517201E+04  0.00000000000E+00 0.  1.
<mgrwt>
<rscale>  0 0.21640502E+04</rscale>
<asrwt>0</asrwt>
<pdfrwt beam="1">  1        2 0.17095095E+00 0.21640502E+04</pdfrwt>
<pdfrwt beam="2">  1       -2 0.16209755E+00 0.21640502E+04</pdfrwt>
<totfact> 0.47783474E+00</totfact>
</mgrwt>
</event>
<event>
 6    1  0.1588846E-005  0.2449577E+04  0.7818608E-02  0.8421172E-01
          2   -1    0    0  501    0  0.00000000000E+00  0.00000000000E+00  0.26092128909E+04  0.26092128909E+04  0.00000000000E+00 0. -1.
         -2   -1    0    0    0  501 -0.00000000000E+00 -0.00000000000E+00 -0.57492698766E+03  0.57492698766E+03  0.00000000000E+00 0.  1.
         23    2    1    2    0    0  0.61987414432E+03  0.10458941352E+03 -0.34529659215E+03  0.72292153137E+03  0.90569883243E+02 0.  0.
         11    1    3    3    0    0  0.29003669004E+03  0.46983230484E+02 -0.21300386608E+03  0.36290405409E+03  0.00000000000E+00 0.  1.
        -11    1    3    3    0    0  0.32983745429E+03  0.57606183037E+02 -0.13229272607E+03  0.36001747728E+03  0.00000000000E+00 0. -1.
         22    1    1    2    0    0 -0.61987414432E+03 -0.10458941352E+03  0.23795824954E+04  0.24612183472E+04  0.00000000000E+00 0. -1.
<mgrwt>
<rscale>  0 0.24495770E+04</rscale>
<asrwt>0</asrwt>
<pdfrwt beam="1">  1        2 0.40141736E+00 0.24495770E+04</pdfrwt>
<pdfrwt beam="2">  1       -2 0.88450308E-01 0.24495770E+04</pdfrwt>
<totfact> 0.29604744E+00</totfact>
</mgrwt>
</event>
<event>
 6    1  0.1588846E-005  0.1186219E+04  0.7818608E-02  0.9125005E-01
          2   -1    0    0  501    0  0.00000000000E+00  0.00000000000E+00  0.30274919083E+04  0.30274919083E+04  0.00000000000E+00 0. -1.
         -2   -1    0    0    0  501 -0.00000000000E+00 -0.00000000000E+00 -0.11619491096E+03  0.11619491096E+03  0.00000000000E+00 0.  1.
         23    2    1    2    0    0 -0.25724521246E+03  0.52902348466E+03  0.13583785305E+04  0.14830855091E+04  0.91156176388E+02 0.  0.
         13    1    3    3    0    0 -0.12571114878E+03  0.34758591304E+03  0.79288550686E+03  0.87480665684E+03  0.00000000000E+00 0.  1.
        -13    1    3    3    0    0 -0.13153406367E+03  0.18143757163E+03  0.56549302368E+03  0.60827885229E+03  0.00000000000E+00 0. -1.
         22    1    1    2    0    0  0.25724521246E+03 -0.52902348466E+03  0.15529184668E+04  0.16606013101E+04  0.00000000000E+00 0.  1.
<mgrwt>
<rscale>  0 0.11862195E+04</rscale>
<asrwt>0</asrwt>
<pdfrwt beam="1">  1        2 0.46576793E+00 0.11862195E+04</pdfrwt>
<pdfrwt beam="2">  1       -2 0.17876142E-01 0.11862195E+04</pdfrwt>
<totfact> 0.43643462E+01</totfact>
</mgrwt>
</event>
<event>
 6    1  0.1588846E-005  0.1011768E+04  0.7818608E-02  0.9295731E-01
         -2   -1    0    0    0  501 -0.00000000000E+00  0.00000000000E+00  0.15043226680E+03  0.15043226680E+03  0.00000000000E+00 0.  1.
          2   -1    0    0  501    0  0.00000000000E+00 -0.00000000000E+00 -0.17012222197E+04  0.17012222197E+04  0.00000000000E+00 0. -1.
         23    2    1    2    0    0 -0.41534716085E+03  0.24202829515E+03 -0.51881165887E+03  0.71320371503E+03  0.91668108275E+02 0.  0.
         13    1    3    3    0    0 -0.37271130715E+03  0.23786191851E+03 -0.49673953116E+03  0.66501291159E+03  0.00000000000E+00 0.  1.
        -13    1    3    3    0    0 -0.42635853702E+02  0.41663766352E+01 -0.22072127707E+02  0.48190803445E+02  0.00000000000E+00 0. -1.
         22    1    1    2    0    0  0.41534716085E+03 -0.24202829515E+03 -0.10319782940E+04  0.11384507714E+04  0.00000000000E+00 0. -1.
<mgrwt>
<rscale>  0 0.10117682E+04</rscale>
<asrwt>0</asrwt>
<pdfrwt beam="1">  1        2 0.26172652E+00 0.10117682E+04</pdfrwt>
<pdfrwt beam="2">  1       -2 0.23143423E-01 0.10117682E+04</pdfrwt>
<totfact> 0.16117016E+02</totfact>
</mgrwt>
</event>
<event>
 6    1  0.1588846E-005  0.1240852E+04  0.7818608E-02  0.9077831E-01
          2   -1    0    0  501    0  0.00000000000E+00  0.00000000000E+00  0.60801839796E+03  0.60801839796E+03  0.00000000000E+00 0. -1.
         -2   -1    0    0    0  501 -0.00000000000E+00 -0.00000000000E+00 -0.63308729175E+03  0.63308729175E+03  0.00000000000E+00 0.  1.
         23    2    1    2    0    0 -0.52164467063E+03 -0.32145952207E+03  0.60331313165E+02  0.62244376097E+03  0.91361816386E+02 0.  0.
         11    1    3    3    0    0 -0.38463323017E+03 -0.27533319120E+03  0.66879979699E+02  0.47772797659E+03  0.00000000000E+00 0. -1.
        -11    1    3    3    0    0 -0.13701144046E+03 -0.46126330873E+02 -0.65486665339E+01  0.14471578438E+03  0.00000000000E+00 0.  1.
         22    1    1    2    0    0  0.52164467063E+03  0.32145952207E+03 -0.85400206956E+02  0.61866192874E+03  0.00000000000E+00 0. -1.
<mgrwt>
<rscale>  0 0.12408525E+04</rscale>
<asrwt>0</asrwt>
<pdfrwt beam="1">  1        2 0.93541292E-01 0.12408525E+04</pdfrwt>
<pdfrwt beam="2">  1       -2 0.97398045E-01 0.12408525E+04</pdfrwt>
<totfact> 0.42231409E+01</totfact>
</mgrwt>
</event>
<event>
 6    1  0.1588846E-005  0.3014119E+04  0.7818608E-02  0.8239711E-01
         -2   -1    0    0    0  501 -0.00000000000E+00  0.00000000000E+00  0.17812588443E+04  0.17812588443E+04  0.00000000000E+00 0.  1.
          2   -1    0    0  501    0  0.00000000000E+00 -0.00000000000E+00 -0.12750690790E+04  0.12750690790E+04  0.00000000000E+00 0. -1.
         23    2    1    2    0    0  0.70762796233E+03 -0.35077579362E+03 -0.10465755601E+04  0.13142426365E+04  0.90179344107E+02 0.  0.
         11    1    3    3    0    0  0.17631170377E+03 -0.10840153115E+03 -0.21858956293E+03  0.30102841372E+03  0.00000000000E+00 0.  1.
        -11    1    3    3    0    0  0.53131625856E+03 -0.24237426247E+03 -0.82798599721E+03  0.10132142228E+04  0.00000000000E+00 0. -1.
         22    1    1    2    0    0 -0.70762796233E+03  0.35077579362E+03  0.15527653255E+04  0.17420852868E+04  0.00000000000E+00 0.  1.
<mgrwt>
<rscale>  0 0.30141188E+04</rscale>
<asrwt>0</asrwt>
<pdfrwt beam="1">  1        2 0.19616447E+00 0.30141188E+04</pdfrwt>
<pdfrwt beam="2">  1       -2 0.27403982E+00 0.30141188E+04</pdfrwt>
<totfact> 0.66934984E-01</totfact>
</mgrwt>
</event>
<event>
 6    1  0.1588846E-005  0.2649843E+04  0.7818608E-02  0.8351465E-01
          2   -1    0    0  501    0  0.00000000000E+00  0.00000000000E+00  0.16923635526E+04  0.16923635526E+04  0.00000000000E+00 0. -1.
         -2   -1    0    0    0  501 -0.00000000000E+00 -0.00000000000E+00 -0.10372578428E+04  0.10372578428E+04  0.00000000000E+00 0.  1.
         23    2    1    2    0    0 -0.93848460766E+03 -0.44346126981E+03 -0.51772124895E+03  0.11634367537E+04  0.90213810174E+02 0.  0.
         11    1    3    3    0    0 -0.62083867291E+03 -0.25011031092E+03 -0.31217473641E+03  0.73854511810E+03  0.00000000000E+00 0.  1.
        -11    1    3    3    0    0 -0.31764593475E+03 -0.19335095889E+03 -0.20554651254E+03  0.42489163558E+03  0.00000000000E+00 0. -1.
         22    1    1    2    0    0  0.93848460766E+03  0.44346126981E+03  0.11728269587E+04  0.15661846417E+04  0.00000000000E+00 0. -1.
<mgrwt>
<rscale>  0 0.26498433E+04</rscale>
<asrwt>0</asrwt>
<pdfrwt beam="1">  1        2 0.26036362E+00 0.26498433E+04</pdfrwt>
<pdfrwt beam="2">  1       -2 0.15957813E+00 0.26498433E+04</pdfrwt>
<totfact> 0.22137767E+00</totfact>
</mgrwt>
</event>
<event>
 6    1  0.1588846E-005  0.1227438E+04  0.7818608E-02  0.9089173E-01
         -1   -1    0    0    0  501 -0.00000000000E+00  0.00000000000E+00  0.39298581721E+03  0.39298581721E+03  0.00000000000E+00 0.  1.
          1   -1    0    0  501    0  0.00000000000E+00 -0.00000000000E+00 -0.95843432793E+03  0.95843432793E+03  0.00000000000E+00 0. -1.
         23    2    1    2    0    0  0.45659314254E+03  0.13936932885E+03 -0.70283973636E+03  0.85465314087E+03  0.92451006223E+02 0.  0.
         13    1    3    3    0    0  0.39867388007E+03  0.14971295526E+03 -0.63829200653E+03  0.76731448391E+03  0.00000000000E+00 0. -1.
        -13    1    3    3    0    0  0.57919262479E+02 -0.10343626412E+02 -0.64547729834E+02  0.87338656964E+02  0.00000000000E+00 0.  1.
         22    1    1    2    0    0 -0.45659314254E+03 -0.13936932885E+03  0.13739122565E+03  0.49676700427E+03  0.00000000000E+00 0.  1.
<mgrwt>
<rscale>  0 0.12274381E+04</rscale>
<asrwt>0</asrwt>
<pdfrwt beam="1">  1        1 0.14745143E+00 0.12274381E+04</pdfrwt>
<pdfrwt beam="2">  1       -1 0.60459357E-01 0.12274381E+04</pdfrwt>
<totfact> 0.44721993E+01</totfact>
</mgrwt>
</event>
<event>
 6    1  0.1588846E-005  0.2355339E+04  0.7818608E-02  0.8456416E-01
         -1   -1    0    0    0  501 -0.00000000000E+00  0.00000000000E+00  0.61333880884E+03  0.61333880884E+03  0.00000000000E+00 0.  1.
          1   -1    0    0  501    0  0.00000000000E+00 -0.00000000000E+00 -0.22612387007E+04  0.22612387007E+04  0.00000000000E+00 0. -1.
         23    2    1    2    0    0 -0.83177151840E+03  0.51557612091E+03 -0.16208642335E+04  0.18956017580E+04  0.91883438738E+02 0.  0.
         13    1    3    3    0    0 -0.16542135943E+03  0.61269279405E+02 -0.29540079818E+03  0.34406363121E+03  0.00000000000E+00 0. -1.
        -13    1    3    3    0    0 -0.66635015897E+03  0.45430684150E+03 -0.13254634353E+04  0.15515381268E+04  0.00000000000E+00 0.  1.
         22    1    1    2    0    0  0.83177151840E+03 -0.51557612091E+03 -0.27035658391E+02  0.97897575154E+03  0.00000000000E+00 0.  1.
<mgrwt>
<rscale>  0 0.23553390E+04</rscale>
<asrwt>0</asrwt>
<pdfrwt beam="1">  1        1 0.34788288E+00 0.23553390E+04</pdfrwt>
<pdfrwt beam="2">  1       -1 0.94359816E-01 0.23553390E+04</pdfrwt>
<totfact> 0.19344459E+00</totfact>
</mgrwt>
</event>
<event>
 6    1  0.1588846E-005  0.9234865E+03  0.7818608E-02  0.9396689E-01
          1   -1    0    0  501    0  0.00000000000E+00  0.00000000000E+00  0.45135090416E+03  0.45135090416E+03  0.00000000000E+00 0. -1.
         -1   -1    0    0    0  501 -0.00000000000E+00 -0.00000000000E+00 -0.47237491216E+03  0.47237491216E+03  0.00000000000E+00 0.  1.
         23    2    1    2    0    0 -0.31548037804E+03 -0.12521029823E+03  0.29576339764E+03  0.45944169202E+03  0.91679841109E+02 0.  0.
         11    1    3    3    0    0 -0.79950690673E+02 -0.65842123911E+02  0.12597384508E+03  0.16308497130E+03  0.00000000000E+00 0. -1.
        -11    1    3    3    0    0 -0.23552968737E+03 -0.59368174320E+02  0.16978955257E+03  0.29635672072E+03  0.00000000000E+00 0.  1.
         22    1    1    2    0    0  0.31548037804E+03  0.12521029823E+03 -0.31678740564E+03  0.46428412431E+03  0.00000000000E+00 0.  1.
<mgrwt>
<rscale>  0 0.92348653E+03</rscale>
<asrwt>0</asrwt>
<pdfrwt beam="1">  1        1 0.69438601E-01 0.92348653E+03</pdfrwt>
<pdfrwt beam="2">  1       -1 0.72673063E-01 0.92348653E+03</pdfrwt>
<totfact> 0.98082369E+01</totfact>
</mgrwt>
</event>
<event>
 6    1  0.1588846E-005  0.2409674E+04  0.7818608E-02  0.8435891E-01
         -2   -1    0    0    0  501 -0.00000000000E+00  0.00000000000E+00  0.66209322374E+03  0.66209322374E+03  0.00000000000E+00 0.  1.
          2   -1    0    0  501    0  0.00000000000E+00 -0.00000000000E+00 -0.21924891413E+04  0.21924891413E+04  0.00000000000E+00 0. -1.
         23    2    1    2    0    0 -0.89234422254E+03 -0.77052767940E+03 -0.10509092422E+04  0.15818299979E+04  0.88231461066E+02 0.  0.
         13    1    3    3    0    0 -0.59199546346E+03 -0.52665718085E+03 -0.65201744664E+03  0.10261350621E+04  0.00000000000E+00 0.  1.
        -13    1    3    3    0    0 -0.30034875908E+03 -0.24387049855E+03 -0.39889179559E+03  0.55569493585E+03  0.00000000000E+00 0. -1.
         22    1    1    2    0    0  0.89234422254E+03  0.77052767940E+03 -0.47948667537E+03  0.12727523671E+04  0.00000000000E+00 0. -1.
<mgrwt>
<rscale>  0 0.24096740E+04</rscale>
<asrwt>0</asrwt>
<pdfrwt beam="1">  1        2 0.33730603E+00 0.24096740E+04</pdfrwt>
<pdfrwt beam="2">  1       -2 0.10186049E+00 0.24096740E+04</pdfrwt>
<totfact> 0.37032713E+00</totfact>
</mgrwt>
</event>
<event>
 6    1  0.1588846E-005  0.1204839E+04  0.7818608E-02  0.9108632E-01
         -2   -1    0    0    0  501 -0.00000000000E+00  0.00000000000E+00  0.25687024279E+03  0.25687024279E+03  0.00000000000E+00 0.  1.
          2   -1    0    0  501    0  0.00000000000E+00 -0.00000000000E+00 -0.14128111635E+04  0.14128111635E+04  0.00000000000E+00 0. -1.
         23    2    1    2    0    0  0.10428419260E+03  0.94386152473E+02 -0.13881139854E+04  0.13982255709E+04  0.91598973908E+02 0.  0.
         11    1    3    3    0    0  0.49301599509E+02  0.35356223220E+02 -0.99883960891E+03  0.10006804058E+04  0.00000000000E+00 0. -1.
        -11    1    3    3    0    0  0.54982593090E+02  0.59029929254E+02 -0.38927437652E+03  0.39754516511E+03  0.00000000000E+00 0.  1.
         22    1    1    2    0    0 -0.10428419260E+03 -0.94386152473E+02  0.23217306469E+03  0.27145583540E+03  0.00000000000E+00 0.  1.
<mgrwt>
<rscale>  0 0.12048388E+04</rscale>
<asrwt>0</asrwt>
<pdfrwt beam="1">  1        2 0.21735557E+00 0.12048388E+04</pdfrwt>
<pdfrwt beam="2">  1       -2 0.39518498E-01 0.12048388E+04</pdfrwt>
<totfact> 0.84949994E+01</totfact>
</mgrwt>
</event>
<event>
 6    1  0.1588846E-005  0.4545943E+04  0.7818608E-02  0.7902643E-01
          2   -1    0    0  501    0  0.00000000000E+00  0.00000000000E+00  0.29362639573E+04  0.29362639573E+04  0.00000000000E+00 0. -1.
         -2   -1    0    0    0  501 -0.00000000000E+00 -0.00000000000E+00 -0.17595145451E+04  0.17595145451E+04  0.00000000000E+00 0.  1.
         23    2    1    2    0    0  0.39923543131E+03 -0.17318692989E+04 -0.87347844760E+03  0.19824420922E+04  0.91388470250E+02 0.  0.
         11    1    3    3    0    0  0.13433537417E+03 -0.43729034801E+03 -0.19922755592E+03  0.49895937736E+03  0.00000000000E+00 0.  1.
        -11    1    3    3    0    0  0.26490005715E+03 -0.12945789509E+04 -0.67425089168E+03  0.14834827148E+04  0.00000000000E+00 0. -1.
         22    1    1    2    0    0 -0.39923543131E+03  0.17318692989E+04  0.20502278597E+04  0.27133364102E+04  0.00000000000E+00 0. -1.
<mgrwt>
<rscale>  0 0.45459429E+04</rscale>
<asrwt>0</asrwt>
<pdfrwt beam="1">  1        2 0.45173292E+00 0.45459429E+04</pdfrwt>
<pdfrwt beam="2">  1       -2 0.27069454E+00 0.45459429E+04</pdfrwt>
<totfact> 0.69103181E-02</totfact>
</mgrwt>
</event>
<event>
 6    1  0.1588846E-005  0.2093402E+04  0.7818608E-02  0.8564155E-01
          1   -1    0    0  501    0  0.00000000000E+00  0.00000000000E+00  0.23364610182E+04  0.23364610182E+04  0.00000000000E+00 0. -1.
         -1   -1    0    0    0  501 -0.00000000000E+00 -0.00000000000E+00 -0.46890712790E+03  0.46890712790E+03  0.00000000000E+00 0.  1.
         23    2    1    2    0    0 -0.49956444498E+03 -0.16724302106E+03 -0.27321789108E+03  0.60072788458E+03  0.93226136454E+02 0.  0.
         13    1    3    3    0    0 -0.35996387253E+03 -0.11617508513E+03 -0.24139471317E+03  0.44871154150E+03  0.00000000000E+00 0.  1.
        -13    1    3    3    0    0 -0.13960057245E+03 -0.51067935931E+02 -0.31823177909E+02  0.15201634307E+03  0.00000000000E+00 0. -1.
         22    1    1    2    0    0  0.49956444498E+03  0.16724302106E+03  0.21407717813E+04  0.22046402615E+04  0.00000000000E+00 0. -1.
<mgrwt>
<rscale>  0 0.20934022E+04</rscale>
<asrwt>0</asrwt>
<pdfrwt beam="1">  1        1 0.35945554E+00 0.20934022E+04</pdfrwt>
<pdfrwt beam="2">  1       -1 0.72139559E-01 0.20934022E+04</pdfrwt>
<totfact> 0.31348526E+00</totfact>
</mgrwt>
</event>
<event>
 6    1  0.1588846E-005  0.3637132E+04  0.7818608E-02  0.8082039E-01
          2   -1    0    0  501    0  0.00000000000E+00  0.00000000000E+00  0.38208213410E+04  0.38208213410E+04  0.00000000000E+00 0. -1.
         -2   -1    0    0    0  501 -0.00000000000E+00 -0.00000000000E+00 -0.86556843053E+03  0.86556843053E+03  0.00000000000E+00 0.  1.
         23    2    1    2    0    0 -0.15092520840E+04  0.98896398504E+03  0.17575656105E+04  0.25206689942E+04  0.94040877190E+02 0.  0.
         11    1    3    3    0    0 -0.85091688033E+03  0.61250681659E+03  0.10107114112E+04  0.14562835212E+04  0.00000000000E+00 0. -1.
        -11    1    3    3    0    0 -0.65833520364E+03  0.37645716845E+03  0.74685419933E+03  0.10643854730E+04  0.00000000000E+00 0.  1.
         22    1    1    2    0    0  0.15092520840E+04 -0.98896398504E+03  0.11976872999E+04  0.21657207773E+04  0.00000000000E+00 0.  1.
<mgrwt>
<rscale>  0 0.36371320E+04</rscale>
<asrwt>0</asrwt>
<pdfrwt beam="1">  1        2 0.58781866E+00 0.36371320E+04</pdfrwt>
<pdfrwt beam="2">  1       -2 0.13316438E+00 0.36371320E+04</pdfrwt>
<totfact> 0.15678704E-01</totfact>
</mgrwt>
</event>
<event>
 6    1  0.1588846E-005  0.1066510E+04  0.7818608E-02  0.9238462E-01
         -2   -1    0    0    0  501 -0.00000000000E+00  0.00000000000E+00  0.44097507247E+03  0.44097507247E+03  0.00000000000E+00 0.  1.
          2   -1    0    0  501    0  0.00000000000E+00 -0.00000000000E+00 -0.64484598472E+03  0.64484598472E+03  0.00000000000E+00 0. -1.
         23    2    1    2    0    0 -0.14482988578E+03  0.50137381867E+03 -0.12590265772E+02  0.52999762518E+03  0.91583655936E+02 0.  0.
         11    1    3    3    0    0 -0.14611752017E+03  0.37324828256E+03  0.36054466530E+01  0.40084611683E+03  0.00000000000E+00 0.  1.
        -11    1    3    3    0    0  0.12876343869E+01  0.12812553611E+03 -0.16195712425E+02  0.12915150834E+03  0.00000000000E+00 0. -1.
         22    1    1    2    0    0  0.14482988578E+03 -0.50137381867E+03 -0.19128064648E+03  0.55582343202E+03  0.00000000000E+00 0.  1.
<mgrwt>
<rscale>  0 0.10665102E+04</rscale>
<asrwt>0</asrwt>
<pdfrwt beam="1">  1        2 0.99207074E-01 0.10665102E+04</pdfrwt>
<pdfrwt beam="2">  1       -2 0.67842319E-01 0.10665102E+04</pdfrwt>
<totfact> 0.89957270E+01</totfact>
</mgrwt>
</event>
<event>
 6    1  0.1588846E-005  0.3784887E+03  0.7818608E-02  0.1051494E+00
          1   -1    0    0  501    0  0.00000000000E+00  0.00000000000E+00  0.16874190508E+03  0.16874190508E+03  0.00000000000E+00 0. -1.
         -1   -1    0    0    0  501 -0.00000000000E+00 -0.00000000000E+00 -0.21223789879E+03  0.21223789879E+03  0.00000000000E+00 0.  1.
         23    2    1    2    0    0 -0.15703354458E+03  0.34904441774E+02 -0.99909497672E+02  0.21050887495E+03  0.91946857094E+02 0.  0.
         11    1    3    3    0    0 -0.14592877695E+02  0.18131853961E+02  0.14168581855E+02  0.27248209469E+02  0.00000000000E+00 0.  1.
        -11    1    3    3    0    0 -0.14244066688E+03  0.16772587813E+02 -0.11407807953E+03  0.18326066548E+03  0.00000000000E+00 0. -1.
         22    1    1    2    0    0  0.15703354458E+03 -0.34904441774E+02  0.56413503970E+02  0.17047092892E+03  0.00000000000E+00 0. -1.
<mgrwt>
<rscale>  0 0.37848872E+03</rscale>
<asrwt>0</asrwt>
<pdfrwt beam="1">  1        1 0.25960293E-01 0.37848872E+03</pdfrwt>
<pdfrwt beam="2">  1       -1 0.32651984E-01 0.37848872E+03</pdfrwt>
<totfact> 0.16165509E+03</totfact>
</mgrwt>
</event>
<event>
 6    1  0.1588846E-005  0.1971211E+04  0.7818608E-02  0.8620200E-01
          2   -1    0    0  501    0  0.00000000000E+00  0.00000000000E+00  0.30580075741E+04  0.30580075741E+04  0.00000000000E+00 0. -1.
         -2   -1    0    0    0  501 -0.00000000000E+00 -0.00000000000E+00 -0.31766364768E+03  0.31766364768E+03  0.00000000000E+00 0.  1.
         23    2    1    2    0    0  0.92436819936E+03 -0.25342350192E+03  0.17504226830E+04  0.19977655256E+04  0.91692349343E+02 0.  0.
         13    1    3    3    0    0  0.58928076976E+03 -0.19204183477E+03  0.10607355013E+04  0.12285323339E+04  0.00000000000E+00 0. -1.
        -13    1    3    3    0    0  0.33508742960E+03 -0.61381667148E+02  0.68968718176E+03  0.76923319171E+03  0.00000000000E+00 0.  1.
         22    1    1    2    0    0 -0.92436819936E+03  0.25342350192E+03  0.98992124343E+03  0.13779056962E+04  0.00000000000E+00 0. -1.
<mgrwt>
<rscale>  0 0.19712106E+04</rscale>
<asrwt>0</asrwt>
<pdfrwt beam="1">  1        2 0.47046268E+00 0.19712106E+04</pdfrwt>
<pdfrwt beam="2">  1       -2 0.48871333E-01 0.19712106E+04</pdfrwt>
<totfact> 0.59258630E+00</totfact>
</mgrwt>
</event>
<event>
 6    1  0.1588846E-005  0.8851198E+03  0.7818608E-02  0.9444376E-01
          2   -1    0    0  501    0  0.00000000000E+00  0.00000000000E+00  0.18629270004E+04  0.18629270004E+04  0.00000000000E+00 0. -1.
         -2   -1    0    0    0  501 -0.00000000000E+00 -0.00000000000E+00 -0.10513524374E+03  0.10513524374E+03  0.00000000000E+00 0.  1.
         23    2    1    2    0    0  0.29200098368E+03 -0.65135937435E+02  0.17875507275E+03  0.36093309128E+03  0.93872549403E+02 0.  0.
         11    1    3    3    0    0  0.25127926507E+03 -0.28888511317E+02  0.11738720513E+03  0.27884685953E+03  0.00000000000E+00 0.  1.
        -11    1    3    3    0    0  0.40721718606E+02 -0.36247426119E+02  0.61367867620E+02  0.82086231749E+02  0.00000000000E+00 0. -1.
         22    1    1    2    0    0 -0.29200098368E+03  0.65135937435E+02  0.15790366839E+04  0.16071291528E+04  0.00000000000E+00 0. -1.
<mgrwt>
<rscale>  0 0.88511984E+03</rscale>
<asrwt>0</asrwt>
<pdfrwt beam="1">  1        2 0.28660413E+00 0.88511984E+03</pdfrwt>
<pdfrwt beam="2">  1       -2 0.16174654E-01 0.88511984E+03</pdfrwt>
<totfact> 0.24791524E+02</totfact>
</mgrwt>
</event>
<event>
 6    1  0.1833776E-005  0.3629871E+04  0.7818608E-02  0.8083683E-01
         -2   -1    0    0    0  501 -0.00000000000E+00  0.00000000000E+00  0.10337899767E+04  0.10337899767E+04  0.00000000000E+00 0.  1.
          2   -1    0    0  501    0  0.00000000000E+00 -0.00000000000E+00 -0.31863256559E+04  0.31863256559E+04  0.00000000000E+00 0. -1.
         23    2    1    2    0    0  0.38676369756E+03  0.77173827854E+03 -0.29316165944E+04  0.30573030076E+04  0.86946510112E+02 0.  0.
         11    1    3    3    0    0  0.19703822804E+03  0.39643216551E+03 -0.13500075895E+04  0.14207403059E+04  0.00000000000E+00 0. -1.
        -11    1    3    3    0    0  0.18972546952E+03  0.37530611303E+03 -0.15816090049E+04  0.16365627017E+04  0.00000000000E+00 0.  1.
         22    1    1    2    0    0 -0.38676369756E+03 -0.77173827854E+03  0.77908091518E+03  0.11628126249E+04  0.00000000000E+00 0.  1.
<mgrwt>
<rscale>  0 0.36298714E+04</rscale>
<asrwt>0</asrwt>
<pdfrwt beam="1">  1        2 0.49020395E+00 0.36298714E+04</pdfrwt>
<pdfrwt beam="2">  1       -2 0.15904461E+00 0.36298714E+04</pdfrwt>
<totfact> 0.27526243E-01</totfact>
</mgrwt>
</event>
<event>
 6    1  0.1588846E-005  0.2963407E+04  0.7818608E-02  0.8254258E-01
         -2   -1    0    0    0  501 -0.00000000000E+00  0.00000000000E+00  0.98954041514E+03  0.98954041514E+03  0.00000000000E+00 0.  1.
          2   -1    0    0  501    0  0.00000000000E+00 -0.00000000000E+00 -0.22186515538E+04  0.22186515538E+04  0.00000000000E+00 0. -1.
         23    2    1    2    0    0 -0.15843548669E+03 -0.14488644117E+04 -0.89520498777E+03  0.17129317225E+04  0.91832613946E+02 0.  0.
         11    1    3    3    0    0 -0.22561882654E+02 -0.41473837141E+03 -0.21477581621E+03  0.46759555868E+03  0.00000000000E+00 0.  1.
        -11    1    3    3    0    0 -0.13587360403E+03 -0.10341260403E+04 -0.68042917156E+03  0.12453361638E+04  0.00000000000E+00 0. -1.
         22    1    1    2    0    0  0.15843548669E+03  0.14488644117E+04 -0.33390615085E+03  0.14952602464E+04  0.00000000000E+00 0.  1.
<mgrwt>
<rscale>  0 0.29634071E+04</rscale>
<asrwt>0</asrwt>
<pdfrwt beam="1">  1        2 0.34133100E+00 0.29634071E+04</pdfrwt>
<pdfrwt beam="2">  1       -2 0.15223699E+00 0.29634071E+04</pdfrwt>
<totfact> 0.12465280E+00</totfact>
</mgrwt>
</event>
<event>
 6    1  0.1588846E-005  0.6052451E+03  0.7818608E-02  0.9894584E-01
         -1   -1    0    0    0  501 -0.00000000000E+00  0.00000000000E+00  0.98586772082E+02  0.98586772082E+02  0.00000000000E+00 0.  1.
          1   -1    0    0  501    0  0.00000000000E+00 -0.00000000000E+00 -0.92893190705E+03  0.92893190705E+03  0.00000000000E+00 0. -1.
         23    2    1    2    0    0 -0.14990743559E+03 -0.25292704910E+03 -0.48073070657E+03  0.57070955055E+03  0.90349584607E+02 0.  0.
         13    1    3    3    0    0 -0.11674345330E+03 -0.12766503438E+03 -0.32452134684E+03  0.36775195369E+03  0.00000000000E+00 0. -1.
        -13    1    3    3    0    0 -0.33163982283E+02 -0.12526201473E+03 -0.15620935973E+03  0.20295759685E+03  0.00000000000E+00 0.  1.
         22    1    1    2    0    0  0.14990743559E+03  0.25292704910E+03 -0.34961442841E+03  0.45680912859E+03  0.00000000000E+00 0.  1.
<mgrwt>
<rscale>  0 0.60524507E+03</rscale>
<asrwt>0</asrwt>
<pdfrwt beam="1">  1        1 0.14291260E+00 0.60524507E+03</pdfrwt>
<pdfrwt beam="2">  1       -1 0.15167195E-01 0.60524507E+03</pdfrwt>
<totfact> 0.56412421E+02</totfact>
</mgrwt>
</event>
<event>
 6    1  0.1588846E-005  0.2632471E+04  0.7818608E-02  0.8357254E-01
         -2   -1    0    0    0  501 -0.00000000000E+00  0.00000000000E+00  0.10898900999E+04  0.10898900999E+04  0.00000000000E+00 0. -1.
          2   -1    0    0  501    0  0.00000000000E+00 -0.00000000000E+00 -0.15895878203E+04  0.15895878203E+04  0.00000000000E+00 0.  1.
         23    2    1    2    0    0 -0.36152405155E+03  0.81229326738E+03  0.73552988029E+03  0.11575359970E+04  0.91462492256E+02 0.  0.
         11    1    3    3    0    0 -0.27296560830E+03  0.61666466783E+03  0.60665932139E+03  0.90709485066E+03  0.00000000000E+00 0. -1.
        -11    1    3    3    0    0 -0.88558443249E+02  0.19562859955E+03  0.12887055890E+03  0.25044114635E+03  0.00000000000E+00 0.  1.
         22    1    1    2    0    0  0.36152405155E+03 -0.81229326738E+03 -0.12352276007E+04  0.15219419232E+04  0.00000000000E+00 0.  1.
<mgrwt>
<rscale>  0 0.26324711E+04</rscale>
<asrwt>0</asrwt>
<pdfrwt beam="1">  1        2 0.24455197E+00 0.26324711E+04</pdfrwt>
<pdfrwt beam="2">  1       -2 0.16767540E+00 0.26324711E+04</pdfrwt>
<totfact> 0.22084686E+00</totfact>
</mgrwt>
</event>
<event>
 6    1  0.1588846E-005  0.1082469E+04  0.7818608E-02  0.9222449E-01
          2   -1    0    0  501    0  0.00000000000E+00  0.00000000000E+00  0.17107194902E+04  0.17107194902E+04  0.00000000000E+00 0. -1.
         -2   -1    0    0    0  501 -0.00000000000E+00 -0.00000000000E+00 -0.17123494801E+03  0.17123494801E+03  0.00000000000E+00 0.  1.
         23    2    1    2    0    0  0.16386759450E+03  0.50515092460E+03  0.60639305580E+03  0.80832053080E+03  0.60328245743E+02 0.  0.
         13    1    3    3    0    0  0.91385733152E+02  0.18700245030E+03  0.24113729463E+03  0.31854114884E+03  0.00000000000E+00 0.  1.
        -13    1    3    3    0    0  0.72481861351E+02  0.31814847430E+03  0.36525576117E+03  0.48977938196E+03  0.00000000000E+00 0. -1.
         22    1    1    2    0    0 -0.16386759450E+03 -0.50515092460E+03  0.93309148636E+03  0.10736339074E+04  0.00000000000E+00 0. -1.
<mgrwt>
<rscale>  0 0.10824693E+04</rscale>
<asrwt>0</asrwt>
<pdfrwt beam="1">  1        2 0.26318760E+00 0.10824693E+04</pdfrwt>
<pdfrwt beam="2">  1       -2 0.26343839E-01 0.10824693E+04</pdfrwt>
<totfact> 0.12537661E+02</totfact>
</mgrwt>
</event>
<event>
 6    1  0.1588846E-005  0.2276293E+04  0.7818608E-02  0.8487328E-01
          1   -1    0    0  501    0  0.00000000000E+00  0.00000000000E+00  0.13011937912E+04  0.13011937912E+04  0.00000000000E+00 0. -1.
         -1   -1    0    0    0  501 -0.00000000000E+00 -0.00000000000E+00 -0.99552992454E+03  0.99552992454E+03  0.00000000000E+00 0.  1.
         23    2    1    2    0    0  0.10110318586E+04 -0.25419124197E+03  0.60884404740E+03  0.12110364548E+04  0.95496670857E+02 0.  0.
         11    1    3    3    0    0  0.10795790206E+03 -0.26696627211E+02  0.32612573243E+02  0.11589304749E+03  0.00000000000E+00 0.  1.
        -11    1    3    3    0    0  0.90307395652E+03 -0.22749461476E+03  0.57623147416E+03  0.10951434073E+04  0.00000000000E+00 0. -1.
         22    1    1    2    0    0 -0.10110318586E+04  0.25419124197E+03 -0.30318018077E+03  0.10856872609E+04  0.00000000000E+00 0.  1.
<mgrwt>
<rscale>  0 0.22762929E+04</rscale>
<asrwt>0</asrwt>
<pdfrwt beam="1">  1        1 0.20018366E+00 0.22762929E+04</pdfrwt>
<pdfrwt beam="2">  1       -1 0.15315845E+00 0.22762929E+04</pdfrwt>
<totfact> 0.26963052E+00</totfact>
</mgrwt>
</event>
<event>
 6    1  0.1588846E-005  0.9944119E+03  0.7818608E-02  0.9314695E-01
         -3   -1    0    0    0  501 -0.00000000000E+00  0.00000000000E+00  0.15441663773E+04  0.15441663773E+04  0.00000000000E+00 0. -1.
          3   -1    0    0  501    0  0.00000000000E+00 -0.00000000000E+00 -0.16009529607E+03  0.16009529607E+03  0.00000000000E+00 0.  1.
         23    2    1    2    0    0 -0.25638109987E+03  0.28953791209E+03  0.12218152360E+04  0.12848687428E+04  0.92150661603E+02 0.  0.
         13    1    3    3    0    0 -0.10377171129E+03  0.17586527534E+03  0.71175537304E+03  0.74046801024E+03  0.00000000000E+00 0.  1.
        -13    1    3    3    0    0 -0.15260938858E+03  0.11367263675E+03  0.51005986298E+03  0.54440073259E+03  0.00000000000E+00 0. -1.
         22    1    1    2    0    0  0.25638109987E+03 -0.28953791209E+03  0.16225584526E+03  0.41939293059E+03  0.00000000000E+00 0.  1.
<mgrwt>
<rscale>  0 0.99441193E+03</rscale>
<asrwt>0</asrwt>
<pdfrwt beam="1">  1        3 0.24630047E-01 0.99441193E+03</pdfrwt>
<pdfrwt beam="2">  1       -3 0.23756405E+00 0.99441193E+03</pdfrwt>
<totfact> 0.35752446E+00</totfact>
</mgrwt>
</event>
<event>
 6    1  0.1588846E-005  0.1378421E+04  0.7818608E-02  0.8969589E-01
         -2   -1    0    0    0  501 -0.00000000000E+00  0.00000000000E+00  0.10275788414E+04  0.10275788414E+04  0.00000000000E+00 0.  1.
          2   -1    0    0  501    0  0.00000000000E+00 -0.00000000000E+00 -0.46226217933E+03  0.46226217933E+03  0.00000000000E+00 0. -1.
         23    2    1    2    0    0 -0.25447581257E+03 -0.69391113762E+02 -0.40079370168E+03  0.48837095089E+03  0.91090770746E+02 0.  0.
         13    1    3    3    0    0 -0.16700806303E+03 -0.78706040949E+00 -0.22138534814E+03  0.27731531684E+03  0.00000000000E+00 0.  1.
        -13    1    3    3    0    0 -0.87467749540E+02 -0.68604053352E+02 -0.17940835354E+03  0.21105563406E+03  0.00000000000E+00 0. -1.
         22    1    1    2    0    0  0.25447581257E+03  0.69391113762E+02  0.96611036380E+03  0.10014700699E+04  0.00000000000E+00 0.  1.
<mgrwt>
<rscale>  0 0.13784206E+04</rscale>
<asrwt>0</asrwt>
<pdfrwt beam="1">  1        2 0.71117259E-01 0.13784206E+04</pdfrwt>
<pdfrwt beam="2">  1       -2 0.15808905E+00 0.13784206E+04</pdfrwt>
<totfact> 0.17090526E+01</totfact>
</mgrwt>
</event>
<event>
 6    1  0.1588846E-005  0.2687059E+04  0.7818608E-02  0.8339216E-01
          3   -1    0    0  501    0  0.00000000000E+00  0.00000000000E+00  0.11060392295E+04  0.11060392295E+04  0.00000000000E+00 0. -1.
         -3   -1    0    0    0  501 -0.00000000000E+00 -0.00000000000E+00 -0.16320142199E+04  0.16320142199E+04  0.00000000000E+00 0.  1.
         23    2    1    2    0    0 -0.32366527086E+03  0.11902597161E+04 -0.80195702498E+03  0.14740742238E+04  0.91007406343E+02 0.  0.
         11    1    3    3    0    0 -0.17077255928E+03  0.58123581492E+03 -0.44603904956E+03  0.75229593464E+03  0.00000000000E+00 0.  1.
        -11    1    3    3    0    0 -0.15289271159E+03  0.60902390118E+03 -0.35591797542E+03  0.72177828915E+03  0.00000000000E+00 0. -1.
         22    1    1    2    0    0  0.32366527086E+03 -0.11902597161E+04  0.27598203462E+03  0.12639792256E+04  0.00000000000E+00 0. -1.
<mgrwt>
<rscale>  0 0.26870592E+04</rscale>
<asrwt>0</asrwt>
<pdfrwt beam="1">  1        3 0.17015988E+00 0.26870592E+04</pdfrwt>
<pdfrwt beam="2">  1       -3 0.25107911E+00 0.26870592E+04</pdfrwt>
<totfact> 0.38130763E-02</totfact>
</mgrwt>
</event>
<event>
 6    1  0.1588846E-005  0.1490535E+04  0.7818608E-02  0.8890771E-01
          1   -1    0    0  501    0  0.00000000000E+00  0.00000000000E+00  0.33086555092E+03  0.33086555092E+03  0.00000000000E+00 0. -1.
         -1   -1    0    0    0  501 -0.00000000000E+00 -0.00000000000E+00 -0.16786995415E+04  0.16786995415E+04  0.00000000000E+00 0.  1.
         23    2    1    2    0    0  0.87750614340E+02 -0.73465273590E+03 -0.75904549784E+03  0.10640035123E+04  0.92404510899E+02 0.  0.
         11    1    3    3    0    0  0.21909658245E+02 -0.24627748163E+03 -0.31681196952E+03  0.40187368055E+03  0.00000000000E+00 0. -1.
        -11    1    3    3    0    0  0.65840956096E+02 -0.48837525427E+03 -0.44223352832E+03  0.66212983172E+03  0.00000000000E+00 0.  1.
         22    1    1    2    0    0 -0.87750614340E+02  0.73465273590E+03 -0.58878849272E+03  0.94556158015E+03  0.00000000000E+00 0. -1.
<mgrwt>
<rscale>  0 0.14905353E+04</rscale>
<asrwt>0</asrwt>
<pdfrwt beam="1">  1        1 0.50902392E-01 0.14905353E+04</pdfrwt>
<pdfrwt beam="2">  1       -1 0.25826147E+00 0.14905353E+04</pdfrwt>
<totfact> 0.46020071E+00</totfact>
</mgrwt>
</event>
<event>
 6    1  0.1588846E-005  0.5204575E+04  0.7818608E-02  0.7797702E-01
          2   -1    0    0  501    0  0.00000000000E+00  0.00000000000E+00  0.33743336025E+04  0.33743336025E+04  0.00000000000E+00 0.  1.
         -2   -1    0    0    0  501 -0.00000000000E+00 -0.00000000000E+00 -0.20068852914E+04  0.20068852914E+04  0.00000000000E+00 0. -1.
         23    2    1    2    0    0  0.20509807262E+04 -0.42356709440E+03  0.22796181465E+04  0.30969280124E+04  0.91505178203E+02 0.  0.
         11    1    3    3    0    0  0.92505100405E+03 -0.15784343832E+03  0.97405736605E+03  0.13525611496E+04  0.00000000000E+00 0. -1.
        -11    1    3    3    0    0  0.11259297222E+04 -0.26572365607E+03  0.13055607804E+04  0.17443668628E+04  0.00000000000E+00 0.  1.
         22    1    1    2    0    0 -0.20509807262E+04  0.42356709440E+03 -0.91216983540E+03  0.22842908815E+04  0.00000000000E+00 0. -1.
<mgrwt>
<rscale>  0 0.52045751E+04</rscale>
<asrwt>0</asrwt>
<pdfrwt beam="1">  1        2 0.51912825E+00 0.52045751E+04</pdfrwt>
<pdfrwt beam="2">  1       -2 0.30875158E+00 0.52045751E+04</pdfrwt>
<totfact> 0.19940017E-02</totfact>
</mgrwt>
</event>
<event>
 6    1  0.1588846E-005  0.3437540E+04  0.7818608E-02  0.8128754E-01
         -2   -1    0    0    0  501 -0.00000000000E+00  0.00000000000E+00  0.27480557581E+04  0.27480557581E+04  0.00000000000E+00 0.  1.
          2   -1    0    0  501    0  0.00000000000E+00 -0.00000000000E+00 -0.10750037880E+04  0.10750037880E+04  0.00000000000E+00 0. -1.
         23    2    1    2    0    0 -0.11037990834E+04  0.11703703090E+04  0.15062306527E+04  0.22056639764E+04  0.89909514353E+02 0.  0.
         11    1    3    3    0    0 -0.77447605539E+03  0.80552388067E+03  0.99049799915E+03  0.14932408275E+04  0.00000000000E+00 0. -1.
        -11    1    3    3    0    0 -0.32932302804E+03  0.36484642834E+03  0.51573265354E+03  0.71242314884E+03  0.00000000000E+00 0.  1.
         22    1    1    2    0    0  0.11037990834E+04 -0.11703703090E+04  0.16682131739E+03  0.16173955696E+04  0.00000000000E+00 0. -1.
<mgrwt>
<rscale>  0 0.34375400E+04</rscale>
<asrwt>0</asrwt>
<pdfrwt beam="1">  1        2 0.16538520E+00 0.34375400E+04</pdfrwt>
<pdfrwt beam="2">  1       -2 0.42277781E+00 0.34375400E+04</pdfrwt>
<totfact> 0.97911494E-02</totfact>
</mgrwt>
</event>
<event>
 6    1  0.1588846E-005  0.1605850E+04  0.7818608E-02  0.8816962E-01
          2   -1    0    0  501    0  0.00000000000E+00  0.00000000000E+00  0.21840946075E+04  0.21840946075E+04  0.00000000000E+00 0. -1.
         -2   -1    0    0    0  501 -0.00000000000E+00 -0.00000000000E+00 -0.29517420123E+03  0.29517420123E+03  0.00000000000E+00 0.  1.
         23    2    1    2    0    0  0.68595498792E+03 -0.17603406142E+03  0.15237523905E+04  0.16824815623E+04  0.86026879297E+02 0.  0.
         11    1    3    3    0    0  0.28659940659E+03 -0.39067187759E+02  0.68132443385E+03  0.74018136235E+03  0.00000000000E+00 0. -1.
        -11    1    3    3    0    0  0.39935558134E+03 -0.13696687366E+03  0.84242795661E+03  0.94230019999E+03  0.00000000000E+00 0.  1.
         22    1    1    2    0    0 -0.68595498792E+03  0.17603406142E+03  0.36516801581E+03  0.79678724639E+03  0.00000000000E+00 0.  1.
<mgrwt>
<rscale>  0 0.16058498E+04</rscale>
<asrwt>0</asrwt>
<pdfrwt beam="1">  1        2 0.33601454E+00 0.16058498E+04</pdfrwt>
<pdfrwt beam="2">  1       -2 0.45411417E-01 0.16058498E+04</pdfrwt>
<totfact> 0.23250689E+01</totfact>
</mgrwt>
</event>
<event>
 6    1  0.1588846E-005  0.1895626E+04  0.7818608E-02  0.8657037E-01
         -1   -1    0    0    0  501 -0.00000000000E+00  0.00000000000E+00  0.47780047840E+03  0.47780047840E+03  0.00000000000E+00 0.  1.
          1   -1    0    0  501    0  0.00000000000E+00 -0.00000000000E+00 -0.18801773862E+04  0.18801773862E+04  0.00000000000E+00 0. -1.
         23    2    1    2    0    0 -0.71378714992E+03  0.24298972225E+03  0.73142613322E+01  0.75930175830E+03  0.89160311965E+02 0.  0.
         13    1    3    3    0    0 -0.16991893836E+03  0.45235329121E+02  0.37571756556E+02  0.17980633333E+03  0.00000000000E+00 0. -1.
        -13    1    3    3    0    0 -0.54386821156E+03  0.19775439313E+03 -0.30257495224E+02  0.57949542497E+03  0.00000000000E+00 0.  1.
         22    1    1    2    0    0  0.71378714992E+03 -0.24298972225E+03 -0.14096911691E+04  0.15986761063E+04  0.00000000000E+00 0. -1.
<mgrwt>
<rscale>  0 0.18956262E+04</rscale>
<asrwt>0</asrwt>
<pdfrwt beam="1">  1        1 0.28925806E+00 0.18956262E+04</pdfrwt>
<pdfrwt beam="2">  1       -1 0.73507766E-01 0.18956262E+04</pdfrwt>
<totfact> 0.62713725E+00</totfact>
</mgrwt>
</event>
<event>
 6    1  0.1588846E-005  0.1591483E+04  0.7818608E-02  0.8825798E-01
          1   -1    0    0  501    0  0.00000000000E+00  0.00000000000E+00  0.30155205445E+03  0.30155205445E+03  0.00000000000E+00 0. -1.
         -1   -1    0    0    0  501 -0.00000000000E+00 -0.00000000000E+00 -0.20998172443E+04  0.20998172443E+04  0.00000000000E+00 0.  1.
         23    2    1    2    0    0  0.44541698365E+03  0.20925983508E+03  0.36401147456E+02  0.50184658576E+03  0.91318038754E+02 0.  0.
         13    1    3    3    0    0  0.22654765238E+03  0.63140163514E+02  0.40543710853E+02  0.23865102459E+03  0.00000000000E+00 0. -1.
        -13    1    3    3    0    0  0.21886933127E+03  0.14611967156E+03 -0.41425633971E+01  0.26319556117E+03  0.00000000000E+00 0.  1.
         22    1    1    2    0    0 -0.44541698365E+03 -0.20925983508E+03 -0.18346663373E+04  0.18995227130E+04  0.00000000000E+00 0.  1.
<mgrwt>
<rscale>  0 0.15914826E+04</rscale>
<asrwt>0</asrwt>
<pdfrwt beam="1">  1        1 0.46392623E-01 0.15914826E+04</pdfrwt>
<pdfrwt beam="2">  1       -1 0.32304881E+00 0.15914826E+04</pdfrwt>
<totfact> 0.19606740E+00</totfact>
</mgrwt>
</event>
<event>
 6    1  0.1588846E-005  0.2283209E+04  0.7818608E-02  0.8484571E-01
         -1   -1    0    0    0  501 -0.00000000000E+00  0.00000000000E+00  0.85784612175E+03  0.85784612175E+03  0.00000000000E+00 0.  1.
          1   -1    0    0  501    0  0.00000000000E+00 -0.00000000000E+00 -0.15192244679E+04  0.15192244679E+04  0.00000000000E+00 0. -1.
         23    2    1    2    0    0  0.36831975705E+03  0.17241009433E+03 -0.14398229592E+04  0.14987991625E+04  0.89017366003E+02 0.  0.
         13    1    3    3    0    0  0.76382558570E+01 -0.38784362609E+01 -0.93603517239E+02  0.93994700169E+02  0.00000000000E+00 0. -1.
        -13    1    3    3    0    0  0.36068150119E+03  0.17628853059E+03 -0.13462194420E+04  0.14048044623E+04  0.00000000000E+00 0.  1.
         22    1    1    2    0    0 -0.36831975705E+03 -0.17241009433E+03  0.77844461311E+03  0.87827142714E+03  0.00000000000E+00 0.  1.
<mgrwt>
<rscale>  0 0.22832090E+04</rscale>
<asrwt>0</asrwt>
<pdfrwt beam="1">  1        1 0.23372684E+00 0.22832090E+04</pdfrwt>
<pdfrwt beam="2">  1       -1 0.13197633E+00 0.22832090E+04</pdfrwt>
<totfact> 0.28029463E+00</totfact>
</mgrwt>
</event>
<event>
 6    1  0.1588846E-005  0.1755167E+04  0.7818608E-02  0.8730511E-01
         -2   -1    0    0    0  501 -0.00000000000E+00  0.00000000000E+00  0.32636740645E+03  0.32636740645E+03  0.00000000000E+00 0.  1.
          2   -1    0    0  501    0  0.00000000000E+00 -0.00000000000E+00 -0.23597732307E+04  0.23597732307E+04  0.00000000000E+00 0. -1.
         23    2    1    2    0    0  0.77954415580E+03  0.29000801205E+03 -0.60297041006E+03  0.10314687023E+04  0.92523675177E+02 0.  0.
         11    1    3    3    0    0  0.27411095785E+03  0.88767129867E+02 -0.15772113954E+03  0.32846975266E+03  0.00000000000E+00 0.  1.
        -11    1    3    3    0    0  0.50543319795E+03  0.20124088218E+03 -0.44524927052E+03  0.70299894961E+03  0.00000000000E+00 0. -1.
         22    1    1    2    0    0 -0.77954415580E+03 -0.29000801205E+03 -0.14304354142E+04  0.16546719349E+04  0.00000000000E+00 0.  1.
<mgrwt>
<rscale>  0 0.17551673E+04</rscale>
<asrwt>0</asrwt>
<pdfrwt beam="1">  1        2 0.36304203E+00 0.17551673E+04</pdfrwt>
<pdfrwt beam="2">  1       -2 0.50210371E-01 0.17551673E+04</pdfrwt>
<totfact> 0.14913494E+01</totfact>
</mgrwt>
</event>
<event>
 6    1  0.1588846E-005  0.3022240E+04  0.7818608E-02  0.8237409E-01
         -1   -1    0    0    0  501 -0.00000000000E+00  0.00000000000E+00  0.14683583859E+04  0.14683583859E+04  0.00000000000E+00 0.  1.
          1   -1    0    0  501    0  0.00000000000E+00 -0.00000000000E+00 -0.15551268438E+04  0.15551268438E+04  0.00000000000E+00 0. -1.
         23    2    1    2    0    0  0.56495664637E+03  0.12307717528E+04  0.62435860666E+03  0.14938850133E+04  0.88846178371E+02 0.  0.
         11    1    3    3    0    0  0.19292373697E+03  0.50564283789E+03  0.22172508579E+03  0.58485576125E+03  0.00000000000E+00 0. -1.
        -11    1    3    3    0    0  0.37203290940E+03  0.72512891493E+03  0.40263352087E+03  0.90902925205E+03  0.00000000000E+00 0.  1.
         22    1    1    2    0    0 -0.56495664637E+03 -0.12307717528E+04 -0.71112706458E+03  0.15296002163E+04  0.00000000000E+00 0. -1.
<mgrwt>
<rscale>  0 0.30222399E+04</rscale>
<asrwt>0</asrwt>
<pdfrwt beam="1">  1        1 0.23925028E+00 0.30222399E+04</pdfrwt>
<pdfrwt beam="2">  1       -1 0.22590129E+00 0.30222399E+04</pdfrwt>
<totfact> 0.51152612E-01</totfact>
</mgrwt>
</event>
<event>
 6    1  0.1588846E-005  0.4656993E+04  0.7818608E-02  0.7883714E-01
          2   -1    0    0  501    0  0.00000000000E+00  0.00000000000E+00  0.31978023272E+04  0.31978023272E+04  0.00000000000E+00 0.  1.
         -2   -1    0    0    0  501 -0.00000000000E+00 -0.00000000000E+00 -0.16955066236E+04  0.16955066236E+04  0.00000000000E+00 0. -1.
         23    2    1    2    0    0  0.65912530790E+03  0.76803831218E+03 -0.14508392316E+04  0.17715570443E+04  0.95660153888E+02 0.  0.
         13    1    3    3    0    0  0.27442512063E+03  0.33033406260E+03 -0.53499706712E+03  0.68604052473E+03  0.00000000000E+00 0.  1.
        -13    1    3    3    0    0  0.38470018728E+03  0.43770424957E+03 -0.91584216445E+03  0.10855165196E+04  0.00000000000E+00 0. -1.
         22    1    1    2    0    0 -0.65912530790E+03 -0.76803831218E+03  0.29531349351E+04  0.31217519065E+04  0.00000000000E+00 0.  1.
<mgrwt>
<rscale>  0 0.46569926E+04</rscale>
<asrwt>0</asrwt>
<pdfrwt beam="1">  1        2 0.49196959E+00 0.46569926E+04</pdfrwt>
<pdfrwt beam="2">  1       -2 0.26084717E+00 0.46569926E+04</pdfrwt>
<totfact> 0.53612757E-02</totfact>
</mgrwt>
</event>
<event>
 6    1  0.1588846E-005  0.3415953E+04  0.7818608E-02  0.8134002E-01
          1   -1    0    0  501    0  0.00000000000E+00  0.00000000000E+00  0.20865755878E+04  0.20865755878E+04  0.00000000000E+00 0. -1.
         -1   -1    0    0    0  501 -0.00000000000E+00 -0.00000000000E+00 -0.13980725530E+04  0.13980725530E+04  0.00000000000E+00 0.  1.
         23    2    1    2    0    0  0.68026176293E+03 -0.11104890076E+04  0.14699309540E+04  0.19659080395E+04  0.90307852014E+02 0.  0.
         13    1    3    3    0    0  0.26582888865E+03 -0.42566971220E+03  0.63312363955E+03  0.80790175448E+03  0.00000000000E+00 0. -1.
        -13    1    3    3    0    0  0.41443287428E+03 -0.68481929545E+03  0.83680731443E+03  0.11580062850E+04  0.00000000000E+00 0.  1.
         22    1    1    2    0    0 -0.68026176293E+03  0.11104890076E+04 -0.78142791926E+03  0.15187401013E+04  0.00000000000E+00 0.  1.
<mgrwt>
<rscale>  0 0.34159532E+04</rscale>
<asrwt>0</asrwt>
<pdfrwt beam="1">  1        1 0.32101163E+00 0.34159532E+04</pdfrwt>
<pdfrwt beam="2">  1       -1 0.21508809E+00 0.34159532E+04</pdfrwt>
<totfact> 0.25393731E-01</totfact>
</mgrwt>
</event>
<event>
 6    1  0.1588846E-005  0.5822694E+04  0.7818608E-02  0.7712783E-01
         -2   -1    0    0    0  501 -0.00000000000E+00  0.00000000000E+00  0.21114289959E+04  0.21114289959E+04  0.00000000000E+00 0.  1.
          2   -1    0    0  501    0  0.00000000000E+00 -0.00000000000E+00 -0.40143151035E+04  0.40143151035E+04  0.00000000000E+00 0. -1.
         23    2    1    2    0    0  0.48376681691E+03  0.10210666012E+04  0.18702958221E+04  0.21870248644E+04  0.91999774522E+02 0.  0.
         11    1    3    3    0    0  0.10283238750E+03  0.31444944847E+03  0.55114773544E+03  0.64281940064E+03  0.00000000000E+00 0. -1.
        -11    1    3    3    0    0  0.38093442941E+03  0.70661715269E+03  0.13191480866E+04  0.15442054638E+04  0.00000000000E+00 0.  1.
         22    1    1    2    0    0 -0.48376681691E+03 -0.10210666012E+04 -0.37731819297E+04  0.39387192349E+04  0.00000000000E+00 0. -1.
<mgrwt>
<rscale>  0 0.58226940E+04</rscale>
<asrwt>0</asrwt>
<pdfrwt beam="1">  1        2 0.61758693E+00 0.58226940E+04</pdfrwt>
<pdfrwt beam="2">  1       -2 0.32483523E+00 0.58226940E+04</pdfrwt>
<totfact> 0.50521223E-03</totfact>
</mgrwt>
</event>
<event>
 6    1  0.1588846E-005  0.2818996E+04  0.7818608E-02  0.8297395E-01
         -2   -1    0    0    0  501 -0.00000000000E+00  0.00000000000E+00  0.10166669979E+04  0.10166669979E+04  0.00000000000E+00 0. -1.
          2   -1    0    0  501    0  0.00000000000E+00 -0.00000000000E+00 -0.19541157521E+04  0.19541157521E+04  0.00000000000E+00 0.  1.
         23    2    1    2    0    0  0.10874982672E+04 -0.88835341062E+03 -0.35832418319E+03  0.14518326086E+04  0.87163293227E+02 0.  0.
         13    1    3    3    0    0  0.54241119043E+03 -0.44437274651E+03 -0.22389130078E+03  0.73607360495E+03  0.00000000000E+00 0. -1.
        -13    1    3    3    0    0  0.54508707677E+03 -0.44398066412E+03 -0.13443288241E+03  0.71575900361E+03  0.00000000000E+00 0.  1.
         22    1    1    2    0    0 -0.10874982672E+04  0.88835341062E+03 -0.57912457103E+03  0.15189501414E+04  0.00000000000E+00 0. -1.
<mgrwt>
<rscale>  0 0.28189963E+04</rscale>
<asrwt>0</asrwt>
<pdfrwt beam="1">  1        2 0.30063319E+00 0.28189963E+04</pdfrwt>
<pdfrwt beam="2">  1       -2 0.15641031E+00 0.28189963E+04</pdfrwt>
<totfact> 0.16493295E+00</totfact>
</mgrwt>
</event>
<event>
 6    1  0.1588846E-005  0.1452919E+04  0.7818608E-02  0.8916379E-01
         -1   -1    0    0    0  501 -0.00000000000E+00  0.00000000000E+00  0.44299872543E+03  0.44299872543E+03  0.00000000000E+00 0.  1.
          1   -1    0    0  501    0  0.00000000000E+00 -0.00000000000E+00 -0.11912976150E+04  0.11912976150E+04  0.00000000000E+00 0. -1.
         23    2    1    2    0    0  0.19240848278E+03 -0.24485320725E+03 -0.11102907091E+04  0.11567901156E+04  0.91890127081E+02 0.  0.
         13    1    3    3    0    0  0.14276207173E+03 -0.22976861116E+03 -0.87566337438E+03  0.91649384560E+03  0.00000000000E+00 0. -1.
        -13    1    3    3    0    0  0.49646411054E+02 -0.15084596095E+02 -0.23462733472E+03  0.24029626998E+03  0.00000000000E+00 0.  1.
         22    1    1    2    0    0 -0.19240848278E+03  0.24485320725E+03  0.36199181953E+03  0.47750622484E+03  0.00000000000E+00 0.  1.
<mgrwt>
<rscale>  0 0.14529189E+04</rscale>
<asrwt>0</asrwt>
<pdfrwt beam="1">  1        1 0.18327655E+00 0.14529189E+04</pdfrwt>
<pdfrwt beam="2">  1       -1 0.68153651E-01 0.14529189E+04</pdfrwt>
<totfact> 0.22949567E+01</totfact>
</mgrwt>
</event>
<event>
 6    1  0.1588846E-005  0.2815764E+04  0.7818608E-02  0.8298391E-01
          2   -1    0    0  501    0  0.00000000000E+00  0.00000000000E+00  0.49271114001E+04  0.49271114001E+04  0.00000000000E+00 0. -1.
         -2   -1    0    0    0  501 -0.00000000000E+00 -0.00000000000E+00 -0.40229085183E+03  0.40229085183E+03  0.00000000000E+00 0.  1.
         23    2    1    2    0    0 -0.53362687212E+03  0.11031842378E+04  0.95910688448E+03  0.15589795922E+04  0.93585531793E+02 0.  0.
         13    1    3    3    0    0 -0.33256085005E+03  0.78514359842E+03  0.65633114771E+03  0.10760194072E+04  0.00000000000E+00 0. -1.
        -13    1    3    3    0    0 -0.20106602207E+03  0.31804063937E+03  0.30277573677E+03  0.48296018500E+03  0.00000000000E+00 0.  1.
         22    1    1    2    0    0  0.53362687212E+03 -0.11031842378E+04  0.35657136638E+04  0.37704226598E+04  0.00000000000E+00 0. -1.
<mgrwt>
<rscale>  0 0.28157641E+04</rscale>
<asrwt>0</asrwt>
<pdfrwt beam="1">  1        2 0.75801710E+00 0.28157641E+04</pdfrwt>
<pdfrwt beam="2">  1       -2 0.61890904E-01 0.28157641E+04</pdfrwt>
<totfact> 0.89269411E-02</totfact>
</mgrwt>
</event>
<event>
 6    1  0.1588846E-005  0.4248098E+04  0.7818608E-02  0.7956286E-01
         -2   -1    0    0    0  501 -0.00000000000E+00  0.00000000000E+00  0.13451105409E+04  0.13451105409E+04  0.00000000000E+00 0.  1.
          2   -1    0    0  501    0  0.00000000000E+00 -0.00000000000E+00 -0.33540622061E+04  0.33540622061E+04  0.00000000000E+00 0. -1.
         23    2    1    2    0    0 -0.24397594512E+01 -0.16837099216E+04 -0.24355579529E+04  0.29622565207E+04  0.90200333112E+02 0.  0.
         13    1    3    3    0    0 -0.13034917649E+02 -0.15444787644E+04 -0.21918043227E+04  0.26813412226E+04  0.00000000000E+00 0. -1.
        -13    1    3    3    0    0  0.10595158198E+02 -0.13923115727E+03 -0.24375363015E+03  0.28091529816E+03  0.00000000000E+00 0.  1.
         22    1    1    2    0    0  0.24397594512E+01  0.16837099216E+04  0.42660628762E+03  0.17369162263E+04  0.00000000000E+00 0.  1.
<mgrwt>
<rscale>  0 0.42480981E+04</rscale>
<asrwt>0</asrwt>
<pdfrwt beam="1">  1        2 0.51600957E+00 0.42480981E+04</pdfrwt>
<pdfrwt beam="2">  1       -2 0.20694008E+00 0.42480981E+04</pdfrwt>
<totfact> 0.94800590E-02</totfact>
</mgrwt>
</event>
<event>
 6    1  0.1588846E-005  0.1419031E+04  0.7818608E-02  0.8940157E-01
         -1   -1    0    0    0  501 -0.00000000000E+00  0.00000000000E+00  0.41792162871E+03  0.41792162871E+03  0.00000000000E+00 0.  1.
          1   -1    0    0  501    0  0.00000000000E+00 -0.00000000000E+00 -0.12045611651E+04  0.12045611651E+04  0.00000000000E+00 0. -1.
         23    2    1    2    0    0 -0.41369820005E+03  0.55002681593E+03 -0.57768524403E+03  0.90322095324E+03  0.91717774980E+02 0.  0.
         13    1    3    3    0    0 -0.38849113301E+03  0.46651745842E+03 -0.50500029039E+03  0.78967663809E+03  0.00000000000E+00 0.  1.
        -13    1    3    3    0    0 -0.25207067037E+02  0.83509357507E+02 -0.72684953630E+02  0.11354431516E+03  0.00000000000E+00 0. -1.
         22    1    1    2    0    0  0.41369820005E+03 -0.55002681593E+03 -0.20895429232E+03  0.71926184053E+03  0.00000000000E+00 0.  1.
<mgrwt>
<rscale>  0 0.14190309E+04</rscale>
<asrwt>0</asrwt>
<pdfrwt beam="1">  1        1 0.18531710E+00 0.14190309E+04</pdfrwt>
<pdfrwt beam="2">  1       -1 0.64295636E-01 0.14190309E+04</pdfrwt>
<totfact> 0.25325097E+01</totfact>
</mgrwt>
</event>
<event>
 6    1  0.1588846E-005  0.2140885E+04  0.7818608E-02  0.8543444E-01
         -2   -1    0    0    0  501 -0.00000000000E+00  0.00000000000E+00  0.10329740735E+04  0.10329740735E+04  0.00000000000E+00 0.  1.
          2   -1    0    0  501    0  0.00000000000E+00 -0.00000000000E+00 -0.11092699524E+04  0.11092699524E+04  0.00000000000E+00 0. -1.
         23    2    1    2    0    0  0.68661682626E+03  0.68964790929E+03 -0.47949799690E+03  0.10888548039E+04  0.92895371939E+02 0.  0.
         11    1    3    3    0    0  0.49514455195E+03  0.45665353908E+03 -0.29517763970E+03  0.73541173574E+03  0.00000000000E+00 0. -1.
        -11    1    3    3    0    0  0.19147227431E+03  0.23299437021E+03 -0.18432035719E+03  0.35344306820E+03  0.00000000000E+00 0.  1.
         22    1    1    2    0    0 -0.68661682626E+03 -0.68964790929E+03  0.40320211807E+03  0.10533892219E+04  0.00000000000E+00 0.  1.
<mgrwt>
<rscale>  0 0.21408850E+04</rscale>
<asrwt>0</asrwt>
<pdfrwt beam="1">  1        2 0.17065692E+00 0.21408850E+04</pdfrwt>
<pdfrwt beam="2">  1       -2 0.15891909E+00 0.21408850E+04</pdfrwt>
<totfact> 0.50669889E+00</totfact>
</mgrwt>
</event>
<event>
 6    1  0.1588846E-005  0.1755284E+04  0.7818608E-02  0.8730447E-01
         -2   -1    0    0    0  501 -0.00000000000E+00  0.00000000000E+00  0.70997872831E+03  0.70997872831E+03  0.00000000000E+00 0.  1.
          2   -1    0    0  501    0  0.00000000000E+00 -0.00000000000E+00 -0.10848998711E+04  0.10848998711E+04  0.00000000000E+00 0. -1.
         23    2    1    2    0    0 -0.34550115914E+03 -0.80398490278E+03 -0.16411437433E+03  0.89476623502E+03  0.88939938104E+02 0.  0.
         11    1    3    3    0    0 -0.91615137988E+02 -0.30525264005E+03 -0.82514703734E+02  0.32921297681E+03  0.00000000000E+00 0.  1.
        -11    1    3    3    0    0 -0.25388602116E+03 -0.49873226273E+03 -0.81599670600E+02  0.56555325821E+03  0.00000000000E+00 0. -1.
         22    1    1    2    0    0  0.34550115914E+03  0.80398490278E+03 -0.21080676843E+03  0.90011236437E+03  0.00000000000E+00 0. -1.
<mgrwt>
<rscale>  0 0.17552844E+04</rscale>
<asrwt>0</asrwt>
<pdfrwt beam="1">  1        2 0.16690767E+00 0.17552844E+04</pdfrwt>
<pdfrwt beam="2">  1       -2 0.10922750E+00 0.17552844E+04</pdfrwt>
<totfact> 0.14097526E+01</totfact>
</mgrwt>
</event>
<event>
 6    1  0.1588846E-005  0.1887778E+04  0.7818608E-02  0.8660964E-01
         -2   -1    0    0    0  501 -0.00000000000E+00  0.00000000000E+00  0.25810769011E+03  0.25810769011E+03  0.00000000000E+00 0.  1.
          2   -1    0    0  501    0  0.00000000000E+00 -0.00000000000E+00 -0.34517634454E+04  0.34517634454E+04  0.00000000000E+00 0. -1.
         23    2    1    2    0    0 -0.53406575990E+02 -0.82036938198E+03 -0.69845687715E+03  0.10827290330E+04  0.92746776045E+02 0.  0.
         11    1    3    3    0    0 -0.38355547131E+01 -0.87904962000E+02 -0.11600667330E+03  0.14560062525E+03  0.00000000000E+00 0.  1.
        -11    1    3    3    0    0 -0.49571021277E+02 -0.73246441998E+03 -0.58245020386E+03  0.93712840778E+03  0.00000000000E+00 0. -1.
         22    1    1    2    0    0  0.53406575990E+02  0.82036938198E+03 -0.24951988782E+04  0.26271421025E+04  0.00000000000E+00 0. -1.
<mgrwt>
<rscale>  0 0.18877783E+04</rscale>
<asrwt>0</asrwt>
<pdfrwt beam="1">  1        2 0.53104048E+00 0.18877783E+04</pdfrwt>
<pdfrwt beam="2">  1       -2 0.39708879E-01 0.18877783E+04</pdfrwt>
<totfact> 0.49727275E+00</totfact>
</mgrwt>
</event>
<event>
 6    1  0.1588846E-005  0.3722329E+04  0.7818608E-02  0.8063031E-01
         -1   -1    0    0    0  501 -0.00000000000E+00  0.00000000000E+00  0.15105624265E+04  0.15105624265E+04  0.00000000000E+00 0.  1.
          1   -1    0    0  501    0  0.00000000000E+00 -0.00000000000E+00 -0.22931410655E+04  0.22931410655E+04  0.00000000000E+00 0. -1.
         23    2    1    2    0    0 -0.10515062050E+03  0.15627010263E+04  0.63369084384E+03  0.16920902701E+04  0.92272671513E+02 0.  0.
         11    1    3    3    0    0 -0.40877071788E+02  0.18082693244E+03  0.83510111908E+02  0.20333040423E+03  0.00000000000E+00 0.  1.
        -11    1    3    3    0    0 -0.64273548715E+02  0.13818740939E+04  0.55018073193E+03  0.14887598659E+04  0.00000000000E+00 0. -1.
         22    1    1    2    0    0  0.10515062050E+03 -0.15627010263E+04 -0.14162694828E+04  0.21116132218E+04  0.00000000000E+00 0.  1.
<mgrwt>
<rscale>  0 0.37223287E+04</rscale>
<asrwt>0</asrwt>
<pdfrwt beam="1">  1        1 0.35279093E+00 0.37223287E+04</pdfrwt>
<pdfrwt beam="2">  1       -1 0.23239422E+00 0.37223287E+04</pdfrwt>
<totfact> 0.13712417E-01</totfact>
</mgrwt>
</event>
<event>
 6    1  0.1588846E-005  0.3163573E+04  0.7818608E-02  0.8198504E-01
         -2   -1    0    0    0  501 -0.00000000000E+00  0.00000000000E+00  0.10135914750E+04  0.10135914750E+04  0.00000000000E+00 0.  1.
          2   -1    0    0  501    0  0.00000000000E+00 -0.00000000000E+00 -0.24684975862E+04  0.24684975862E+04  0.00000000000E+00 0. -1.
         23    2    1    2    0    0  0.13126691808E+04 -0.29314581515E+03  0.18543445468E+03  0.13608271681E+04  0.91813927571E+02 0.  0.
         13    1    3    3    0    0  0.30361897010E+03 -0.60272577042E+02  0.81229046078E+02  0.32002409358E+03  0.00000000000E+00 0. -1.
        -13    1    3    3    0    0  0.10090502107E+04 -0.23287323811E+03  0.10420540860E+03  0.10408030745E+04  0.00000000000E+00 0.  1.
         22    1    1    2    0    0 -0.13126691808E+04  0.29314581515E+03 -0.16403405659E+04  0.21212618931E+04  0.00000000000E+00 0. -1.
<mgrwt>
<rscale>  0 0.31635727E+04</rscale>
<asrwt>0</asrwt>
<pdfrwt beam="1">  1        2 0.37976885E+00 0.31635727E+04</pdfrwt>
<pdfrwt beam="2">  1       -2 0.15593715E+00 0.31635727E+04</pdfrwt>
<totfact> 0.82804390E-01</totfact>
</mgrwt>
</event>
<event>
 6    1  0.1588846E-005  0.3288220E+04  0.7818608E-02  0.8165899E-01
          2   -1    0    0  501    0  0.00000000000E+00  0.00000000000E+00  0.17689360456E+04  0.17689360456E+04  0.00000000000E+00 0. -1.
         -2   -1    0    0    0  501 -0.00000000000E+00 -0.00000000000E+00 -0.15280924182E+04  0.15280924182E+04  0.00000000000E+00 0.  1.
         23    2    1    2    0    0  0.92766805727E+03  0.11295181596E+04  0.87250870555E+03  0.17047407799E+04  0.92143301667E+02 0.  0.
         13    1    3    3    0    0  0.79062994551E+03  0.90886288747E+03  0.72741199619E+03  0.14072155738E+04  0.00000000000E+00 0. -1.
        -13    1    3    3    0    0  0.13703811176E+03  0.22065527214E+03  0.14509670936E+03  0.29752520610E+03  0.00000000000E+00 0.  1.
         22    1    1    2    0    0 -0.92766805727E+03 -0.11295181596E+04 -0.63166507819E+03  0.15922876839E+04  0.00000000000E+00 0.  1.
<mgrwt>
<rscale>  0 0.32882200E+04</rscale>
<asrwt>0</asrwt>
<pdfrwt beam="1">  1        2 0.27214401E+00 0.32882200E+04</pdfrwt>
<pdfrwt beam="2">  1       -2 0.23509114E+00 0.32882200E+04</pdfrwt>
<totfact> 0.59649399E-01</totfact>
</mgrwt>
</event>
<event>
 6    1  0.1588846E-005  0.3017301E+04  0.7818608E-02  0.8238808E-01
         -2   -1    0    0    0  501 -0.00000000000E+00  0.00000000000E+00  0.15076769420E+04  0.15076769420E+04  0.00000000000E+00 0.  1.
          2   -1    0    0  501    0  0.00000000000E+00 -0.00000000000E+00 -0.15096244174E+04  0.15096244174E+04  0.00000000000E+00 0. -1.
         23    2    1    2    0    0 -0.36472487832E+03 -0.14614235259E+04  0.54571231912E+02  0.15099933871E+04  0.91208830253E+02 0.  0.
         13    1    3    3    0    0 -0.25995823278E+03 -0.95177502538E+03 -0.18355725175E+01  0.98663942301E+03  0.00000000000E+00 0. -1.
        -13    1    3    3    0    0 -0.10476664554E+03 -0.50964850056E+03  0.56406804430E+02  0.52335396409E+03  0.00000000000E+00 0.  1.
         22    1    1    2    0    0  0.36472487832E+03  0.14614235259E+04 -0.56518707310E+02  0.15073079723E+04  0.00000000000E+00 0.  1.
<mgrwt>
<rscale>  0 0.30173007E+04</rscale>
<asrwt>0</asrwt>
<pdfrwt beam="1">  1        2 0.23224991E+00 0.30173007E+04</pdfrwt>
<pdfrwt beam="2">  1       -2 0.23195030E+00 0.30173007E+04</pdfrwt>
<totfact> 0.89084577E-01</totfact>
</mgrwt>
</event>
<event>
 6    1  0.1588846E-005  0.1480265E+04  0.7818608E-02  0.8897684E-01
         -2   -1    0    0    0  501 -0.00000000000E+00  0.00000000000E+00  0.39870519394E+03  0.39870519394E+03  0.00000000000E+00 0.  1.
          2   -1    0    0  501    0  0.00000000000E+00 -0.00000000000E+00 -0.13739372857E+04  0.13739372857E+04  0.00000000000E+00 0. -1.
         23    2    1    2    0    0 -0.39872393933E+03 -0.50029158320E+03 -0.50661605422E+02  0.64831911325E+03  0.92079456582E+02 0.  0.
         11    1    3    3    0    0 -0.21273635853E+03 -0.24233888959E+03 -0.69050244735E+02  0.32977694271E+03  0.00000000000E+00 0.  1.
        -11    1    3    3    0    0 -0.18598758079E+03 -0.25795269361E+03  0.18388639313E+02  0.31854217053E+03  0.00000000000E+00 0. -1.
         22    1    1    2    0    0  0.39872393933E+03  0.50029158320E+03 -0.92457048630E+03  0.11243233664E+04  0.00000000000E+00 0. -1.
<mgrwt>
<rscale>  0 0.14802647E+04</rscale>
<asrwt>0</asrwt>
<pdfrwt beam="1">  1        2 0.21137497E+00 0.14802647E+04</pdfrwt>
<pdfrwt beam="2">  1       -2 0.61339260E-01 0.14802647E+04</pdfrwt>
<totfact> 0.35815220E+01</totfact>
</mgrwt>
</event>
<event>
 6    1  0.1588846E-005  0.7460169E+03  0.7818608E-02  0.9641620E-01
         -1   -1    0    0    0  501 -0.00000000000E+00  0.00000000000E+00  0.49141538423E+03  0.49141538423E+03  0.00000000000E+00 0.  1.
          1   -1    0    0  501    0  0.00000000000E+00 -0.00000000000E+00 -0.28313176690E+03  0.28313176690E+03  0.00000000000E+00 0. -1.
         23    2    1    2    0    0 -0.19763057089E+03  0.30875905299E+03  0.87411168268E+02  0.38854178291E+03  0.94519888808E+02 0.  0.
         13    1    3    3    0    0 -0.10314713711E+03  0.17245776119E+03  0.95518935584E+02  0.22249691760E+03  0.00000000000E+00 0.  1.
        -13    1    3    3    0    0 -0.94483433782E+02  0.13630129180E+03 -0.81077673167E+01  0.16604486531E+03  0.00000000000E+00 0. -1.
         22    1    1    2    0    0  0.19763057089E+03 -0.30875905299E+03  0.12087244905E+03  0.38600536822E+03  0.00000000000E+00 0.  1.
<mgrwt>
<rscale>  0 0.74601691E+03</rscale>
<asrwt>0</asrwt>
<pdfrwt beam="1">  1        1 0.43558734E-01 0.74601691E+03</pdfrwt>
<pdfrwt beam="2">  1       -1 0.75602367E-01 0.74601691E+03</pdfrwt>
<totfact> 0.16856940E+02</totfact>
</mgrwt>
</event>
<event>
 6    1  0.1588846E-005  0.2844877E+04  0.7818608E-02  0.8289470E-01
          2   -1    0    0  501    0  0.00000000000E+00  0.00000000000E+00  0.33440482850E+04  0.33440482850E+04  0.00000000000E+00 0. -1.
         -2   -1    0    0    0  501 -0.00000000000E+00 -0.00000000000E+00 -0.60505452077E+03  0.60505452077E+03  0.00000000000E+00 0.  1.
         23    2    1    2    0    0  0.13527721860E+03  0.12562015367E+04  0.46780609865E+03  0.13501346184E+04  0.87628278611E+02 0.  0.
         11    1    3    3    0    0  0.15724382197E+02  0.37103223696E+03  0.17159948825E+03  0.40909480738E+03  0.00000000000E+00 0. -1.
        -11    1    3    3    0    0  0.11955283640E+03  0.88516929974E+03  0.29620661040E+03  0.94103981103E+03  0.00000000000E+00 0.  1.
         22    1    1    2    0    0 -0.13527721860E+03 -0.12562015367E+04  0.22711876656E+04  0.25989681874E+04  0.00000000000E+00 0. -1.
<mgrwt>
<rscale>  0 0.28448772E+04</rscale>
<asrwt>0</asrwt>
<pdfrwt beam="1">  1        2 0.51446896E+00 0.28448772E+04</pdfrwt>
<pdfrwt beam="2">  1       -2 0.93085312E-01 0.28448772E+04</pdfrwt>
<totfact> 0.88133574E-01</totfact>
</mgrwt>
</event>
<event>
 6    1  0.1588846E-005  0.1068521E+04  0.7818608E-02  0.9236429E-01
          2   -1    0    0  501    0  0.00000000000E+00  0.00000000000E+00  0.34714829683E+04  0.34714829683E+04  0.00000000000E+00 0. -1.
         -2   -1    0    0    0  501 -0.00000000000E+00 -0.00000000000E+00 -0.82222534566E+02  0.82222534566E+02  0.00000000000E+00 0.  1.
         23    2    1    2    0    0 -0.19946754930E+03  0.48745815587E+03  0.16143434046E+04  0.17022916601E+04  0.11953874292E+03 0.  0.
         11    1    3    3    0    0 -0.94610583136E+02  0.95849450750E+02  0.40504190757E+03  0.42684567063E+03  0.00000000000E+00 0. -1.
        -11    1    3    3    0    0 -0.10485696616E+03  0.39160870512E+03  0.12093014970E+04  0.12754459895E+04  0.00000000000E+00 0.  1.
         22    1    1    2    0    0  0.19946754930E+03 -0.48745815587E+03  0.17749170292E+04  0.18514138428E+04  0.00000000000E+00 0. -1.
<mgrwt>
<rscale>  0 0.10685207E+04</rscale>
<asrwt>0</asrwt>
<pdfrwt beam="1">  1        2 0.53407419E+00 0.10685207E+04</pdfrwt>
<pdfrwt beam="2">  1       -2 0.12649623E-01 0.10685207E+04</pdfrwt>
<totfact> 0.40905299E+01</totfact>
</mgrwt>
</event>
<event>
 6    1  0.1588846E-005  0.3096471E+04  0.7818608E-02  0.8216707E-01
          2   -1    0    0  501    0  0.00000000000E+00  0.00000000000E+00  0.33330174294E+04  0.33330174294E+04  0.00000000000E+00 0. -1.
         -2   -1    0    0    0  501 -0.00000000000E+00 -0.00000000000E+00 -0.71917818224E+03  0.71917818224E+03  0.00000000000E+00 0.  1.
         23    2    1    2    0    0  0.32270080349E+03 -0.64005613603E+03 -0.48626579853E+03  0.87030011365E+03  0.84617936449E+02 0.  0.
         11    1    3    3    0    0  0.14435008049E+03 -0.30633341461E+03 -0.18006682648E+03  0.38353770173E+03  0.00000000000E+00 0.  1.
        -11    1    3    3    0    0  0.17835072300E+03 -0.33372272141E+03 -0.30619897205E+03  0.48676241193E+03  0.00000000000E+00 0. -1.
         22    1    1    2    0    0 -0.32270080349E+03  0.64005613603E+03  0.31001050457E+04  0.31818954980E+04  0.00000000000E+00 0. -1.
<mgrwt>
<rscale>  0 0.30964712E+04</rscale>
<asrwt>0</asrwt>
<pdfrwt beam="1">  1        2 0.51277190E+00 0.30964712E+04</pdfrwt>
<pdfrwt beam="2">  1       -2 0.11064280E+00 0.30964712E+04</pdfrwt>
<totfact> 0.58179422E-01</totfact>
</mgrwt>
</event>
<event>
 6    1  0.1588846E-005  0.1682927E+04  0.7818608E-02  0.8771162E-01
         -2   -1    0    0    0  501 -0.00000000000E+00  0.00000000000E+00  0.46649541920E+03  0.46649541920E+03  0.00000000000E+00 0.  1.
          2   -1    0    0  501    0  0.00000000000E+00 -0.00000000000E+00 -0.15178300579E+04  0.15178300579E+04  0.00000000000E+00 0. -1.
         23    2    1    2    0    0 -0.50478894863E+03 -0.58044275744E+03 -0.92180426810E+03  0.12042589452E+04  0.93759378697E+02 0.  0.
         13    1    3    3    0    0 -0.17666076438E+03 -0.14043842261E+03 -0.25193629240E+03  0.33823641384E+03  0.00000000000E+00 0. -1.
        -13    1    3    3    0    0 -0.32812818425E+03 -0.44000433483E+03 -0.66986797570E+03  0.86602253136E+03  0.00000000000E+00 0.  1.
         22    1    1    2    0    0  0.50478894863E+03  0.58044275744E+03 -0.12953037062E+03  0.78006653192E+03  0.00000000000E+00 0. -1.
<mgrwt>
<rscale>  0 0.16829269E+04</rscale>
<asrwt>0</asrwt>
<pdfrwt beam="1">  1        2 0.23351232E+00 0.16829269E+04</pdfrwt>
<pdfrwt beam="2">  1       -2 0.71768526E-01 0.16829269E+04</pdfrwt>
<totfact> 0.20797439E+01</totfact>
</mgrwt>
</event>
<event>
 6    1  0.1588846E-005  0.2028638E+04  0.7818608E-02  0.8593347E-01
         -1   -1    0    0    0  501 -0.00000000000E+00  0.00000000000E+00  0.60907681409E+03  0.60907681409E+03  0.00000000000E+00 0.  1.
          1   -1    0    0  501    0  0.00000000000E+00 -0.00000000000E+00 -0.16891841711E+04  0.16891841711E+04  0.00000000000E+00 0. -1.
         23    2    1    2    0    0  0.72712714364E+03  0.51283622464E+03 -0.10879814048E+04  0.14084425335E+04  0.91060181193E+02 0.  0.
         11    1    3    3    0    0  0.50379978604E+03  0.34667933701E+03 -0.81121388262E+03  0.10159078455E+04  0.00000000000E+00 0. -1.
        -11    1    3    3    0    0  0.22332735761E+03  0.16615688763E+03 -0.27676752219E+03  0.39253468802E+03  0.00000000000E+00 0.  1.
         22    1    1    2    0    0 -0.72712714364E+03 -0.51283622464E+03  0.78740478140E+01  0.88981845169E+03  0.00000000000E+00 0.  1.
<mgrwt>
<rscale>  0 0.20286379E+04</rscale>
<asrwt>0</asrwt>
<pdfrwt beam="1">  1        1 0.25987449E+00 0.20286379E+04</pdfrwt>
<pdfrwt beam="2">  1       -1 0.93704124E-01 0.20286379E+04</pdfrwt>
<totfact> 0.49532477E+00</totfact>
</mgrwt>
</event>
<event>
 6    1  0.1588846E-005  0.1850545E+04  0.7818608E-02  0.8679873E-01
         -2   -1    0    0    0  501 -0.00000000000E+00  0.00000000000E+00  0.17488460376E+04  0.17488460376E+04  0.00000000000E+00 0.  1.
          2   -1    0    0  501    0  0.00000000000E+00 -0.00000000000E+00 -0.48953926651E+03  0.48953926651E+03  0.00000000000E+00 0. -1.
         23    2    1    2    0    0 -0.81298935727E+03  0.13727924863E+03  0.12927295058E+03  0.83953802058E+03  0.91188294772E+02 0.  0.
         13    1    3    3    0    0 -0.56394260029E+03  0.70772429476E+02  0.53609247531E+02  0.57088873226E+03  0.00000000000E+00 0.  1.
        -13    1    3    3    0    0 -0.24904675698E+03  0.66506819154E+02  0.75663703050E+02  0.26864928832E+03  0.00000000000E+00 0. -1.
         22    1    1    2    0    0  0.81298935727E+03 -0.13727924863E+03  0.11300338205E+04  0.13988472835E+04  0.00000000000E+00 0.  1.
<mgrwt>
<rscale>  0 0.18505446E+04</rscale>
<asrwt>0</asrwt>
<pdfrwt beam="1">  1        2 0.75313734E-01 0.18505446E+04</pdfrwt>
<pdfrwt beam="2">  1       -2 0.26905323E+00 0.18505446E+04</pdfrwt>
<totfact> 0.29159225E+00</totfact>
</mgrwt>
</event>
<event>
 6    1  0.1588846E-005  0.3889336E+04  0.7818608E-02  0.8027251E-01
          2   -1    0    0  501    0  0.00000000000E+00  0.00000000000E+00  0.45866288907E+04  0.45866288907E+04  0.00000000000E+00 0. -1.
         -2   -1    0    0    0  501 -0.00000000000E+00 -0.00000000000E+00 -0.82451268156E+03  0.82451268156E+03  0.00000000000E+00 0.  1.
         23    2    1    2    0    0  0.84863282928E+03  0.72054440595E+03  0.40986642749E+04  0.42481168432E+04  0.89921938578E+02 0.  0.
         13    1    3    3    0    0  0.12143253075E+03  0.78724275730E+02  0.62904739250E+03  0.64547966128E+03  0.00000000000E+00 0.  1.
        -13    1    3    3    0    0  0.72720029853E+03  0.64182013022E+03  0.34696168824E+04  0.36026371819E+04  0.00000000000E+00 0. -1.
         22    1    1    2    0    0 -0.84863282928E+03 -0.72054440595E+03 -0.33654806577E+03  0.11630247291E+04  0.00000000000E+00 0.  1.
<mgrwt>
<rscale>  0 0.38893360E+04</rscale>
<asrwt>0</asrwt>
<pdfrwt beam="1">  1        2 0.70563520E+00 0.38893360E+04</pdfrwt>
<pdfrwt beam="2">  1       -2 0.12684811E+00 0.38893360E+04</pdfrwt>
<totfact> 0.36817986E-02</totfact>
</mgrwt>
</event>
<event>
 6    1  0.1588846E-005  0.3831764E+04  0.7818608E-02  0.8039373E-01
         -2   -1    0    0    0  501 -0.00000000000E+00  0.00000000000E+00  0.28227738340E+04  0.28227738340E+04  0.00000000000E+00 0.  1.
          2   -1    0    0  501    0  0.00000000000E+00 -0.00000000000E+00 -0.13003534515E+04  0.13003534515E+04  0.00000000000E+00 0. -1.
         23    2    1    2    0    0  0.16611438292E+04  0.50342965477E+03  0.16312902115E+04  0.23839628660E+04  0.96596861859E+02 0.  0.
         11    1    3    3    0    0  0.13613273336E+03  0.24537245713E+02  0.15965920751E+03  0.21124691728E+03  0.00000000000E+00 0.  1.
        -11    1    3    3    0    0  0.15250110958E+04  0.47889240906E+03  0.14716310040E+04  0.21727159487E+04  0.00000000000E+00 0. -1.
         22    1    1    2    0    0 -0.16611438292E+04 -0.50342965477E+03 -0.10886982911E+03  0.17391644195E+04  0.00000000000E+00 0. -1.
<mgrwt>
<rscale>  0 0.38317639E+04</rscale>
<asrwt>0</asrwt>
<pdfrwt beam="1">  1        2 0.20005438E+00 0.38317639E+04</pdfrwt>
<pdfrwt beam="2">  1       -2 0.43427290E+00 0.38317639E+04</pdfrwt>
<totfact> 0.58260313E-02</totfact>
</mgrwt>
</event>
<event>
 6    1  0.1588846E-005  0.3631956E+04  0.7818608E-02  0.8083211E-01
          1   -1    0    0  501    0  0.00000000000E+00  0.00000000000E+00  0.14072859842E+04  0.14072859842E+04  0.00000000000E+00 0. -1.
         -1   -1    0    0    0  501 -0.00000000000E+00 -0.00000000000E+00 -0.23433584574E+04  0.23433584574E+04  0.00000000000E+00 0.  1.
         23    2    1    2    0    0 -0.13787770148E+04  0.11526705088E+04 -0.20733039387E+03  0.18113815981E+04  0.91880591907E+02 0.  0.
         13    1    3    3    0    0 -0.61765769164E+03  0.46996443349E+03 -0.60949188557E+02  0.77851293911E+03  0.00000000000E+00 0.  1.
        -13    1    3    3    0    0 -0.76111932314E+03  0.68270607536E+03 -0.14638120532E+03  0.10328686590E+04  0.00000000000E+00 0. -1.
         22    1    1    2    0    0  0.13787770148E+04 -0.11526705088E+04 -0.72874207932E+03  0.19392628436E+04  0.00000000000E+00 0. -1.
<mgrwt>
<rscale>  0 0.36319557E+04</rscale>
<asrwt>0</asrwt>
<pdfrwt beam="1">  1        1 0.21650554E+00 0.36319557E+04</pdfrwt>
<pdfrwt beam="2">  1       -1 0.36051668E+00 0.36319557E+04</pdfrwt>
<totfact> 0.80983121E-02</totfact>
</mgrwt>
</event>
<event>
 6    1  0.1588846E-005  0.8684230E+03  0.7818608E-02  0.9465938E-01
         -1   -1    0    0    0  501 -0.00000000000E+00  0.00000000000E+00  0.20591971823E+03  0.20591971823E+03  0.00000000000E+00 0.  1.
          1   -1    0    0  501    0  0.00000000000E+00 -0.00000000000E+00 -0.91559782733E+03  0.91559782733E+03  0.00000000000E+00 0. -1.
         23    2    1    2    0    0  0.24029279463E+03  0.72494268083E+02  0.90955678971E+02  0.28246420478E+03  0.92287839896E+02 0.  0.
         11    1    3    3    0    0  0.19903842362E+03  0.51662663950E+02  0.32883554667E+02  0.20824661604E+03  0.00000000000E+00 0.  1.
        -11    1    3    3    0    0  0.41254371004E+02  0.20831604133E+02  0.58072124304E+02  0.74217588743E+02  0.00000000000E+00 0. -1.
         22    1    1    2    0    0 -0.24029279463E+03 -0.72494268083E+02 -0.80063378807E+03  0.83905334077E+03  0.00000000000E+00 0. -1.
<mgrwt>
<rscale>  0 0.86842305E+03</rscale>
<asrwt>0</asrwt>
<pdfrwt beam="1">  1        1 0.14086121E+00 0.86842305E+03</pdfrwt>
<pdfrwt beam="2">  1       -1 0.31679956E-01 0.86842305E+03</pdfrwt>
<totfact> 0.16500296E+02</totfact>
</mgrwt>
</event>
<event>
 6    1  0.1588846E-005  0.2264172E+04  0.7818608E-02  0.8492183E-01
         -1   -1    0    0    0  501 -0.00000000000E+00  0.00000000000E+00  0.69644592643E+03  0.69644592643E+03  0.00000000000E+00 0.  1.
          1   -1    0    0  501    0  0.00000000000E+00 -0.00000000000E+00 -0.18402276501E+04  0.18402276501E+04  0.00000000000E+00 0. -1.
         23    2    1    2    0    0 -0.76248938479E+03 -0.30036314137E+03  0.29936679094E+03  0.87706949308E+03  0.89567525097E+02 0.  0.
         11    1    3    3    0    0 -0.55071414677E+03 -0.25478139645E+03  0.20163635689E+03  0.63941915193E+03  0.00000000000E+00 0. -1.
        -11    1    3    3    0    0 -0.21177523802E+03 -0.45581744921E+02  0.97730434045E+02  0.23765034115E+03  0.00000000000E+00 0.  1.
         22    1    1    2    0    0  0.76248938479E+03  0.30036314137E+03 -0.14431485146E+04  0.16596040835E+04  0.00000000000E+00 0. -1.
<mgrwt>
<rscale>  0 0.22641723E+04</rscale>
<asrwt>0</asrwt>
<pdfrwt beam="1">  1        1 0.28311194E+00 0.22641723E+04</pdfrwt>
<pdfrwt beam="2">  1       -1 0.10714553E+00 0.22641723E+04</pdfrwt>
<totfact> 0.28159472E+00</totfact>
</mgrwt>
</event>
<event>
 6    1  0.1588846E-005  0.1485841E+04  0.7818608E-02  0.8893923E-01
         -2   -1    0    0    0  501 -0.00000000000E+00  0.00000000000E+00  0.44983779058E+03  0.44983779058E+03  0.00000000000E+00 0.  1.
          2   -1    0    0  501    0  0.00000000000E+00 -0.00000000000E+00 -0.12269553387E+04  0.12269553387E+04  0.00000000000E+00 0. -1.
         23    2    1    2    0    0  0.31812235939E+03 -0.29938611923E+03 -0.10642469672E+04  0.11540339236E+04  0.91317061358E+02 0.  0.
         13    1    3    3    0    0  0.95789324296E+02 -0.13771420938E+03 -0.47676377366E+03  0.50541516992E+03  0.00000000000E+00 0. -1.
        -13    1    3    3    0    0  0.22233303510E+03 -0.16167190985E+03 -0.58748319350E+03  0.64861875364E+03  0.00000000000E+00 0.  1.
         22    1    1    2    0    0 -0.31812235939E+03  0.29938611923E+03  0.28712941901E+03  0.52275920575E+03  0.00000000000E+00 0.  1.
<mgrwt>
<rscale>  0 0.14858410E+04</rscale>
<asrwt>0</asrwt>
<pdfrwt beam="1">  1        2 0.18876236E+00 0.14858410E+04</pdfrwt>
<pdfrwt beam="2">  1       -2 0.69205815E-01 0.14858410E+04</pdfrwt>
<totfact> 0.33647825E+01</totfact>
</mgrwt>
</event>
<event>
 6    1  0.1588846E-005  0.1863125E+04  0.7818608E-02  0.8673432E-01
          1   -1    0    0  501    0  0.00000000000E+00  0.00000000000E+00  0.77120817780E+03  0.77120817780E+03  0.00000000000E+00 0. -1.
         -1   -1    0    0    0  501 -0.00000000000E+00 -0.00000000000E+00 -0.11252589803E+04  0.11252589803E+04  0.00000000000E+00 0.  1.
         23    2    1    2    0    0  0.84158947636E+03 -0.38802192465E+03 -0.10709696118E+03  0.93739465797E+03  0.91679468636E+02 0.  0.
         11    1    3    3    0    0  0.18333349169E+03 -0.12004877549E+03 -0.47177268295E+02  0.22416193324E+03  0.00000000000E+00 0.  1.
        -11    1    3    3    0    0  0.65825598467E+03 -0.26797314916E+03 -0.59919692884E+02  0.71323272473E+03  0.00000000000E+00 0. -1.
         22    1    1    2    0    0 -0.84158947636E+03  0.38802192465E+03 -0.24695384129E+03  0.95907250011E+03  0.00000000000E+00 0.  1.
<mgrwt>
<rscale>  0 0.18631253E+04</rscale>
<asrwt>0</asrwt>
<pdfrwt beam="1">  1        1 0.11864741E+00 0.18631253E+04</pdfrwt>
<pdfrwt beam="2">  1       -1 0.17311676E+00 0.18631253E+04</pdfrwt>
<totfact> 0.51360927E+00</totfact>
</mgrwt>
</event>
<event>
 6    1  0.1588846E-005  0.7844802E+03  0.7818608E-02  0.9582757E-01
         -1   -1    0    0    0  501 -0.00000000000E+00  0.00000000000E+00  0.16698946746E+03  0.16698946746E+03  0.00000000000E+00 0.  1.
          1   -1    0    0  501    0  0.00000000000E+00 -0.00000000000E+00 -0.92132945228E+03  0.92132945228E+03  0.00000000000E+00 0. -1.
         23    2    1    2    0    0 -0.21875421422E+03 -0.29310989956E+03 -0.20703664869E+03  0.43005775486E+03  0.91206793327E+02 0.  0.
         13    1    3    3    0    0 -0.52838744481E+02 -0.10356961321E+03 -0.11017054795E+03  0.16017536431E+03  0.00000000000E+00 0. -1.
        -13    1    3    3    0    0 -0.16591546974E+03 -0.18954028635E+03 -0.96866100741E+02  0.26988239054E+03  0.00000000000E+00 0.  1.
         22    1    1    2    0    0  0.21875421422E+03  0.29310989956E+03 -0.54730333613E+03  0.65826116489E+03  0.00000000000E+00 0. -1.
<mgrwt>
<rscale>  0 0.78448025E+03</rscale>
<asrwt>0</asrwt>
<pdfrwt beam="1">  1        1 0.14174299E+00 0.78448025E+03</pdfrwt>
<pdfrwt beam="2">  1       -1 0.25690687E-01 0.78448025E+03</pdfrwt>
<totfact> 0.23598307E+02</totfact>
</mgrwt>
</event>
<event>
 6    1  0.1588846E-005  0.5138747E+04  0.7818608E-02  0.7807454E-01
         -2   -1    0    0    0  501 -0.00000000000E+00  0.00000000000E+00  0.35159913646E+04  0.35159913646E+04  0.00000000000E+00 0.  1.
          2   -1    0    0  501    0  0.00000000000E+00 -0.00000000000E+00 -0.18776154772E+04  0.18776154772E+04  0.00000000000E+00 0. -1.
         23    2    1    2    0    0 -0.16165138016E+04  0.16674383148E+04 -0.33228494075E+03  0.23477947163E+04  0.90880929810E+02 0.  0.
         11    1    3    3    0    0 -0.63347099539E+03  0.67783131818E+03 -0.17433493761E+03  0.94399865910E+03  0.00000000000E+00 0. -1.
        -11    1    3    3    0    0 -0.98304280626E+03  0.98960699662E+03 -0.15795000314E+03  0.14037960572E+04  0.00000000000E+00 0.  1.
         22    1    1    2    0    0  0.16165138016E+04 -0.16674383148E+04  0.19706608281E+04  0.30458121255E+04  0.00000000000E+00 0.  1.
<mgrwt>
<rscale>  0 0.51387469E+04</rscale>
<asrwt>0</asrwt>
<pdfrwt beam="1">  1        2 0.28886392E+00 0.51387469E+04</pdfrwt>
<pdfrwt beam="2">  1       -2 0.54092175E+00 0.51387469E+04</pdfrwt>
<totfact> 0.54205695E-03</totfact>
</mgrwt>
</event>
<event>
 6    1  0.1588846E-005  0.2918981E+04  0.7818608E-02  0.8267252E-01
         -2   -1    0    0    0  501 -0.00000000000E+00  0.00000000000E+00  0.77290824834E+03  0.77290824834E+03  0.00000000000E+00 0.  1.
          2   -1    0    0  501    0  0.00000000000E+00 -0.00000000000E+00 -0.27559705441E+04  0.27559705441E+04  0.00000000000E+00 0. -1.
         23    2    1    2    0    0 -0.12804540493E+04 -0.32628096753E+03 -0.24732048942E+03  0.13474064776E+04  0.91186343725E+02 0.  0.
         11    1    3    3    0    0 -0.20452037215E+03 -0.41501482153E+02 -0.71640309288E+02  0.22064290054E+03  0.00000000000E+00 0. -1.
        -11    1    3    3    0    0 -0.10759336771E+04 -0.28477948537E+03 -0.17568018013E+03  0.11267635771E+04  0.00000000000E+00 0.  1.
         22    1    1    2    0    0  0.12804540493E+04  0.32628096753E+03 -0.17357418063E+04  0.21814723148E+04  0.00000000000E+00 0. -1.
<mgrwt>
<rscale>  0 0.29189809E+04</rscale>
<asrwt>0</asrwt>
<pdfrwt beam="1">  1        2 0.42399547E+00 0.29189809E+04</pdfrwt>
<pdfrwt beam="2">  1       -2 0.11890896E+00 0.29189809E+04</pdfrwt>
<totfact> 0.11502380E+00</totfact>
</mgrwt>
</event>
<event>
 6    1  0.1588846E-005  0.4253068E+04  0.7818608E-02  0.7955354E-01
         -2   -1    0    0    0  501 -0.00000000000E+00  0.00000000000E+00  0.14576960489E+04  0.14576960489E+04  0.00000000000E+00 0.  1.
          2   -1    0    0  501    0  0.00000000000E+00 -0.00000000000E+00 -0.31022569903E+04  0.31022569903E+04  0.00000000000E+00 0. -1.
         23    2    1    2    0    0 -0.19627984344E+04 -0.72311195876E+03 -0.41661686813E+03  0.21343984128E+04  0.81353370752E+02 0.  0.
         11    1    3    3    0    0 -0.15834923284E+04 -0.56234803369E+03 -0.30832210971E+03  0.17084337237E+04  0.00000000000E+00 0. -1.
        -11    1    3    3    0    0 -0.37930610600E+03 -0.16076392507E+03 -0.10829475842E+03  0.42596468909E+03  0.00000000000E+00 0.  1.
         22    1    1    2    0    0  0.19627984344E+04  0.72311195876E+03 -0.12279440732E+04  0.24255546264E+04  0.00000000000E+00 0.  1.
<mgrwt>
<rscale>  0 0.42530684E+04</rscale>
<asrwt>0</asrwt>
<pdfrwt beam="1">  1        2 0.47727030E+00 0.42530684E+04</pdfrwt>
<pdfrwt beam="2">  1       -2 0.22426093E+00 0.42530684E+04</pdfrwt>
<totfact> 0.10761078E-01</totfact>
</mgrwt>
</event>
<event>
 6    1  0.1588846E-005  0.4502321E+04  0.7818608E-02  0.7910231E-01
         -1   -1    0    0    0  501 -0.00000000000E+00  0.00000000000E+00  0.31043646519E+04  0.31043646519E+04  0.00000000000E+00 0.  1.
          1   -1    0    0  501    0  0.00000000000E+00 -0.00000000000E+00 -0.16324508084E+04  0.16324508084E+04  0.00000000000E+00 0. -1.
         23    2    1    2    0    0 -0.16479689011E+04 -0.53287253743E+03  0.22476655327E+04  0.28390416794E+04  0.91666080095E+02 0.  0.
         11    1    3    3    0    0 -0.10122666968E+04 -0.33963798123E+03  0.14552178644E+04  0.18049090992E+04  0.00000000000E+00 0.  1.
        -11    1    3    3    0    0 -0.63570220436E+03 -0.19323455620E+03  0.79244766837E+03  0.10341325802E+04  0.00000000000E+00 0. -1.
         22    1    1    2    0    0  0.16479689011E+04  0.53287253743E+03 -0.77575168923E+03  0.18977737809E+04  0.00000000000E+00 0. -1.
<mgrwt>
<rscale>  0 0.45023206E+04</rscale>
<asrwt>0</asrwt>
<pdfrwt beam="1">  1        1 0.25114628E+00 0.45023206E+04</pdfrwt>
<pdfrwt beam="2">  1       -1 0.47759456E+00 0.45023206E+04</pdfrwt>
<totfact> 0.83670551E-03</totfact>
</mgrwt>
</event>
<event>
 6    1  0.1588846E-005  0.1553130E+04  0.7818608E-02  0.8849871E-01
         -2   -1    0    0    0  501 -0.00000000000E+00  0.00000000000E+00  0.13349852284E+04  0.13349852284E+04  0.00000000000E+00 0.  1.
          2   -1    0    0  501    0  0.00000000000E+00 -0.00000000000E+00 -0.45173050925E+03  0.45173050925E+03  0.00000000000E+00 0. -1.
         23    2    1    2    0    0  0.60924894674E+03 -0.38611929671E+03  0.76496211330E+03  0.10557810409E+04  0.96094646448E+02 0.  0.
         11    1    3    3    0    0  0.49084216864E+03 -0.28981528577E+03  0.54960150927E+03  0.79182116249E+03  0.00000000000E+00 0.  1.
        -11    1    3    3    0    0  0.11840677810E+03 -0.96304010942E+02  0.21536060403E+03  0.26395987838E+03  0.00000000000E+00 0. -1.
         22    1    1    2    0    0 -0.60924894674E+03  0.38611929671E+03  0.11829260588E+03  0.73093469681E+03  0.00000000000E+00 0. -1.
<mgrwt>
<rscale>  0 0.15531305E+04</rscale>
<asrwt>0</asrwt>
<pdfrwt beam="1">  1        2 0.69497002E-01 0.15531305E+04</pdfrwt>
<pdfrwt beam="2">  1       -2 0.20538234E+00 0.15531305E+04</pdfrwt>
<totfact> 0.81656092E+00</totfact>
</mgrwt>
</event>
<event>
 6    1  0.1588846E-005  0.1415671E+04  0.7818608E-02  0.8942552E-01
         -1   -1    0    0    0  501 -0.00000000000E+00  0.00000000000E+00  0.20947415483E+03  0.20947415483E+03  0.00000000000E+00 0.  1.
          1   -1    0    0  501    0  0.00000000000E+00 -0.00000000000E+00 -0.23918526128E+04  0.23918526128E+04  0.00000000000E+00 0. -1.
         23    2    1    2    0    0 -0.63769204053E+03  0.16205582945E+02 -0.53668466120E+03  0.83632766503E+03  0.67080386419E+02 0.  0.
         13    1    3    3    0    0 -0.44776695925E+03  0.22466480830E+02 -0.33856688073E+03  0.56180737383E+03  0.00000000000E+00 0. -1.
        -13    1    3    3    0    0 -0.18992508128E+03 -0.62608978846E+01 -0.19811778047E+03  0.27452029120E+03  0.00000000000E+00 0.  1.
         22    1    1    2    0    0  0.63769204053E+03 -0.16205582945E+02 -0.16456937967E+04  0.17649991026E+04  0.00000000000E+00 0.  1.
<mgrwt>
<rscale>  0 0.14156713E+04</rscale>
<asrwt>0</asrwt>
<pdfrwt beam="1">  1        1 0.36797732E+00 0.14156713E+04</pdfrwt>
<pdfrwt beam="2">  1       -1 0.32226793E-01 0.14156713E+04</pdfrwt>
<totfact> 0.14130744E+01</totfact>
</mgrwt>
</event>
<event>
 6    1  0.1588846E-005  0.4690902E+04  0.7818608E-02  0.7878042E-01
         -2   -1    0    0    0  501 -0.00000000000E+00  0.00000000000E+00  0.29509627985E+04  0.29509627985E+04  0.00000000000E+00 0. -1.
          2   -1    0    0  501    0  0.00000000000E+00 -0.00000000000E+00 -0.18641848746E+04  0.18641848746E+04  0.00000000000E+00 0.  1.
         23    2    1    2    0    0  0.22814991706E+04 -0.36279208688E+03  0.95446510441E+03  0.25011979663E+04  0.90172429660E+02 0.  0.
         13    1    3    3    0    0  0.11891731868E+04 -0.16011232066E+03  0.53322136624E+03  0.13130475425E+04  0.00000000000E+00 0. -1.
        -13    1    3    3    0    0  0.10923259838E+04 -0.20267976622E+03  0.42124373818E+03  0.11881504238E+04  0.00000000000E+00 0.  1.
         22    1    1    2    0    0 -0.22814991706E+04  0.36279208688E+03  0.13231281944E+03  0.23139497069E+04  0.00000000000E+00 0. -1.
<mgrwt>
<rscale>  0 0.46909019E+04</rscale>
<asrwt>0</asrwt>
<pdfrwt beam="1">  1        2 0.28679767E+00 0.46909019E+04</pdfrwt>
<pdfrwt beam="2">  1       -2 0.45399428E+00 0.46909019E+04</pdfrwt>
<totfact> 0.19412142E-02</totfact>
</mgrwt>
</event>
<event>
 6    1  0.1588846E-005  0.8686584E+03  0.7818608E-02  0.9465631E-01
          1   -1    0    0  501    0  0.00000000000E+00  0.00000000000E+00  0.77369109707E+03  0.77369109707E+03  0.00000000000E+00 0. -1.
         -1   -1    0    0    0  501 -0.00000000000E+00 -0.00000000000E+00 -0.24382065549E+03  0.24382065549E+03  0.00000000000E+00 0.  1.
         23    2    1    2    0    0  0.13794091586E+03  0.35828141776E+03  0.49371851637E+03  0.63189506170E+03  0.90222641387E+02 0.  0.
         11    1    3    3    0    0  0.82571546578E+02  0.11997418872E+03  0.22939713591E+03  0.27172580339E+03  0.00000000000E+00 0. -1.
        -11    1    3    3    0    0  0.55369369280E+02  0.23830722904E+03  0.26432138046E+03  0.36016925831E+03  0.00000000000E+00 0.  1.
         22    1    1    2    0    0 -0.13794091586E+03 -0.35828141776E+03  0.36151925212E+02  0.38561669086E+03  0.00000000000E+00 0.  1.
<mgrwt>
<rscale>  0 0.86865844E+03</rscale>
<asrwt>0</asrwt>
<pdfrwt beam="1">  1        1 0.11902940E+00 0.86865844E+03</pdfrwt>
<pdfrwt beam="2">  1       -1 0.37510870E-01 0.86865844E+03</pdfrwt>
<totfact> 0.16096964E+02</totfact>
</mgrwt>
</event>
<event>
 6    1  0.1588846E-005  0.1806955E+04  0.7818608E-02  0.8702609E-01
          2   -1    0    0  501    0  0.00000000000E+00  0.00000000000E+00  0.50563860774E+03  0.50563860774E+03  0.00000000000E+00 0. -1.
         -2   -1    0    0    0  501 -0.00000000000E+00 -0.00000000000E+00 -0.16143387087E+04  0.16143387087E+04  0.00000000000E+00 0.  1.
         23    2    1    2    0    0 -0.69112867520E+03 -0.19744404713E+03 -0.11935472906E+04  0.13962079865E+04  0.90546172461E+02 0.  0.
         13    1    3    3    0    0 -0.33294132643E+03 -0.48161897439E+02 -0.55255629852E+03  0.64690645246E+03  0.00000000000E+00 0.  1.
        -13    1    3    3    0    0 -0.35818734877E+03 -0.14928214969E+03 -0.64099099205E+03  0.74930153404E+03  0.00000000000E+00 0. -1.
         22    1    1    2    0    0  0.69112867520E+03  0.19744404713E+03  0.84847189563E+02  0.72376932997E+03  0.00000000000E+00 0. -1.
<mgrwt>
<rscale>  0 0.18069554E+04</rscale>
<asrwt>0</asrwt>
<pdfrwt beam="1">  1        2 0.77790553E-01 0.18069554E+04</pdfrwt>
<pdfrwt beam="2">  1       -2 0.24835981E+00 0.18069554E+04</pdfrwt>
<totfact> 0.37715693E+00</totfact>
</mgrwt>
</event>
<event>
 6    1  0.1588846E-005  0.1667961E+04  0.7818608E-02  0.8779851E-01
          1   -1    0    0  501    0  0.00000000000E+00  0.00000000000E+00  0.15753953579E+04  0.15753953579E+04  0.00000000000E+00 0. -1.
         -1   -1    0    0    0  501 -0.00000000000E+00 -0.00000000000E+00 -0.44149143588E+03  0.44149143588E+03  0.00000000000E+00 0.  1.
         23    2    1    2    0    0 -0.36608623638E+03  0.47120093984E+03 -0.12917269990E+03  0.61995729985E+03  0.10775903235E+03 0.  0.
         11    1    3    3    0    0 -0.18964833635E+03  0.16301018692E+03 -0.34616835704E+02  0.25246215129E+03  0.00000000000E+00 0.  1.
        -11    1    3    3    0    0 -0.17643790003E+03  0.30819075292E+03 -0.94555864199E+02  0.36749514855E+03  0.00000000000E+00 0. -1.
         22    1    1    2    0    0  0.36608623638E+03 -0.47120093984E+03  0.12630766220E+04  0.13969294940E+04  0.00000000000E+00 0.  1.
<mgrwt>
<rscale>  0 0.16679611E+04</rscale>
<asrwt>0</asrwt>
<pdfrwt beam="1">  1        1 0.24236851E+00 0.16679611E+04</pdfrwt>
<pdfrwt beam="2">  1       -1 0.67921760E-01 0.16679611E+04</pdfrwt>
<totfact> 0.12149239E+01</totfact>
</mgrwt>
</event>
<event>
 6    1  0.1588846E-005  0.6545715E+03  0.7818608E-02  0.9798239E-01
         -2   -1    0    0    0  501 -0.00000000000E+00  0.00000000000E+00  0.13607920823E+03  0.13607920823E+03  0.00000000000E+00 0.  1.
          2   -1    0    0  501    0  0.00000000000E+00 -0.00000000000E+00 -0.78715894609E+03  0.78715894609E+03  0.00000000000E+00 0. -1.
         23    2    1    2    0    0 -0.23825029629E+03  0.21480053332E+03 -0.34711966375E+03  0.48131712127E+03  0.90948542961E+02 0.  0.
         11    1    3    3    0    0 -0.46475404758E+02  0.12874588910E+02 -0.21348327704E+02  0.52739637682E+02  0.00000000000E+00 0.  1.
        -11    1    3    3    0    0 -0.19177489153E+03  0.20192594441E+03 -0.32577133605E+03  0.42857748359E+03  0.00000000000E+00 0. -1.
         22    1    1    2    0    0  0.23825029629E+03 -0.21480053332E+03 -0.30396007411E+03  0.44192103305E+03  0.00000000000E+00 0.  1.
<mgrwt>
<rscale>  0 0.65457151E+03</rscale>
<asrwt>0</asrwt>
<pdfrwt beam="1">  1        2 0.12110137E+00 0.65457151E+03</pdfrwt>
<pdfrwt beam="2">  1       -2 0.20935263E-01 0.65457151E+03</pdfrwt>
<totfact> 0.69702512E+02</totfact>
</mgrwt>
</event>
<event>
 6    1  0.1588846E-005  0.2015684E+04  0.7818608E-02  0.8599323E-01
         -1   -1    0    0    0  501 -0.00000000000E+00  0.00000000000E+00  0.12540562092E+04  0.12540562092E+04  0.00000000000E+00 0.  1.
          1   -1    0    0  501    0  0.00000000000E+00 -0.00000000000E+00 -0.80996820079E+03  0.80996820079E+03  0.00000000000E+00 0. -1.
         23    2    1    2    0    0  0.23536194072E+03 -0.53234595672E+03 -0.61741038611E+03  0.85341865157E+03  0.91325512276E+02 0.  0.
         11    1    3    3    0    0  0.10029509501E+03 -0.15286388959E+03 -0.23749497780E+03  0.29971709879E+03  0.00000000000E+00 0.  1.
        -11    1    3    3    0    0  0.13506684570E+03 -0.37948206713E+03 -0.37991540831E+03  0.55370155278E+03  0.00000000000E+00 0. -1.
         22    1    1    2    0    0 -0.23536194072E+03  0.53234595672E+03  0.10614983945E+04  0.12106057584E+04  0.00000000000E+00 0.  1.
<mgrwt>
<rscale>  0 0.20156842E+04</rscale>
<asrwt>0</asrwt>
<pdfrwt beam="1">  1        1 0.12461049E+00 0.20156842E+04</pdfrwt>
<pdfrwt beam="2">  1       -1 0.19293172E+00 0.20156842E+04</pdfrwt>
<totfact> 0.33833144E+00</totfact>
</mgrwt>
</event>
<event>
 6    1  0.1588846E-005  0.2438459E+04  0.7818608E-02  0.8425244E-01
         -2   -1    0    0    0  501 -0.00000000000E+00  0.00000000000E+00  0.66552712857E+03  0.66552712857E+03  0.00000000000E+00 0.  1.
          2   -1    0    0  501    0  0.00000000000E+00 -0.00000000000E+00 -0.22335988942E+04  0.22335988942E+04  0.00000000000E+00 0. -1.
         23    2    1    2    0    0  0.45749081938E+03 -0.10451136155E+04 -0.27970521097E+03  0.11782400015E+04  0.91946598223E+02 0.  0.
         13    1    3    3    0    0  0.25236160313E+03 -0.62572365343E+03 -0.12331126470E+03  0.68587326614E+03  0.00000000000E+00 0.  1.
        -13    1    3    3    0    0  0.20512921625E+03 -0.41938996207E+03 -0.15639394628E+03  0.49236673534E+03  0.00000000000E+00 0. -1.
         22    1    1    2    0    0 -0.45749081938E+03  0.10451136155E+04 -0.12883665547E+04  0.17208860213E+04  0.00000000000E+00 0. -1.
<mgrwt>
<rscale>  0 0.24384591E+04</rscale>
<asrwt>0</asrwt>
<pdfrwt beam="1">  1        2 0.34363060E+00 0.24384591E+04</pdfrwt>
<pdfrwt beam="2">  1       -2 0.10238879E+00 0.24384591E+04</pdfrwt>
<totfact> 0.34595639E+00</totfact>
</mgrwt>
</event>
<event>
 6    1  0.1588846E-005  0.2011493E+04  0.7818608E-02  0.8601266E-01
         -1   -1    0    0    0  501 -0.00000000000E+00  0.00000000000E+00  0.96703018189E+03  0.96703018189E+03  0.00000000000E+00 0.  1.
          1   -1    0    0  501    0  0.00000000000E+00 -0.00000000000E+00 -0.10460126401E+04  0.10460126401E+04  0.00000000000E+00 0. -1.
         23    2    1    2    0    0 -0.43245954001E+03  0.73744218941E+03  0.48688568355E+03  0.98783601831E+03  0.88994908605E+02 0.  0.
         13    1    3    3    0    0 -0.26363395325E+03  0.50274358868E+03  0.35928279774E+03  0.67181701826E+03  0.00000000000E+00 0. -1.
        -13    1    3    3    0    0 -0.16882558675E+03  0.23469860073E+03  0.12760288581E+03  0.31601900005E+03  0.00000000000E+00 0.  1.
         22    1    1    2    0    0  0.43245954001E+03 -0.73744218941E+03 -0.56586814178E+03  0.10252068037E+04  0.00000000000E+00 0. -1.
<mgrwt>
<rscale>  0 0.20114928E+04</rscale>
<asrwt>0</asrwt>
<pdfrwt beam="1">  1        1 0.16092502E+00 0.20114928E+04</pdfrwt>
<pdfrwt beam="2">  1       -1 0.14877387E+00 0.20114928E+04</pdfrwt>
<totfact> 0.46075970E+00</totfact>
</mgrwt>
</event>
<event>
 6    1  0.1588846E-005  0.2291265E+04  0.7818608E-02  0.8481373E-01
          1   -1    0    0  501    0  0.00000000000E+00  0.00000000000E+00  0.80047021677E+03  0.80047021677E+03  0.00000000000E+00 0. -1.
         -1   -1    0    0    0  501 -0.00000000000E+00 -0.00000000000E+00 -0.16396279733E+04  0.16396279733E+04  0.00000000000E+00 0.  1.
         23    2    1    2    0    0 -0.14428860420E+03 -0.48027219483E+03  0.67466094707E+03  0.84537951587E+03  0.89546356301E+02 0.  0.
         11    1    3    3    0    0 -0.21383152214E+02 -0.20914810655E+03  0.31143384351E+03  0.37575418635E+03  0.00000000000E+00 0.  1.
        -11    1    3    3    0    0 -0.12290545199E+03 -0.27112408828E+03  0.36322710356E+03  0.46962532953E+03  0.00000000000E+00 0. -1.
         22    1    1    2    0    0  0.14428860420E+03  0.48027219483E+03 -0.15138187036E+04  0.15947186742E+04  0.00000000000E+00 0.  1.
<mgrwt>
<rscale>  0 0.22912646E+04</rscale>
<asrwt>0</asrwt>
<pdfrwt beam="1">  1        1 0.12314926E+00 0.22912646E+04</pdfrwt>
<pdfrwt beam="2">  1       -1 0.25225046E+00 0.22912646E+04</pdfrwt>
<totfact> 0.13466035E+00</totfact>
</mgrwt>
</event>
<event>
 6    1  0.1588846E-005  0.3245520E+04  0.7818608E-02  0.8176898E-01
         -1   -1    0    0    0  501 -0.00000000000E+00  0.00000000000E+00  0.10707711902E+04  0.10707711902E+04  0.00000000000E+00 0.  1.
          1   -1    0    0  501    0  0.00000000000E+00 -0.00000000000E+00 -0.24593025741E+04  0.24593025741E+04  0.00000000000E+00 0. -1.
         23    2    1    2    0    0 -0.14560995370E+04  0.51835902732E+03 -0.16178331392E+03  0.15567940654E+04  0.92260384652E+02 0.  0.
         11    1    3    3    0    0 -0.90925302003E+03  0.35719506941E+03 -0.70580934440E+02  0.97944425076E+03  0.00000000000E+00 0.  1.
        -11    1    3    3    0    0 -0.54684651694E+03  0.16116395791E+03 -0.91202379475E+02  0.57734981462E+03  0.00000000000E+00 0. -1.
         22    1    1    2    0    0  0.14560995370E+04 -0.51835902732E+03 -0.12267480701E+04  0.19732796989E+04  0.00000000000E+00 0.  1.
<mgrwt>
<rscale>  0 0.32455202E+04</rscale>
<asrwt>0</asrwt>
<pdfrwt beam="1">  1        1 0.37835423E+00 0.32455202E+04</pdfrwt>
<pdfrwt beam="2">  1       -1 0.16473403E+00 0.32455202E+04</pdfrwt>
<totfact> 0.32427898E-01</totfact>
</mgrwt>
</event>
<event>
 6    1  0.1588846E-005  0.1392512E+04  0.7818608E-02  0.8959256E-01
          2   -1    0    0  501    0  0.00000000000E+00  0.00000000000E+00  0.26127822200E+04  0.26127822200E+04  0.00000000000E+00 0. -1.
         -2   -1    0    0    0  501 -0.00000000000E+00 -0.00000000000E+00 -0.18553890779E+03  0.18553890779E+03  0.00000000000E+00 0.  1.
         23    2    1    2    0    0 -0.60590629452E+03  0.32743802627E+03  0.13776861062E+04  0.15429692140E+04  0.91634542265E+02 0.  0.
         11    1    3    3    0    0 -0.35358036399E+03  0.16115960157E+03  0.69168499498E+03  0.79335970609E+03  0.00000000000E+00 0.  1.
        -11    1    3    3    0    0 -0.25232593053E+03  0.16627842470E+03  0.68600111119E+03  0.74960950788E+03  0.00000000000E+00 0. -1.
         22    1    1    2    0    0  0.60590629452E+03 -0.32743802627E+03  0.10495572061E+04  0.12553519138E+04  0.00000000000E+00 0.  1.
<mgrwt>
<rscale>  0 0.13925125E+04</rscale>
<asrwt>0</asrwt>
<pdfrwt beam="1">  1        2 0.40196647E+00 0.13925125E+04</pdfrwt>
<pdfrwt beam="2">  1       -2 0.28544449E-01 0.13925125E+04</pdfrwt>
<totfact> 0.32922140E+01</totfact>
</mgrwt>
</event>
<event>
 6    1  0.1588846E-005  0.1673519E+04  0.7818608E-02  0.8776613E-01
         -1   -1    0    0    0  501 -0.00000000000E+00  0.00000000000E+00  0.36308128382E+03  0.36308128382E+03  0.00000000000E+00 0.  1.
          1   -1    0    0  501    0  0.00000000000E+00 -0.00000000000E+00 -0.19284017253E+04  0.19284017253E+04  0.00000000000E+00 0. -1.
         23    2    1    2    0    0 -0.41971159944E+03  0.34517528719E+03 -0.16517451576E+04  0.17412348495E+04  0.91284882989E+02 0.  0.
         11    1    3    3    0    0 -0.47282437078E+02  0.25417022201E+02 -0.97272760037E+02  0.11110195191E+03  0.00000000000E+00 0. -1.
        -11    1    3    3    0    0 -0.37242916236E+03  0.31975826499E+03 -0.15544723976E+04  0.16301328976E+04  0.00000000000E+00 0.  1.
         22    1    1    2    0    0  0.41971159944E+03 -0.34517528719E+03  0.86424716126E+02  0.55024815961E+03  0.00000000000E+00 0.  1.
<mgrwt>
<rscale>  0 0.16735191E+04</rscale>
<asrwt>0</asrwt>
<pdfrwt beam="1">  1        1 0.29667720E+00 0.16735191E+04</pdfrwt>
<pdfrwt beam="2">  1       -1 0.55858658E-01 0.16735191E+04</pdfrwt>
<totfact> 0.10306480E+01</totfact>
</mgrwt>
</event>
<event>
 6    1  0.1588846E-005  0.1424647E+04  0.7818608E-02  0.8936168E-01
          1   -1    0    0  501    0  0.00000000000E+00  0.00000000000E+00  0.17862160930E+04  0.17862160930E+04  0.00000000000E+00 0. -1.
         -1   -1    0    0    0  501 -0.00000000000E+00 -0.00000000000E+00 -0.28406687409E+03  0.28406687409E+03  0.00000000000E+00 0.  1.
         23    2    1    2    0    0 -0.65255832083E+03 -0.27009253982E+03  0.65541741063E+03  0.96767827940E+03  0.89704671643E+02 0.  0.
         11    1    3    3    0    0 -0.33741356780E+03 -0.10418750625E+03  0.36795041138E+03  0.50999064445E+03  0.00000000000E+00 0. -1.
        -11    1    3    3    0    0 -0.31514475303E+03 -0.16590503357E+03  0.28746699925E+03  0.45768763495E+03  0.00000000000E+00 0.  1.
         22    1    1    2    0    0  0.65255832083E+03  0.27009253982E+03  0.84673180828E+03  0.11026046877E+04  0.00000000000E+00 0.  1.
<mgrwt>
<rscale>  0 0.14246471E+04</rscale>
<asrwt>0</asrwt>
<pdfrwt beam="1">  1        1 0.27480247E+00 0.14246471E+04</pdfrwt>
<pdfrwt beam="2">  1       -1 0.43702597E-01 0.14246471E+04</pdfrwt>
<totfact> 0.20959555E+01</totfact>
</mgrwt>
</event>
<event>
 6    1  0.1588846E-005  0.7533459E+03  0.7818608E-02  0.9630116E-01
          2   -1    0    0  501    0  0.00000000000E+00  0.00000000000E+00  0.40129932066E+03  0.40129932066E+03  0.00000000000E+00 0. -1.
         -2   -1    0    0    0  501 -0.00000000000E+00 -0.00000000000E+00 -0.35355781551E+03  0.35355781551E+03  0.00000000000E+00 0.  1.
         23    2    1    2    0    0 -0.35774194575E+03 -0.79245113397E+02  0.84740250278E+02  0.38658007350E+03  0.89465945850E+02 0.  0.
         11    1    3    3    0    0 -0.24086264516E+03 -0.56226693760E+02  0.13342614470E+02  0.24769796182E+03  0.00000000000E+00 0. -1.
        -11    1    3    3    0    0 -0.11687930059E+03 -0.23018419636E+02  0.71397635808E+02  0.13888211169E+03  0.00000000000E+00 0.  1.
         22    1    1    2    0    0  0.35774194575E+03  0.79245113397E+02 -0.36998745120E+02  0.36827706267E+03  0.00000000000E+00 0. -1.
<mgrwt>
<rscale>  0 0.75334590E+03</rscale>
<asrwt>0</asrwt>
<pdfrwt beam="1">  1        2 0.61738357E-01 0.75334590E+03</pdfrwt>
<pdfrwt beam="2">  1       -2 0.54393510E-01 0.75334590E+03</pdfrwt>
<totfact> 0.25423638E+02</totfact>
</mgrwt>
</event>
<event>
 6    1  0.1588846E-005  0.1233453E+04  0.7818608E-02  0.9084068E-01
          2   -1    0    0  501    0  0.00000000000E+00  0.00000000000E+00  0.10938617266E+04  0.10938617266E+04  0.00000000000E+00 0.  1.
         -2   -1    0    0    0  501 -0.00000000000E+00 -0.00000000000E+00 -0.34771474040E+03  0.34771474040E+03  0.00000000000E+00 0. -1.
         23    2    1    2    0    0 -0.49085274005E+03 -0.21702391828E+03  0.27993944938E+02  0.54503891385E+03  0.90818297411E+02 0.  0.
         13    1    3    3    0    0 -0.92839798680E+02 -0.24231766117E+02  0.36636775962E+02  0.10270666999E+03  0.00000000000E+00 0.  1.
        -13    1    3    3    0    0 -0.39801294137E+03 -0.19279215217E+03 -0.86428310244E+01  0.44233224386E+03  0.00000000000E+00 0. -1.
         22    1    1    2    0    0  0.49085274005E+03  0.21702391828E+03  0.71815304123E+03  0.89653755312E+03  0.00000000000E+00 0.  1.
<mgrwt>
<rscale>  0 0.12334534E+04</rscale>
<asrwt>0</asrwt>
<pdfrwt beam="1">  1        2 0.16828642E+00 0.12334534E+04</pdfrwt>
<pdfrwt beam="2">  1       -2 0.53494576E-01 0.12334534E+04</pdfrwt>
<totfact> 0.71256221E+01</totfact>
</mgrwt>
</event>
<event>
 6    1  0.1588846E-005  0.2676036E+04  0.7818608E-02  0.8342823E-01
          2   -1    0    0  501    0  0.00000000000E+00  0.00000000000E+00  0.12342325580E+04  0.12342325580E+04  0.00000000000E+00 0. -1.
         -2   -1    0    0    0  501 -0.00000000000E+00 -0.00000000000E+00 -0.14505306978E+04  0.14505306978E+04  0.00000000000E+00 0.  1.
         23    2    1    2    0    0 -0.43412116571E+03  0.33868102759E+03  0.11130090581E+04  0.12459360766E+04  0.10198783461E+03 0.  0.
         13    1    3    3    0    0 -0.19848138080E+03  0.12370117626E+03  0.57093171269E+03  0.61697638536E+03  0.00000000000E+00 0. -1.
        -13    1    3    3    0    0 -0.23563978490E+03  0.21497985133E+03  0.54207734545E+03  0.62895969120E+03  0.00000000000E+00 0.  1.
         22    1    1    2    0    0  0.43412116571E+03 -0.33868102759E+03 -0.13293071979E+04  0.14388271791E+04  0.00000000000E+00 0.  1.
<mgrwt>
<rscale>  0 0.26760360E+04</rscale>
<asrwt>0</asrwt>
<pdfrwt beam="1">  1        2 0.18988193E+00 0.26760360E+04</pdfrwt>
<pdfrwt beam="2">  1       -2 0.22315857E+00 0.26760360E+04</pdfrwt>
<totfact> 0.14994643E+00</totfact>
</mgrwt>
</event>
<event>
 6    1  0.1588846E-005  0.2249444E+04  0.7818608E-02  0.8498126E-01
         -2   -1    0    0    0  501 -0.00000000000E+00  0.00000000000E+00  0.60837601785E+03  0.60837601785E+03  0.00000000000E+00 0. -1.
          2   -1    0    0  501    0  0.00000000000E+00 -0.00000000000E+00 -0.20793060196E+04  0.20793060196E+04  0.00000000000E+00 0.  1.
         23    2    1    2    0    0 -0.41583914516E+03 -0.43460284001E+03 -0.18694864703E+04  0.19661218655E+04  0.94094122683E+02 0.  0.
         13    1    3    3    0    0 -0.50249850864E+02 -0.65995980479E+02 -0.37389464785E+03  0.38298527992E+03  0.00000000000E+00 0.  1.
        -13    1    3    3    0    0 -0.36558929430E+03 -0.36860685953E+03 -0.14955918225E+04  0.15831365855E+04  0.00000000000E+00 0. -1.
         22    1    1    2    0    0  0.41583914516E+03  0.43460284001E+03  0.39855646856E+03  0.72156017200E+03  0.00000000000E+00 0. -1.
<mgrwt>
<rscale>  0 0.22494443E+04</rscale>
<asrwt>0</asrwt>
<pdfrwt beam="1">  1        2 0.31989324E+00 0.22494443E+04</pdfrwt>
<pdfrwt beam="2">  1       -2 0.93596309E-01 0.22494443E+04</pdfrwt>
<totfact> 0.53005077E+00</totfact>
</mgrwt>
</event>
<event>
 6    1  0.1588846E-005  0.6950903E+04  0.7818608E-02  0.7582520E-01
         -1   -1    0    0    0  501 -0.00000000000E+00  0.00000000000E+00  0.49336969145E+04  0.49336969145E+04  0.00000000000E+00 0.  1.
          1   -1    0    0  501    0  0.00000000000E+00 -0.00000000000E+00 -0.24482175928E+04  0.24482175928E+04  0.00000000000E+00 0. -1.
         23    2    1    2    0    0  0.32097307002E+03 -0.33980801641E+04  0.19364603360E+04  0.39248356305E+04  0.66959540894E+02 0.  0.
         11    1    3    3    0    0  0.20880417361E+03 -0.18654196348E+04  0.10733709223E+04  0.21622938593E+04  0.00000000000E+00 0. -1.
        -11    1    3    3    0    0  0.11216889641E+03 -0.15326605293E+04  0.86308941366E+03  0.17625417712E+04  0.00000000000E+00 0.  1.
         22    1    1    2    0    0 -0.32097307002E+03  0.33980801641E+04  0.54901898577E+03  0.34570788768E+04  0.00000000000E+00 0.  1.
<mgrwt>
<rscale>  0 0.69509031E+04</rscale>
<asrwt>0</asrwt>
<pdfrwt beam="1">  1        1 0.37664886E+00 0.69509031E+04</pdfrwt>
<pdfrwt beam="2">  1       -1 0.75903029E+00 0.69509031E+04</pdfrwt>
<totfact> 0.10778183E-04</totfact>
</mgrwt>
</event>
<event>
 6    1  0.1588846E-005  0.3408903E+04  0.7818608E-02  0.8135725E-01
          2   -1    0    0  501    0  0.00000000000E+00  0.00000000000E+00  0.36092319419E+04  0.36092319419E+04  0.00000000000E+00 0. -1.
         -2   -1    0    0    0  501 -0.00000000000E+00 -0.00000000000E+00 -0.80492333434E+03  0.80492333434E+03  0.00000000000E+00 0.  1.
         23    2    1    2    0    0 -0.11369364080E+04  0.31264500301E+03  0.29946747476E+04  0.32197472384E+04  0.91236732921E+02 0.  0.
         13    1    3    3    0    0 -0.97185739225E+03  0.25703695572E+03  0.26308683884E+04  0.28163883370E+04  0.00000000000E+00 0.  1.
        -13    1    3    3    0    0 -0.16507901575E+03  0.55608047297E+02  0.36380635916E+03  0.40335890139E+03  0.00000000000E+00 0. -1.
         22    1    1    2    0    0  0.11369364080E+04 -0.31264500301E+03 -0.19036614000E+03  0.11944080379E+04  0.00000000000E+00 0.  1.
<mgrwt>
<rscale>  0 0.34089031E+04</rscale>
<asrwt>0</asrwt>
<pdfrwt beam="1">  1        2 0.55526644E+00 0.34089031E+04</pdfrwt>
<pdfrwt beam="2">  1       -2 0.12383436E+00 0.34089031E+04</pdfrwt>
<totfact> 0.27582243E-01</totfact>
</mgrwt>
</event>
<event>
 6    1  0.1588846E-005  0.2433462E+04  0.7818608E-02  0.8427081E-01
          1   -1    0    0  501    0  0.00000000000E+00  0.00000000000E+00  0.15377193046E+04  0.15377193046E+04  0.00000000000E+00 0. -1.
         -1   -1    0    0    0  501 -0.00000000000E+00 -0.00000000000E+00 -0.96274661110E+03  0.96274661110E+03  0.00000000000E+00 0.  1.
         23    2    1    2    0    0  0.58027022979E+03  0.10506501638E+04  0.48208933380E+03  0.12966359340E+04  0.90968748366E+02 0.  0.
         11    1    3    3    0    0  0.15944433250E+03  0.35633699850E+03  0.18613259843E+03  0.43248571753E+03  0.00000000000E+00 0.  1.
        -11    1    3    3    0    0  0.42082589728E+03  0.69431316533E+03  0.29595673537E+03  0.86415021645E+03  0.00000000000E+00 0. -1.
         22    1    1    2    0    0 -0.58027022979E+03 -0.10506501638E+04  0.92883359683E+02  0.12038299817E+04  0.00000000000E+00 0. -1.
<mgrwt>
<rscale>  0 0.24334618E+04</rscale>
<asrwt>0</asrwt>
<pdfrwt beam="1">  1        1 0.23657220E+00 0.24334618E+04</pdfrwt>
<pdfrwt beam="2">  1       -1 0.14811486E+00 0.24334618E+04</pdfrwt>
<totfact> 0.19869116E+00</totfact>
</mgrwt>
</event>
<event>
 6    1  0.1588846E-005  0.1247169E+04  0.7818608E-02  0.9072543E-01
          1   -1    0    0  501    0  0.00000000000E+00  0.00000000000E+00  0.20655864299E+04  0.20655864299E+04  0.00000000000E+00 0. -1.
         -1   -1    0    0    0  501 -0.00000000000E+00 -0.00000000000E+00 -0.18825537896E+03  0.18825537896E+03  0.00000000000E+00 0.  1.
         23    2    1    2    0    0 -0.54032470341E+03 -0.42409293791E+02  0.39937708227E+03  0.67964446836E+03  0.93087143158E+02 0.  0.
         13    1    3    3    0    0 -0.20874181979E+03 -0.16958086960E+02  0.21168092420E+03  0.29777430668E+03  0.00000000000E+00 0.  1.
        -13    1    3    3    0    0 -0.33158288361E+03 -0.25451206831E+02  0.18769615807E+03  0.38187016169E+03  0.00000000000E+00 0. -1.
         22    1    1    2    0    0  0.54032470341E+03  0.42409293791E+02  0.14779539687E+04  0.15741973405E+04  0.00000000000E+00 0. -1.
<mgrwt>
<rscale>  0 0.12471692E+04</rscale>
<asrwt>0</asrwt>
<pdfrwt beam="1">  1        1 0.31778251E+00 0.12471692E+04</pdfrwt>
<pdfrwt beam="2">  1       -1 0.28962367E-01 0.12471692E+04</pdfrwt>
<totfact> 0.28849110E+01</totfact>
</mgrwt>
</event>
<event>
 6    1  0.1588846E-005  0.1536986E+04  0.7818608E-02  0.8860224E-01
         -2   -1    0    0    0  501 -0.00000000000E+00  0.00000000000E+00  0.36807443277E+03  0.36807443277E+03  0.00000000000E+00 0.  1.
          2   -1    0    0  501    0  0.00000000000E+00 -0.00000000000E+00 -0.16045157330E+04  0.16045157330E+04  0.00000000000E+00 0. -1.
         23    2    1    2    0    0  0.49441209029E+03 -0.57477795392E+03 -0.48262244829E+03  0.90345225470E+03  0.92133259961E+02 0.  0.
         11    1    3    3    0    0  0.21458002161E+03 -0.26779694820E+03 -0.16627492627E+03  0.38132288450E+03  0.00000000000E+00 0.  1.
        -11    1    3    3    0    0  0.27983206868E+03 -0.30698100572E+03 -0.31634752202E+03  0.52212937020E+03  0.00000000000E+00 0. -1.
         22    1    1    2    0    0 -0.49441209029E+03  0.57477795392E+03 -0.75381885189E+03  0.10691379110E+04  0.00000000000E+00 0. -1.
<mgrwt>
<rscale>  0 0.15369856E+04</rscale>
<asrwt>0</asrwt>
<pdfrwt beam="1">  1        2 0.24684857E+00 0.15369856E+04</pdfrwt>
<pdfrwt beam="2">  1       -2 0.56626836E-01 0.15369856E+04</pdfrwt>
<totfact> 0.31246521E+01</totfact>
</mgrwt>
</event>
<event>
 6    1  0.1588846E-005  0.1334256E+04  0.7818608E-02  0.9002833E-01
         -1   -1    0    0    0  501 -0.00000000000E+00  0.00000000000E+00  0.28070601548E+03  0.28070601548E+03  0.00000000000E+00 0.  1.
          1   -1    0    0  501    0  0.00000000000E+00 -0.00000000000E+00 -0.15855002916E+04  0.15855002916E+04  0.00000000000E+00 0. -1.
         23    2    1    2    0    0 -0.30217596574E+03  0.14760228189E+03  0.14583798027E+03  0.37710231771E+03  0.88547691339E+02 0.  0.
         11    1    3    3    0    0 -0.98968759131E+02  0.45751899913E+01  0.47245254472E+02  0.10976275196E+03  0.00000000000E+00 0.  1.
        -11    1    3    3    0    0 -0.20320720661E+03  0.14302709190E+03  0.98592725794E+02  0.26733956575E+03  0.00000000000E+00 0. -1.
         22    1    1    2    0    0  0.30217596574E+03 -0.14760228189E+03 -0.14506322564E+04  0.14891039893E+04  0.00000000000E+00 0. -1.
<mgrwt>
<rscale>  0 0.13342556E+04</rscale>
<asrwt>0</asrwt>
<pdfrwt beam="1">  1        1 0.24392312E+00 0.13342556E+04</pdfrwt>
<pdfrwt beam="2">  1       -1 0.43185541E-01 0.13342556E+04</pdfrwt>
<totfact> 0.29587576E+01</totfact>
</mgrwt>
</event>
<event>
 6    1  0.1588846E-005  0.6626577E+03  0.7818608E-02  0.9783314E-01
          1   -1    0    0  501    0  0.00000000000E+00  0.00000000000E+00  0.21356939900E+03  0.21356939900E+03  0.00000000000E+00 0. -1.
         -1   -1    0    0    0  501 -0.00000000000E+00 -0.00000000000E+00 -0.51401932582E+03  0.51401932582E+03  0.00000000000E+00 0.  1.
         23    2    1    2    0    0 -0.32133545926E+03  0.22745811095E+02 -0.19871657236E+03  0.38976698972E+03  0.93038598687E+02 0.  0.
         11    1    3    3    0    0 -0.21130129053E+03 -0.26270761479E+02 -0.10658585751E+03  0.23811537814E+03  0.00000000000E+00 0. -1.
        -11    1    3    3    0    0 -0.11003416873E+03  0.49016572575E+02 -0.92130714842E+02  0.15165161157E+03  0.00000000000E+00 0.  1.
         22    1    1    2    0    0  0.32133545926E+03 -0.22745811095E+02 -0.10173335447E+03  0.33782173511E+03  0.00000000000E+00 0. -1.
<mgrwt>
<rscale>  0 0.66265767E+03</rscale>
<asrwt>0</asrwt>
<pdfrwt beam="1">  1        1 0.32856831E-01 0.66265767E+03</pdfrwt>
<pdfrwt beam="2">  1       -1 0.79079895E-01 0.66265767E+03</pdfrwt>
<totfact> 0.22167392E+02</totfact>
</mgrwt>
</event>
<event>
 6    1  0.1588846E-005  0.3310319E+04  0.7818608E-02  0.8160275E-01
          2   -1    0    0  501    0  0.00000000000E+00  0.00000000000E+00  0.27600870672E+04  0.27600870672E+04  0.00000000000E+00 0.  1.
         -2   -1    0    0    0  501 -0.00000000000E+00 -0.00000000000E+00 -0.99256025953E+03  0.99256025953E+03  0.00000000000E+00 0. -1.
         23    2    1    2    0    0  0.44363269490E+03  0.13554876972E+04 -0.64888785810E+02  0.14306000033E+04  0.90823727814E+02 0.  0.
         13    1    3    3    0    0  0.15678232499E+03  0.38169894322E+03 -0.46703253754E+02  0.41527818940E+03  0.00000000000E+00 0.  1.
        -13    1    3    3    0    0  0.28685036991E+03  0.97378875398E+03 -0.18185532056E+02  0.10153218138E+04  0.00000000000E+00 0. -1.
         22    1    1    2    0    0 -0.44363269490E+03 -0.13554876972E+04  0.18324155935E+04  0.23220473235E+04  0.00000000000E+00 0.  1.
<mgrwt>
<rscale>  0 0.33103189E+04</rscale>
<asrwt>0</asrwt>
<pdfrwt beam="1">  1        2 0.42462878E+00 0.33103189E+04</pdfrwt>
<pdfrwt beam="2">  1       -2 0.15270158E+00 0.33103189E+04</pdfrwt>
<totfact> 0.58256272E-01</totfact>
</mgrwt>
</event>
<event>
 6    1  0.1772368E-005  0.2429754E+04  0.7818608E-02  0.8428447E-01
         -1   -1    0    0    0  501 -0.00000000000E+00  0.00000000000E+00  0.83637248968E+03  0.83637248968E+03  0.00000000000E+00 0.  1.
          1   -1    0    0  501    0  0.00000000000E+00 -0.00000000000E+00 -0.17646759077E+04  0.17646759077E+04  0.00000000000E+00 0. -1.
         23    2    1    2    0    0 -0.18195371322E+03  0.35433639411E+03  0.76173500786E+03  0.86470415879E+03  0.93870262000E+02 0.  0.
         11    1    3    3    0    0 -0.11334003099E+03  0.16922499872E+03  0.47237958762E+03  0.51441766845E+03  0.00000000000E+00 0. -1.
        -11    1    3    3    0    0 -0.68613682229E+02  0.18511139539E+03  0.28935542024E+03  0.35028649034E+03  0.00000000000E+00 0.  1.
         22    1    1    2    0    0  0.18195371322E+03 -0.35433639411E+03 -0.16900384259E+04  0.17363442386E+04  0.00000000000E+00 0. -1.
<mgrwt>
<rscale>  0 0.24297542E+04</rscale>
<asrwt>0</asrwt>
<pdfrwt beam="1">  1        1 0.27148860E+00 0.24297542E+04</pdfrwt>
<pdfrwt beam="2">  1       -1 0.12867269E+00 0.24297542E+04</pdfrwt>
<totfact> 0.20029082E+00</totfact>
</mgrwt>
</event>
<event>
 6    1  0.1588846E-005  0.1322185E+04  0.7818608E-02  0.9012155E-01
          2   -1    0    0  501    0  0.00000000000E+00  0.00000000000E+00  0.20599571498E+04  0.20599571498E+04  0.00000000000E+00 0. -1.
         -2   -1    0    0    0  501 -0.00000000000E+00 -0.00000000000E+00 -0.21216135964E+03  0.21216135964E+03  0.00000000000E+00 0.  1.
         23    2    1    2    0    0  0.46146891081E+02 -0.58890607296E+03  0.14263008442E+04  0.15464478625E+04  0.90702784052E+02 0.  0.
         11    1    3    3    0    0  0.18046556444E+01 -0.46841781657E+03  0.10849594032E+04  0.11817594570E+04  0.00000000000E+00 0.  1.
        -11    1    3    3    0    0  0.44342235436E+02 -0.12048825640E+03  0.34134144096E+03  0.36468840548E+03  0.00000000000E+00 0. -1.
         22    1    1    2    0    0 -0.46146891081E+02  0.58890607296E+03  0.42149494602E+03  0.72567064695E+03  0.00000000000E+00 0.  1.
<mgrwt>
<rscale>  0 0.13221850E+04</rscale>
<asrwt>0</asrwt>
<pdfrwt beam="1">  1        2 0.31691647E+00 0.13221850E+04</pdfrwt>
<pdfrwt beam="2">  1       -2 0.32640211E-01 0.13221850E+04</pdfrwt>
<totfact> 0.53037382E+01</totfact>
</mgrwt>
</event>
<event>
 6    1  0.1588846E-005  0.2633647E+04  0.7818608E-02  0.8356861E-01
          2   -1    0    0  501    0  0.00000000000E+00  0.00000000000E+00  0.15171063364E+04  0.15171063364E+04  0.00000000000E+00 0. -1.
         -2   -1    0    0    0  501 -0.00000000000E+00 -0.00000000000E+00 -0.11429812754E+04  0.11429812754E+04  0.00000000000E+00 0.  1.
         23    2    1    2    0    0 -0.33025531011E+03 -0.78522019304E+03  0.11995663722E+04  0.14739203893E+04  0.88557954649E+02 0.  0.
         11    1    3    3    0    0 -0.17320925340E+03 -0.44900470335E+03  0.74795138483E+03  0.88940313872E+03  0.00000000000E+00 0. -1.
        -11    1    3    3    0    0 -0.15704605670E+03 -0.33621548969E+03  0.45161498738E+03  0.58451725061E+03  0.00000000000E+00 0.  1.
         22    1    1    2    0    0  0.33025531011E+03  0.78522019304E+03 -0.82544131118E+03  0.11861672224E+04  0.00000000000E+00 0.  1.
<mgrwt>
<rscale>  0 0.26336470E+04</rscale>
<asrwt>0</asrwt>
<pdfrwt beam="1">  1        2 0.23340098E+00 0.26336470E+04</pdfrwt>
<pdfrwt beam="2">  1       -2 0.17584327E+00 0.26336470E+04</pdfrwt>
<totfact> 0.21228390E+00</totfact>
</mgrwt>
</event>
<event>
 6    1  0.1588846E-005  0.3034498E+04  0.7818608E-02  0.8233948E-01
          2   -1    0    0  501    0  0.00000000000E+00  0.00000000000E+00  0.13817036775E+04  0.13817036775E+04  0.00000000000E+00 0. -1.
         -2   -1    0    0    0  501 -0.00000000000E+00 -0.00000000000E+00 -0.16660908563E+04  0.16660908563E+04  0.00000000000E+00 0.  1.
         23    2    1    2    0    0 -0.84500193327E+03  0.11236773144E+04 -0.71145996760E+03  0.15784170667E+04  0.92445533902E+02 0.  0.
         11    1    3    3    0    0 -0.42856381216E+03  0.53319222570E+03 -0.39150998819E+03  0.78818840482E+03  0.00000000000E+00 0.  1.
        -11    1    3    3    0    0 -0.41643812112E+03  0.59048508867E+03 -0.31994997941E+03  0.79022866184E+03  0.00000000000E+00 0. -1.
         22    1    1    2    0    0  0.84500193327E+03 -0.11236773144E+04  0.42707278878E+03  0.14693774672E+04  0.00000000000E+00 0.  1.
<mgrwt>
<rscale>  0 0.30344976E+04</rscale>
<asrwt>0</asrwt>
<pdfrwt beam="1">  1        2 0.21256980E+00 0.30344976E+04</pdfrwt>
<pdfrwt beam="2">  1       -2 0.25632167E+00 0.30344976E+04</pdfrwt>
<totfact> 0.74363105E-01</totfact>
</mgrwt>
</event>
<event>
 6    1  0.1588846E-005  0.1834329E+04  0.7818608E-02  0.8688254E-01
          2   -1    0    0  501    0  0.00000000000E+00  0.00000000000E+00  0.10406538415E+04  0.10406538415E+04  0.00000000000E+00 0.  1.
         -2   -1    0    0    0  501 -0.00000000000E+00 -0.00000000000E+00 -0.80832889486E+03  0.80832889486E+03  0.00000000000E+00 0. -1.
         23    2    1    2    0    0  0.37217733949E+03  0.47243265061E+03  0.81116926369E+03  0.10142556404E+04  0.94922855078E+02 0.  0.
         13    1    3    3    0    0  0.89448796457E+02  0.18059336236E+03  0.24198079857E+03  0.31491229984E+03  0.00000000000E+00 0.  1.
        -13    1    3    3    0    0  0.28272854303E+03  0.29183928826E+03  0.56918846512E+03  0.69934334060E+03  0.00000000000E+00 0. -1.
         22    1    1    2    0    0 -0.37217733949E+03 -0.47243265061E+03 -0.57884431701E+03  0.83472709596E+03  0.00000000000E+00 0. -1.
<mgrwt>
<rscale>  0 0.18343288E+04</rscale>
<asrwt>0</asrwt>
<pdfrwt beam="1">  1        2 0.16010059E+00 0.18343288E+04</pdfrwt>
<pdfrwt beam="2">  1       -2 0.12435829E+00 0.18343288E+04</pdfrwt>
<totfact> 0.10851664E+01</totfact>
</mgrwt>
</event>
<event>
 6    1  0.1588846E-005  0.4006288E+04  0.7818608E-02  0.8003279E-01
          1   -1    0    0  501    0  0.00000000000E+00  0.00000000000E+00  0.26165158328E+04  0.26165158328E+04  0.00000000000E+00 0. -1.
         -1   -1    0    0    0  501 -0.00000000000E+00 -0.00000000000E+00 -0.15335605451E+04  0.15335605451E+04  0.00000000000E+00 0.  1.
         23    2    1    2    0    0  0.51490097472E+03 -0.19224072579E+04  0.76779229379E+03  0.21351072983E+04  0.91681459499E+02 0.  0.
         13    1    3    3    0    0  0.34531874054E+03 -0.11697684753E+04  0.43566014747E+03  0.12951459695E+04  0.00000000000E+00 0.  1.
        -13    1    3    3    0    0  0.16958223419E+03 -0.75263878260E+03  0.33213214632E+03  0.83996132878E+03  0.00000000000E+00 0. -1.
         22    1    1    2    0    0 -0.51490097472E+03  0.19224072579E+04  0.31516299395E+03  0.20149690796E+04  0.00000000000E+00 0.  1.
<mgrwt>
<rscale>  0 0.40062878E+04</rscale>
<asrwt>0</asrwt>
<pdfrwt beam="1">  1        1 0.40254090E+00 0.40062878E+04</pdfrwt>
<pdfrwt beam="2">  1       -1 0.23593239E+00 0.40062878E+04</pdfrwt>
<totfact> 0.75782815E-02</totfact>
</mgrwt>
</event>
<event>
 6    1  0.1779386E-005  0.3896381E+04  0.7818608E-02  0.8025782E-01
         -1   -1    0    0    0  501 -0.00000000000E+00  0.00000000000E+00  0.12988891472E+04  0.12988891472E+04  0.00000000000E+00 0.  1.
          1   -1    0    0  501    0  0.00000000000E+00 -0.00000000000E+00 -0.29220715907E+04  0.29220715907E+04  0.00000000000E+00 0. -1.
         23    2    1    2    0    0  0.62764871235E+03 -0.57679135714E+03 -0.27084848568E+04  0.28409199762E+04  0.91131310671E+02 0.  0.
         13    1    3    3    0    0  0.30524452075E+03 -0.28267160545E+03 -0.11713655082E+04  0.12430505250E+04  0.00000000000E+00 0.  1.
        -13    1    3    3    0    0  0.32240419160E+03 -0.29411975170E+03 -0.15371193486E+04  0.15978694511E+04  0.00000000000E+00 0. -1.
         22    1    1    2    0    0 -0.62764871235E+03  0.57679135714E+03  0.10853024133E+04  0.13800407618E+04  0.00000000000E+00 0.  1.
<mgrwt>
<rscale>  0 0.38963814E+04</rscale>
<asrwt>0</asrwt>
<pdfrwt beam="1">  1        1 0.44954947E+00 0.38963814E+04</pdfrwt>
<pdfrwt beam="2">  1       -1 0.19982910E+00 0.38963814E+04</pdfrwt>
<totfact> 0.81084240E-02</totfact>
</mgrwt>
</event>
<event>
 6    1  0.1588846E-005  0.1849964E+04  0.7818608E-02  0.8680172E-01
          1   -1    0    0  501    0  0.00000000000E+00  0.00000000000E+00  0.19348996532E+04  0.19348996532E+04  0.00000000000E+00 0. -1.
         -1   -1    0    0    0  501 -0.00000000000E+00 -0.00000000000E+00 -0.44218898184E+03  0.44218898184E+03  0.00000000000E+00 0.  1.
         23    2    1    2    0    0  0.14112610925E+03 -0.74106953078E+03  0.14309877079E+04  0.16201802176E+04  0.90318820522E+02 0.  0.
         13    1    3    3    0    0  0.43406841139E+02 -0.29720502430E+03  0.48112680355E+03  0.56718425703E+03  0.00000000000E+00 0. -1.
        -13    1    3    3    0    0  0.97719268108E+02 -0.44386450647E+03  0.94986090431E+03  0.10529959606E+04  0.00000000000E+00 0.  1.
         22    1    1    2    0    0 -0.14112610925E+03  0.74106953078E+03  0.61722963513E+02  0.75690841743E+03  0.00000000000E+00 0.  1.
<mgrwt>
<rscale>  0 0.18499636E+04</rscale>
<asrwt>0</asrwt>
<pdfrwt beam="1">  1        1 0.29767686E+00 0.18499636E+04</pdfrwt>
<pdfrwt beam="2">  1       -1 0.68029075E-01 0.18499636E+04</pdfrwt>
<totfact> 0.67813743E+00</totfact>
</mgrwt>
</event>
<event>
 6    1  0.1588846E-005  0.9506045E+03  0.7818608E-02  0.9364444E-01
          2   -1    0    0  501    0  0.00000000000E+00  0.00000000000E+00  0.27025987503E+04  0.27025987503E+04  0.00000000000E+00 0. -1.
         -2   -1    0    0    0  501 -0.00000000000E+00 -0.00000000000E+00 -0.83590731435E+02  0.83590731435E+02  0.00000000000E+00 0.  1.
         23    2    1    2    0    0  0.90178374223E+02  0.18185783532E+03  0.25669640078E+04  0.25766352154E+04  0.92414308756E+02 0.  0.
         11    1    3    3    0    0  0.41888391408E+02  0.98511256224E+02  0.18680454807E+04  0.18711101045E+04  0.00000000000E+00 0. -1.
        -11    1    3    3    0    0  0.48289982815E+02  0.83346579094E+02  0.69891852706E+03  0.70552511093E+03  0.00000000000E+00 0.  1.
         22    1    1    2    0    0 -0.90178374223E+02 -0.18185783532E+03  0.52044011043E+02  0.20955426631E+03  0.00000000000E+00 0.  1.
<mgrwt>
<rscale>  0 0.95060445E+03</rscale>
<asrwt>0</asrwt>
<pdfrwt beam="1">  1        2 0.41578436E+00 0.95060445E+03</pdfrwt>
<pdfrwt beam="2">  1       -2 0.12860115E-01 0.95060445E+03</pdfrwt>
<totfact> 0.12281485E+02</totfact>
</mgrwt>
</event>
<event>
 6    1  0.1588846E-005  0.7754640E+03  0.7818608E-02  0.9596227E-01
         -1   -1    0    0    0  501 -0.00000000000E+00  0.00000000000E+00  0.48048950453E+02  0.48048950453E+02  0.00000000000E+00 0.  1.
          1   -1    0    0  501    0  0.00000000000E+00 -0.00000000000E+00 -0.31288113186E+04  0.31288113186E+04  0.00000000000E+00 0. -1.
         23    2    1    2    0    0 -0.23892916352E+03 -0.19566032561E+03 -0.24856939933E+04  0.25064301989E+04  0.90264087850E+02 0.  0.
         13    1    3    3    0    0 -0.93835521096E+02 -0.12475130624E+03 -0.10217943561E+04  0.10336496987E+04  0.00000000000E+00 0.  1.
        -13    1    3    3    0    0 -0.14509364243E+03 -0.70909019364E+02 -0.14638996371E+04  0.14727805002E+04  0.00000000000E+00 0. -1.
         22    1    1    2    0    0  0.23892916352E+03  0.19566032561E+03 -0.59506837491E+03  0.67043007019E+03  0.00000000000E+00 0.  1.
<mgrwt>
<rscale>  0 0.77546399E+03</rscale>
<asrwt>0</asrwt>
<pdfrwt beam="1">  1        1 0.48135555E+00 0.77546399E+03</pdfrwt>
<pdfrwt beam="2">  1       -1 0.73921468E-02 0.77546399E+03</pdfrwt>
<totfact> 0.51594732E+01</totfact>
</mgrwt>
</event>
<event>
 6    1  0.1588846E-005  0.1924571E+04  0.7818608E-02  0.8642722E-01
          2   -1    0    0  501    0  0.00000000000E+00  0.00000000000E+00  0.14470201271E+04  0.14470201271E+04  0.00000000000E+00 0. -1.
         -2   -1    0    0    0  501 -0.00000000000E+00 -0.00000000000E+00 -0.63993109983E+03  0.63993109983E+03  0.00000000000E+00 0.  1.
         23    2    1    2    0    0 -0.39468578739E+03 -0.57887175306E+02  0.13515108475E+04  0.14120268503E+04  0.90058088165E+02 0.  0.
         11    1    3    3    0    0 -0.36476336950E+03 -0.31988099217E+02  0.11580453907E+04  0.12145553430E+04  0.00000000000E+00 0.  1.
        -11    1    3    3    0    0 -0.29922417891E+02 -0.25899076089E+02  0.19346545675E+03  0.19747150729E+03  0.00000000000E+00 0. -1.
         22    1    1    2    0    0  0.39468578739E+03  0.57887175306E+02 -0.54442182023E+03  0.67492437663E+03  0.00000000000E+00 0.  1.
<mgrwt>
<rscale>  0 0.19245708E+04</rscale>
<asrwt>0</asrwt>
<pdfrwt beam="1">  1        2 0.22261848E+00 0.19245708E+04</pdfrwt>
<pdfrwt beam="2">  1       -2 0.98450939E-01 0.19245708E+04</pdfrwt>
<totfact> 0.10899008E+01</totfact>
</mgrwt>
</event>
<event>
 6    1  0.1588846E-005  0.2832740E+04  0.7818608E-02  0.8293175E-01
         -1   -1    0    0    0  501 -0.00000000000E+00  0.00000000000E+00  0.15633900478E+04  0.15633900478E+04  0.00000000000E+00 0.  1.
          1   -1    0    0  501    0  0.00000000000E+00 -0.00000000000E+00 -0.12831758047E+04  0.12831758047E+04  0.00000000000E+00 0. -1.
         23    2    1    2    0    0 -0.96092793573E+03  0.86144273706E+03 -0.44277347111E+03  0.13673169479E+04  0.89672751054E+02 0.  0.
         11    1    3    3    0    0 -0.78399831644E+03  0.65378392684E+03 -0.35055608124E+03  0.10793407012E+04  0.00000000000E+00 0.  1.
        -11    1    3    3    0    0 -0.17692961929E+03  0.20765881022E+03 -0.92217389871E+02  0.28797624666E+03  0.00000000000E+00 0. -1.
         22    1    1    2    0    0  0.96092793573E+03 -0.86144273706E+03  0.72298771427E+03  0.14792489046E+04  0.00000000000E+00 0.  1.
<mgrwt>
<rscale>  0 0.28327402E+04</rscale>
<asrwt>0</asrwt>
<pdfrwt beam="1">  1        1 0.19741166E+00 0.28327402E+04</pdfrwt>
<pdfrwt beam="2">  1       -1 0.24052155E+00 0.28327402E+04</pdfrwt>
<totfact> 0.64582142E-01</totfact>
</mgrwt>
</event>
<event>
 6    1  0.1588846E-005  0.1673839E+04  0.7818608E-02  0.8776427E-01
          1   -1    0    0  501    0  0.00000000000E+00  0.00000000000E+00  0.79348978840E+03  0.79348978840E+03  0.00000000000E+00 0. -1.
         -1   -1    0    0    0  501 -0.00000000000E+00 -0.00000000000E+00 -0.88272604462E+03  0.88272604462E+03  0.00000000000E+00 0.  1.
         23    2    1    2    0    0 -0.24125497735E+03 -0.46873501496E+03  0.60297176745E+03  0.80611904163E+03  0.91304318527E+02 0.  0.
         13    1    3    3    0    0 -0.52833471549E+02 -0.18672295989E+03  0.18813739899E+03  0.27028229755E+03  0.00000000000E+00 0. -1.
        -13    1    3    3    0    0 -0.18842150580E+03 -0.28201205507E+03  0.41483436845E+03  0.53583674408E+03  0.00000000000E+00 0.  1.
         22    1    1    2    0    0  0.24125497735E+03  0.46873501496E+03 -0.69220802367E+03  0.87009679139E+03  0.00000000000E+00 0.  1.
<mgrwt>
<rscale>  0 0.16738388E+04</rscale>
<asrwt>0</asrwt>
<pdfrwt beam="1">  1        1 0.12207535E+00 0.16738388E+04</pdfrwt>
<pdfrwt beam="2">  1       -1 0.13580401E+00 0.16738388E+04</pdfrwt>
<totfact> 0.96937637E+00</totfact>
</mgrwt>
</event>
<event>
 6    1  0.1588846E-005  0.1052863E+04  0.7818608E-02  0.9252393E-01
         -2   -1    0    0    0  501 -0.00000000000E+00  0.00000000000E+00  0.88201563373E+03  0.88201563373E+03  0.00000000000E+00 0. -1.
          2   -1    0    0  501    0  0.00000000000E+00 -0.00000000000E+00 -0.31420076424E+03  0.31420076424E+03  0.00000000000E+00 0.  1.
         23    2    1    2    0    0 -0.19084065620E+03 -0.49074985706E+02  0.83579128339E+03  0.86359067936E+03  0.91723943477E+02 0.  0.
         11    1    3    3    0    0 -0.12573136916E+03 -0.77297538038E+01  0.35577337135E+03  0.37741597481E+03  0.00000000000E+00 0.  1.
        -11    1    3    3    0    0 -0.65109287039E+02 -0.41345231903E+02  0.48001791204E+03  0.48617470454E+03  0.00000000000E+00 0. -1.
         22    1    1    2    0    0  0.19084065620E+03  0.49074985706E+02 -0.26797641389E+03  0.33262571861E+03  0.00000000000E+00 0.  1.
<mgrwt>
<rscale>  0 0.10528627E+04</rscale>
<asrwt>0</asrwt>
<pdfrwt beam="1">  1        2 0.48338579E-01 0.10528627E+04</pdfrwt>
<pdfrwt beam="2">  1       -2 0.13569471E+00 0.10528627E+04</pdfrwt>
<totfact> 0.40382939E+01</totfact>
</mgrwt>
</event>
<event>
 6    1  0.1588846E-005  0.3907316E+04  0.7818608E-02  0.8023509E-01
          2   -1    0    0  501    0  0.00000000000E+00  0.00000000000E+00  0.34991849646E+04  0.34991849646E+04  0.00000000000E+00 0. -1.
         -2   -1    0    0    0  501 -0.00000000000E+00 -0.00000000000E+00 -0.10907624445E+04  0.10907624445E+04  0.00000000000E+00 0.  1.
         23    2    1    2    0    0 -0.29333459763E+03 -0.13048877155E+04  0.28761895355E+04  0.31730553465E+04  0.83885945144E+02 0.  0.
         13    1    3    3    0    0 -0.67545552482E+02 -0.38343231298E+03  0.91800093897E+03  0.99715017136E+03  0.00000000000E+00 0. -1.
        -13    1    3    3    0    0 -0.22578904515E+03 -0.92145540253E+03  0.19581885965E+04  0.21759051752E+04  0.00000000000E+00 0.  1.
         22    1    1    2    0    0  0.29333459763E+03  0.13048877155E+04 -0.46776701540E+03  0.14168920626E+04  0.00000000000E+00 0.  1.
<mgrwt>
<rscale>  0 0.39073160E+04</rscale>
<asrwt>0</asrwt>
<pdfrwt beam="1">  1        2 0.53833614E+00 0.39073160E+04</pdfrwt>
<pdfrwt beam="2">  1       -2 0.16780961E+00 0.39073160E+04</pdfrwt>
<totfact> 0.14270194E-01</totfact>
</mgrwt>
</event>
<event>
 6    1  0.1588846E-005  0.1436515E+04  0.7818608E-02  0.8927803E-01
          2   -1    0    0  501    0  0.00000000000E+00  0.00000000000E+00  0.25935279190E+04  0.25935279190E+04  0.00000000000E+00 0. -1.
         -2   -1    0    0    0  501 -0.00000000000E+00 -0.00000000000E+00 -0.19891598393E+03  0.19891598393E+03  0.00000000000E+00 0.  1.
         23    2    1    2    0    0 -0.16735958684E+02  0.46084641848E+03  0.22652143398E+04  0.23134833081E+04  0.91375585804E+02 0.  0.
         13    1    3    3    0    0 -0.27184877333E+02  0.30981478924E+03  0.17071788553E+04  0.17352763080E+04  0.00000000000E+00 0. -1.
        -13    1    3    3    0    0  0.10448918650E+02  0.15103162924E+03  0.55803548451E+03  0.57820700004E+03  0.00000000000E+00 0.  1.
         22    1    1    2    0    0  0.16735958684E+02 -0.46084641848E+03  0.12939759523E+03  0.47896059482E+03  0.00000000000E+00 0.  1.
<mgrwt>
<rscale>  0 0.14365154E+04</rscale>
<asrwt>0</asrwt>
<pdfrwt beam="1">  1        2 0.39900427E+00 0.14365154E+04</pdfrwt>
<pdfrwt beam="2">  1       -2 0.30602461E-01 0.14365154E+04</pdfrwt>
<totfact> 0.29565168E+01</totfact>
</mgrwt>
</event>
<event>
 6    1  0.1588846E-005  0.2053547E+04  0.7818608E-02  0.8581987E-01
          1   -1    0    0  501    0  0.00000000000E+00  0.00000000000E+00  0.84080036425E+03  0.84080036425E+03  0.00000000000E+00 0. -1.
         -1   -1    0    0    0  501 -0.00000000000E+00 -0.00000000000E+00 -0.12538813199E+04  0.12538813199E+04  0.00000000000E+00 0.  1.
         23    2    1    2    0    0 -0.68234570413E+03  0.16623425076E+03  0.55430212115E+03  0.89924891592E+03  0.90378566083E+02 0.  0.
         11    1    3    3    0    0 -0.18003098261E+03  0.52350906283E+02  0.19972362975E+03  0.27393667219E+03  0.00000000000E+00 0.  1.
        -11    1    3    3    0    0 -0.50231472151E+03  0.11388334448E+03  0.35457849140E+03  0.62531224373E+03  0.00000000000E+00 0. -1.
         22    1    1    2    0    0  0.68234570413E+03 -0.16623425076E+03 -0.96738307680E+03  0.11954327682E+04  0.00000000000E+00 0.  1.
<mgrwt>
<rscale>  0 0.20535470E+04</rscale>
<asrwt>0</asrwt>
<pdfrwt beam="1">  1        1 0.12935390E+00 0.20535470E+04</pdfrwt>
<pdfrwt beam="2">  1       -1 0.19290482E+00 0.20535470E+04</pdfrwt>
<totfact> 0.31742977E+00</totfact>
</mgrwt>
</event>
<event>
 6    1  0.1588846E-005  0.2218077E+04  0.7818608E-02  0.8510941E-01
          2   -1    0    0  501    0  0.00000000000E+00  0.00000000000E+00  0.21370714598E+04  0.21370714598E+04  0.00000000000E+00 0. -1.
         -2   -1    0    0    0  501 -0.00000000000E+00 -0.00000000000E+00 -0.57553851839E+03  0.57553851839E+03  0.00000000000E+00 0.  1.
         23    2    1    2    0    0 -0.75869040943E+03  0.41115830404E+03  0.16303369500E+04  0.18469332025E+04  0.92203012937E+02 0.  0.
         11    1    3    3    0    0 -0.26810951107E+03  0.10649764011E+03  0.60157971016E+03  0.66717509317E+03  0.00000000000E+00 0. -1.
        -11    1    3    3    0    0 -0.49058089836E+03  0.30466066393E+03  0.10287572399E+04  0.11797581093E+04  0.00000000000E+00 0.  1.
         22    1    1    2    0    0  0.75869040943E+03 -0.41115830404E+03 -0.68804008616E+02  0.86567677568E+03  0.00000000000E+00 0.  1.
<mgrwt>
<rscale>  0 0.22180775E+04</rscale>
<asrwt>0</asrwt>
<pdfrwt beam="1">  1        2 0.32878022E+00 0.22180775E+04</pdfrwt>
<pdfrwt beam="2">  1       -2 0.88544389E-01 0.22180775E+04</pdfrwt>
<totfact> 0.56092726E+00</totfact>
</mgrwt>
</event>
<event>
 6    1  0.1588846E-005  0.8355332E+03  0.7818608E-02  0.9509962E-01
         -1   -1    0    0    0  501 -0.00000000000E+00  0.00000000000E+00  0.32498957517E+03  0.32498957517E+03  0.00000000000E+00 0.  1.
          1   -1    0    0  501    0  0.00000000000E+00 -0.00000000000E+00 -0.53702934306E+03  0.53702934306E+03  0.00000000000E+00 0. -1.
         23    2    1    2    0    0 -0.32642823767E+03  0.13050452721E+03 -0.33057072519E+03  0.49102509913E+03  0.90784457084E+02 0.  0.
         13    1    3    3    0    0 -0.25966796269E+03  0.14101726756E+03 -0.26754745276E+03  0.39861630684E+03  0.00000000000E+00 0. -1.
        -13    1    3    3    0    0 -0.66760274980E+02 -0.10512740343E+02 -0.63023272433E+02  0.92408792293E+02  0.00000000000E+00 0.  1.
         22    1    1    2    0    0  0.32642823767E+03 -0.13050452721E+03  0.11853095731E+03  0.37099381910E+03  0.00000000000E+00 0.  1.
<mgrwt>
<rscale>  0 0.83553321E+03</rscale>
<asrwt>0</asrwt>
<pdfrwt beam="1">  1        1 0.82619899E-01 0.83553321E+03</pdfrwt>
<pdfrwt beam="2">  1       -1 0.49998396E-01 0.83553321E+03</pdfrwt>
<totfact> 0.16269861E+02</totfact>
</mgrwt>
</event>
<event>
 6    1  0.1588846E-005  0.1683170E+04  0.7818608E-02  0.8771022E-01
          1   -1    0    0  501    0  0.00000000000E+00  0.00000000000E+00  0.27194305698E+03  0.27194305698E+03  0.00000000000E+00 0. -1.
         -1   -1    0    0    0  501 -0.00000000000E+00 -0.00000000000E+00 -0.26044621893E+04  0.26044621893E+04  0.00000000000E+00 0.  1.
         23    2    1    2    0    0  0.43706444990E+03 -0.66361852242E+03 -0.70909564100E+03  0.10689432940E+04  0.91696570765E+02 0.  0.
         13    1    3    3    0    0  0.28908813196E+03 -0.49426689945E+03 -0.47098350197E+03  0.74141565607E+03  0.00000000000E+00 0. -1.
        -13    1    3    3    0    0  0.14797631794E+03 -0.16935162297E+03 -0.23811213903E+03  0.32752763796E+03  0.00000000000E+00 0.  1.
         22    1    1    2    0    0 -0.43706444990E+03  0.66361852242E+03 -0.16234234913E+04  0.18074619523E+04  0.00000000000E+00 0.  1.
<mgrwt>
<rscale>  0 0.16831701E+04</rscale>
<asrwt>0</asrwt>
<pdfrwt beam="1">  1        1 0.41837393E-01 0.16831701E+04</pdfrwt>
<pdfrwt beam="2">  1       -1 0.40068649E+00 0.16831701E+04</pdfrwt>
<totfact> 0.67499692E-01</totfact>
</mgrwt>
</event>
<event>
 6    1  0.1588846E-005  0.1956404E+04  0.7818608E-02  0.8627279E-01
         -1   -1    0    0    0  501 -0.00000000000E+00  0.00000000000E+00  0.74988229602E+03  0.74988229602E+03  0.00000000000E+00 0.  1.
          1   -1    0    0  501    0  0.00000000000E+00 -0.00000000000E+00 -0.12760385222E+04  0.12760385222E+04  0.00000000000E+00 0. -1.
         23    2    1    2    0    0 -0.31451931051E+03 -0.82992116457E+02  0.68909892684E+03  0.76788458066E+03  0.94759222119E+02 0.  0.
         11    1    3    3    0    0 -0.14354488394E+03 -0.86437955612E+02  0.32672404342E+03  0.36718558581E+03  0.00000000000E+00 0. -1.
        -11    1    3    3    0    0 -0.17097442656E+03  0.34458391549E+01  0.36237488342E+03  0.40069899486E+03  0.00000000000E+00 0.  1.
         22    1    1    2    0    0  0.31451931051E+03  0.82992116457E+02 -0.12152551530E+04  0.12580362376E+04  0.00000000000E+00 0. -1.
<mgrwt>
<rscale>  0 0.19564035E+04</rscale>
<asrwt>0</asrwt>
<pdfrwt beam="1">  1        1 0.19631362E+00 0.19564035E+04</pdfrwt>
<pdfrwt beam="2">  1       -1 0.11536651E+00 0.19564035E+04</pdfrwt>
<totfact> 0.59693279E+00</totfact>
</mgrwt>
</event>
<event>
 6    1  0.1588846E-005  0.8759756E+03  0.7818608E-02  0.9456122E-01
          1   -1    0    0  501    0  0.00000000000E+00  0.00000000000E+00  0.49661542562E+03  0.49661542562E+03  0.00000000000E+00 0. -1.
         -1   -1    0    0    0  501 -0.00000000000E+00 -0.00000000000E+00 -0.38628143197E+03  0.38628143197E+03  0.00000000000E+00 0.  1.
         23    2    1    2    0    0  0.75682132563E+02 -0.36812347216E+03 -0.16155509450E+03  0.41903658532E+03  0.90823649631E+02 0.  0.
         11    1    3    3    0    0 -0.95136743662E+01 -0.17453822447E+03 -0.81873621753E+02  0.19302173904E+03  0.00000000000E+00 0.  1.
        -11    1    3    3    0    0  0.85195806929E+02 -0.19358524768E+03 -0.79681472751E+02  0.22601484628E+03  0.00000000000E+00 0. -1.
         22    1    1    2    0    0 -0.75682132563E+02  0.36812347216E+03  0.27188908816E+03  0.46386027228E+03  0.00000000000E+00 0. -1.
<mgrwt>
<rscale>  0 0.87597561E+03</rscale>
<asrwt>0</asrwt>
<pdfrwt beam="1">  1        1 0.76402374E-01 0.87597561E+03</pdfrwt>
<pdfrwt beam="2">  1       -1 0.59427912E-01 0.87597561E+03</pdfrwt>
<totfact> 0.12960237E+02</totfact>
</mgrwt>
</event>
<event>
 6    1  0.1588846E-005  0.3503644E+04  0.7818608E-02  0.8112927E-01
         -1   -1    0    0    0  501 -0.00000000000E+00  0.00000000000E+00  0.20161506771E+04  0.20161506771E+04  0.00000000000E+00 0.  1.
          1   -1    0    0  501    0  0.00000000000E+00 -0.00000000000E+00 -0.15221483558E+04  0.15221483558E+04  0.00000000000E+00 0. -1.
         23    2    1    2    0    0 -0.78273536809E+02 -0.14915277748E+04  0.11694452198E+04  0.18990903949E+04  0.90334690942E+02 0.  0.
         11    1    3    3    0    0 -0.86198474635E+02 -0.10241096858E+04  0.83714632420E+03  0.13255356629E+04  0.00000000000E+00 0.  1.
        -11    1    3    3    0    0  0.79249378263E+01 -0.46741808904E+03  0.33229889558E+03  0.57355473201E+03  0.00000000000E+00 0. -1.
         22    1    1    2    0    0  0.78273536809E+02  0.14915277748E+04 -0.67544289852E+03  0.16392086380E+04  0.00000000000E+00 0. -1.
<mgrwt>
<rscale>  0 0.35036441E+04</rscale>
<asrwt>0</asrwt>
<pdfrwt beam="1">  1        1 0.23417667E+00 0.35036441E+04</pdfrwt>
<pdfrwt beam="2">  1       -1 0.31017703E+00 0.35036441E+04</pdfrwt>
<totfact> 0.14603506E-01</totfact>
</mgrwt>
</event>
<event>
 6    1  0.1588846E-005  0.2545598E+04  0.7818608E-02  0.8386919E-01
         -1   -1    0    0    0  501 -0.00000000000E+00  0.00000000000E+00  0.55657098103E+03  0.55657098103E+03  0.00000000000E+00 0.  1.
          1   -1    0    0  501    0  0.00000000000E+00 -0.00000000000E+00 -0.29107118579E+04  0.29107118579E+04  0.00000000000E+00 0. -1.
         23    2    1    2    0    0 -0.10456724897E+04  0.27757015593E+03 -0.20877037331E+04  0.23530724016E+04  0.89256387742E+02 0.  0.
         13    1    3    3    0    0 -0.46874812750E+03  0.79523941874E+02 -0.89545833176E+03  0.10138513147E+04  0.00000000000E+00 0. -1.
        -13    1    3    3    0    0 -0.57692436215E+03  0.19804621406E+03 -0.11922454013E+04  0.13392210869E+04  0.00000000000E+00 0.  1.
         22    1    1    2    0    0  0.10456724897E+04 -0.27757015593E+03 -0.26643714375E+03  0.11142104373E+04  0.00000000000E+00 0.  1.
<mgrwt>
<rscale>  0 0.25455984E+04</rscale>
<asrwt>0</asrwt>
<pdfrwt beam="1">  1        1 0.44780183E+00 0.25455984E+04</pdfrwt>
<pdfrwt beam="2">  1       -1 0.85626303E-01 0.25455984E+04</pdfrwt>
<totfact> 0.82731856E-01</totfact>
</mgrwt>
</event>
<event>
 6    1  0.1588846E-005  0.2141191E+04  0.7818608E-02  0.8543312E-01
         -1   -1    0    0    0  501 -0.00000000000E+00  0.00000000000E+00  0.11653477365E+04  0.11653477365E+04  0.00000000000E+00 0.  1.
          1   -1    0    0  501    0  0.00000000000E+00 -0.00000000000E+00 -0.98354724079E+03  0.98354724079E+03  0.00000000000E+00 0. -1.
         23    2    1    2    0    0 -0.37402441206E+03  0.26296605997E+03  0.10604332630E+04  0.11584198644E+04  0.91501188030E+02 0.  0.
         13    1    3    3    0    0 -0.22210877864E+03  0.10398994107E+03  0.59945560773E+03  0.64768298034E+03  0.00000000000E+00 0. -1.
        -13    1    3    3    0    0 -0.15191563342E+03  0.15897611890E+03  0.46097765528E+03  0.51073688404E+03  0.00000000000E+00 0.  1.
         22    1    1    2    0    0  0.37402441206E+03 -0.26296605997E+03 -0.87863276729E+03  0.99047511290E+03  0.00000000000E+00 0. -1.
<mgrwt>
<rscale>  0 0.21411908E+04</rscale>
<asrwt>0</asrwt>
<pdfrwt beam="1">  1        1 0.15131496E+00 0.21411908E+04</pdfrwt>
<pdfrwt beam="2">  1       -1 0.17928427E+00 0.21411908E+04</pdfrwt>
<totfact> 0.30083321E+00</totfact>
</mgrwt>
</event>
<event>
 6    1  0.1588846E-005  0.1841404E+04  0.7818608E-02  0.8684586E-01
          2   -1    0    0  501    0  0.00000000000E+00  0.00000000000E+00  0.54317283976E+03  0.54317283976E+03  0.00000000000E+00 0. -1.
         -2   -1    0    0    0  501 -0.00000000000E+00 -0.00000000000E+00 -0.15606301051E+04  0.15606301051E+04  0.00000000000E+00 0.  1.
         23    2    1    2    0    0 -0.71511291830E+03 -0.55932453137E+03 -0.35225752313E+03  0.97831588838E+03  0.93734719004E+02 0.  0.
         13    1    3    3    0    0 -0.34026604700E+03 -0.31779474568E+03 -0.15501158045E+03  0.49071689719E+03  0.00000000000E+00 0. -1.
        -13    1    3    3    0    0 -0.37484687131E+03 -0.24152978569E+03 -0.19724594268E+03  0.48759899119E+03  0.00000000000E+00 0.  1.
         22    1    1    2    0    0  0.71511291830E+03  0.55932453137E+03 -0.66519974225E+03  0.11254870565E+04  0.00000000000E+00 0.  1.
<mgrwt>
<rscale>  0 0.18414037E+04</rscale>
<asrwt>0</asrwt>
<pdfrwt beam="1">  1        2 0.83565052E-01 0.18414037E+04</pdfrwt>
<pdfrwt beam="2">  1       -2 0.24009694E+00 0.18414037E+04</pdfrwt>
<totfact> 0.38877153E+00</totfact>
</mgrwt>
</event>
<event>
 6    1  0.1588846E-005  0.1339714E+04  0.7818608E-02  0.8998651E-01
         -1   -1    0    0    0  501 -0.00000000000E+00  0.00000000000E+00  0.90230348498E+03  0.90230348498E+03  0.00000000000E+00 0.  1.
          1   -1    0    0  501    0  0.00000000000E+00 -0.00000000000E+00 -0.49729193823E+03  0.49729193823E+03  0.00000000000E+00 0. -1.
         23    2    1    2    0    0  0.14858268555E+03 -0.59046262547E+03  0.48752352356E+03  0.78515978554E+03  0.89854194625E+02 0.  0.
         13    1    3    3    0    0  0.64329923695E+02 -0.22231660734E+03  0.24114226246E+03  0.33423435449E+03  0.00000000000E+00 0. -1.
        -13    1    3    3    0    0  0.84252761854E+02 -0.36814601813E+03  0.24638126110E+03  0.45092543105E+03  0.00000000000E+00 0.  1.
         22    1    1    2    0    0 -0.14858268555E+03  0.59046262547E+03 -0.82511976812E+02  0.61443563767E+03  0.00000000000E+00 0.  1.
<mgrwt>
<rscale>  0 0.13397138E+04</rscale>
<asrwt>0</asrwt>
<pdfrwt beam="1">  1        1 0.76506452E-01 0.13397138E+04</pdfrwt>
<pdfrwt beam="2">  1       -1 0.13881592E+00 0.13397138E+04</pdfrwt>
<totfact> 0.18751440E+01</totfact>
</mgrwt>
</event>
<event>
 6    1  0.1588846E-005  0.2749161E+04  0.7818608E-02  0.8319228E-01
          1   -1    0    0  501    0  0.00000000000E+00  0.00000000000E+00  0.11356738511E+04  0.11356738511E+04  0.00000000000E+00 0. -1.
         -1   -1    0    0    0  501 -0.00000000000E+00 -0.00000000000E+00 -0.16637443021E+04  0.16637443021E+04  0.00000000000E+00 0.  1.
         23    2    1    2    0    0 -0.85806706626E+03 -0.58142127883E+03 -0.11812472910E+04  0.15742774356E+04  0.93136932540E+02 0.  0.
         11    1    3    3    0    0 -0.46375868513E+03 -0.32811029590E+03 -0.71477912804E+03  0.91303761488E+03  0.00000000000E+00 0.  1.
        -11    1    3    3    0    0 -0.39430838113E+03 -0.25331098293E+03 -0.46646816294E+03  0.66123982074E+03  0.00000000000E+00 0. -1.
         22    1    1    2    0    0  0.85806706626E+03  0.58142127883E+03  0.65317683996E+03  0.12251407176E+04  0.00000000000E+00 0. -1.
<mgrwt>
<rscale>  0 0.27491605E+04</rscale>
<asrwt>0</asrwt>
<pdfrwt beam="1">  1        1 0.17471905E+00 0.27491605E+04</pdfrwt>
<pdfrwt beam="2">  1       -1 0.25596066E+00 0.27491605E+04</pdfrwt>
<totfact> 0.66073126E-01</totfact>
</mgrwt>
</event>
<event>
 6    1  0.1588846E-005  0.3148232E+04  0.7818608E-02  0.8202624E-01
         -2   -1    0    0    0  501 -0.00000000000E+00  0.00000000000E+00  0.10421728136E+04  0.10421728136E+04  0.00000000000E+00 0.  1.
          2   -1    0    0  501    0  0.00000000000E+00 -0.00000000000E+00 -0.23775721378E+04  0.23775721378E+04  0.00000000000E+00 0. -1.
         23    2    1    2    0    0 -0.32451625746E+03 -0.23360141598E+03 -0.23205221030E+04  0.23565670207E+04  0.93299891122E+02 0.  0.
         13    1    3    3    0    0 -0.10982688766E+03 -0.28396895366E+02 -0.67187452264E+03  0.68138366805E+03  0.00000000000E+00 0.  1.
        -13    1    3    3    0    0 -0.21468936980E+03 -0.20520452062E+03 -0.16486475804E+04  0.16751833527E+04  0.00000000000E+00 0. -1.
         22    1    1    2    0    0  0.32451625746E+03  0.23360141598E+03  0.98512277887E+03  0.10631779307E+04  0.00000000000E+00 0.  1.
<mgrwt>
<rscale>  0 0.31482319E+04</rscale>
<asrwt>0</asrwt>
<pdfrwt beam="1">  1        2 0.36578033E+00 0.31482319E+04</pdfrwt>
<pdfrwt beam="2">  1       -2 0.16033428E+00 0.31482319E+04</pdfrwt>
<totfact> 0.86721566E-01</totfact>
</mgrwt>
</event>
<event>
 6    1  0.1588846E-005  0.9854677E+03  0.7818608E-02  0.9324629E-01
          2   -1    0    0  501    0  0.00000000000E+00  0.00000000000E+00  0.33442737253E+03  0.33442737253E+03  0.00000000000E+00 0. -1.
         -2   -1    0    0    0  501 -0.00000000000E+00 -0.00000000000E+00 -0.72597712966E+03  0.72597712966E+03  0.00000000000E+00 0.  1.
         23    2    1    2    0    0  0.26353082827E+03 -0.40624153899E+03 -0.26796705660E+03  0.56065119373E+03  0.89681280984E+02 0.  0.
         11    1    3    3    0    0  0.16846997202E+03 -0.32801335368E+03 -0.18865761380E+03  0.41420597160E+03  0.00000000000E+00 0. -1.
        -11    1    3    3    0    0  0.95060856246E+02 -0.78228185313E+02 -0.79309442797E+02  0.14644522213E+03  0.00000000000E+00 0.  1.
         22    1    1    2    0    0 -0.26353082827E+03  0.40624153899E+03 -0.12358270053E+03  0.49975330847E+03  0.00000000000E+00 0. -1.
<mgrwt>
<rscale>  0 0.98546765E+03</rscale>
<asrwt>0</asrwt>
<pdfrwt beam="1">  1        2 0.51450366E-01 0.98546765E+03</pdfrwt>
<pdfrwt beam="2">  1       -2 0.11168879E+00 0.98546765E+03</pdfrwt>
<totfact> 0.61509149E+01</totfact>
</mgrwt>
</event>
<event>
 6    1  0.1588846E-005  0.8917035E+03  0.7818608E-02  0.9436012E-01
         -2   -1    0    0    0  501 -0.00000000000E+00  0.00000000000E+00  0.93940126912E+02  0.93940126912E+02  0.00000000000E+00 0.  1.
          2   -1    0    0  501    0  0.00000000000E+00 -0.00000000000E+00 -0.21160688005E+04  0.21160688005E+04  0.00000000000E+00 0. -1.
         23    2    1    2    0    0  0.26261019004E+03 -0.17601891673E+03 -0.25804108857E+03  0.41781703519E+03  0.89661031339E+02 0.  0.
         11    1    3    3    0    0  0.62413286652E+02 -0.92256929473E+02 -0.80456112254E+02  0.13740431356E+03  0.00000000000E+00 0.  1.
        -11    1    3    3    0    0  0.20019690338E+03 -0.83761987262E+02 -0.17758497632E+03  0.28041272162E+03  0.00000000000E+00 0. -1.
         22    1    1    2    0    0 -0.26261019004E+03  0.17601891673E+03 -0.17640875850E+04  0.17921918922E+04  0.00000000000E+00 0. -1.
<mgrwt>
<rscale>  0 0.89170347E+03</rscale>
<asrwt>0</asrwt>
<pdfrwt beam="1">  1        2 0.32554902E+00 0.89170347E+03</pdfrwt>
<pdfrwt beam="2">  1       -2 0.14452328E-01 0.89170347E+03</pdfrwt>
<totfact> 0.21789884E+02</totfact>
</mgrwt>
</event>
<event>
 6    1  0.1588846E-005  0.4096702E+04  0.7818608E-02  0.7985318E-01
         -1   -1    0    0    0  501 -0.00000000000E+00  0.00000000000E+00  0.12395680410E+04  0.12395680410E+04  0.00000000000E+00 0.  1.
          1   -1    0    0  501    0  0.00000000000E+00 -0.00000000000E+00 -0.33848411571E+04  0.33848411571E+04  0.00000000000E+00 0. -1.
         23    2    1    2    0    0  0.12855114565E+04 -0.68558221636E+03 -0.26968728888E+04  0.30665821893E+04  0.90775907478E+02 0.  0.
         11    1    3    3    0    0  0.42909674977E+03 -0.18495083806E+03 -0.82788701636E+03  0.95064596198E+03  0.00000000000E+00 0. -1.
        -11    1    3    3    0    0  0.85641470669E+03 -0.50063137830E+03 -0.18689858724E+04  0.21159362273E+04  0.00000000000E+00 0.  1.
         22    1    1    2    0    0 -0.12855114565E+04  0.68558221636E+03  0.55159977266E+03  0.15578270088E+04  0.00000000000E+00 0.  1.
<mgrwt>
<rscale>  0 0.40967016E+04</rscale>
<asrwt>0</asrwt>
<pdfrwt beam="1">  1        1 0.52074479E+00 0.40967016E+04</pdfrwt>
<pdfrwt beam="2">  1       -1 0.19070278E+00 0.40967016E+04</pdfrwt>
<totfact> 0.41647862E-02</totfact>
</mgrwt>
</event>
<event>
 6    1  0.1588846E-005  0.2291634E+04  0.7818608E-02  0.8481227E-01
         -1   -1    0    0    0  501 -0.00000000000E+00  0.00000000000E+00  0.19262989727E+04  0.19262989727E+04  0.00000000000E+00 0.  1.
          1   -1    0    0  501    0  0.00000000000E+00 -0.00000000000E+00 -0.68156452800E+03  0.68156452800E+03  0.00000000000E+00 0. -1.
         23    2    1    2    0    0  0.39008557833E+03  0.79081168722E+03 -0.20612165862E+03  0.91006100465E+03  0.90415767284E+02 0.  0.
         11    1    3    3    0    0  0.90389618524E+02  0.12337204790E+03 -0.13762623355E+02  0.15355896308E+03  0.00000000000E+00 0. -1.
        -11    1    3    3    0    0  0.29969595980E+03  0.66743963932E+03 -0.19235903527E+03  0.75650204157E+03  0.00000000000E+00 0.  1.
         22    1    1    2    0    0 -0.39008557833E+03 -0.79081168722E+03  0.14508561034E+04  0.16978024961E+04  0.00000000000E+00 0.  1.
<mgrwt>
<rscale>  0 0.22916344E+04</rscale>
<asrwt>0</asrwt>
<pdfrwt beam="1">  1        1 0.10485608E+00 0.22916344E+04</pdfrwt>
<pdfrwt beam="2">  1       -1 0.29635369E+00 0.22916344E+04</pdfrwt>
<totfact> 0.89507575E-01</totfact>
</mgrwt>
</event>
<event>
 6    1  0.1588846E-005  0.8729913E+03  0.7818608E-02  0.9459988E-01
         -2   -1    0    0    0  501 -0.00000000000E+00  0.00000000000E+00  0.20690693484E+03  0.20690693484E+03  0.00000000000E+00 0.  1.
          2   -1    0    0  501    0  0.00000000000E+00 -0.00000000000E+00 -0.92084134399E+03  0.92084134399E+03  0.00000000000E+00 0. -1.
         23    2    1    2    0    0 -0.28104548093E+03 -0.23020705462E+03 -0.59029214679E+02  0.37882727894E+03  0.89687283026E+02 0.  0.
         11    1    3    3    0    0 -0.12175608480E+03 -0.62538476766E+02  0.10640665073E+02  0.13729103764E+03  0.00000000000E+00 0.  1.
        -11    1    3    3    0    0 -0.15928939612E+03 -0.16766857785E+03 -0.69669879752E+02  0.24153624130E+03  0.00000000000E+00 0. -1.
         22    1    1    2    0    0  0.28104548093E+03  0.23020705462E+03 -0.65490519447E+03  0.74892099990E+03  0.00000000000E+00 0. -1.
<mgrwt>
<rscale>  0 0.87299132E+03</rscale>
<asrwt>0</asrwt>
<pdfrwt beam="1">  1        2 0.14166790E+00 0.87299132E+03</pdfrwt>
<pdfrwt beam="2">  1       -2 0.31831835E-01 0.87299132E+03</pdfrwt>
<totfact> 0.26105567E+02</totfact>
</mgrwt>
</event>
<event>
 6    1  0.1588846E-005  0.1681811E+04  0.7818608E-02  0.8771807E-01
          1   -1    0    0  501    0  0.00000000000E+00  0.00000000000E+00  0.23654158676E+04  0.23654158676E+04  0.00000000000E+00 0. -1.
         -1   -1    0    0    0  501 -0.00000000000E+00 -0.00000000000E+00 -0.29894187223E+03  0.29894187223E+03  0.00000000000E+00 0.  1.
         23    2    1    2    0    0  0.73795505308E+03  0.15423345749E+03  0.45535940880E+03  0.88557843064E+03  0.92365284960E+02 0.  0.
         11    1    3    3    0    0  0.39804604660E+03  0.99203982162E+02  0.29773510019E+03  0.50688092801E+03  0.00000000000E+00 0.  1.
        -11    1    3    3    0    0  0.33990900647E+03  0.55029475327E+02  0.15762430861E+03  0.37869750263E+03  0.00000000000E+00 0. -1.
         22    1    1    2    0    0 -0.73795505308E+03 -0.15423345749E+03  0.16111145866E+04  0.17787793092E+04  0.00000000000E+00 0. -1.
<mgrwt>
<rscale>  0 0.16818107E+04</rscale>
<asrwt>0</asrwt>
<pdfrwt beam="1">  1        1 0.36391012E+00 0.16818107E+04</pdfrwt>
<pdfrwt beam="2">  1       -1 0.45991059E-01 0.16818107E+04</pdfrwt>
<totfact> 0.75287104E+00</totfact>
</mgrwt>
</event>
<event>
 6    1  0.1588846E-005  0.2910896E+04  0.7818608E-02  0.8269643E-01
          1   -1    0    0  501    0  0.00000000000E+00  0.00000000000E+00  0.17477315419E+04  0.17477315419E+04  0.00000000000E+00 0. -1.
         -1   -1    0    0    0  501 -0.00000000000E+00 -0.00000000000E+00 -0.12120450119E+04  0.12120450119E+04  0.00000000000E+00 0.  1.
         23    2    1    2    0    0 -0.16603641332E+02 -0.11800441363E+04 -0.59550817179E+03  0.13250345870E+04  0.91141810610E+02 0.  0.
         13    1    3    3    0    0 -0.46459651616E+01 -0.98381808003E+03 -0.45856857379E+03  0.10854513976E+04  0.00000000000E+00 0. -1.
        -13    1    3    3    0    0 -0.11957676170E+02 -0.19622605626E+03 -0.13693959801E+03  0.23958318947E+03  0.00000000000E+00 0.  1.
         22    1    1    2    0    0  0.16603641332E+02  0.11800441363E+04  0.11311947019E+04  0.16347419668E+04  0.00000000000E+00 0. -1.
<mgrwt>
<rscale>  0 0.29108963E+04</rscale>
<asrwt>0</asrwt>
<pdfrwt beam="1">  1        1 0.26888178E+00 0.29108963E+04</pdfrwt>
<pdfrwt beam="2">  1       -1 0.18646846E+00 0.29108963E+04</pdfrwt>
<totfact> 0.70962144E-01</totfact>
</mgrwt>
</event>
<event>
 6    1  0.1588846E-005  0.3562837E+04  0.7818608E-02  0.8099058E-01
          2   -1    0    0  501    0  0.00000000000E+00  0.00000000000E+00  0.72217955090E+03  0.72217955090E+03  0.00000000000E+00 0. -1.
         -2   -1    0    0    0  501 -0.00000000000E+00 -0.00000000000E+00 -0.43942692014E+04  0.43942692014E+04  0.00000000000E+00 0.  1.
         23    2    1    2    0    0  0.71605642454E+03 -0.59557634508E+03 -0.40161742411E+04  0.41235528909E+04  0.81147539051E+02 0.  0.
         13    1    3    3    0    0  0.57104812201E+03 -0.43052449439E+03 -0.30881199439E+04  0.31698473285E+04  0.00000000000E+00 0.  1.
        -13    1    3    3    0    0  0.14500830253E+03 -0.16505185070E+03 -0.92805429718E+03  0.95370556239E+03  0.00000000000E+00 0. -1.
         22    1    1    2    0    0 -0.71605642454E+03  0.59557634508E+03  0.34408459066E+03  0.99289586135E+03  0.00000000000E+00 0. -1.
<mgrwt>
<rscale>  0 0.35628367E+04</rscale>
<asrwt>0</asrwt>
<pdfrwt beam="1">  1        2 0.11110454E+00 0.35628367E+04</pdfrwt>
<pdfrwt beam="2">  1       -2 0.67604143E+00 0.35628367E+04</pdfrwt>
<totfact> 0.88098315E-03</totfact>
</mgrwt>
</event>
<event>
 6    1  0.1588846E-005  0.8070740E+03  0.7818608E-02  0.9549834E-01
         -1   -1    0    0    0  501 -0.00000000000E+00  0.00000000000E+00  0.22471095076E+03  0.22471095076E+03  0.00000000000E+00 0.  1.
          1   -1    0    0  501    0  0.00000000000E+00 -0.00000000000E+00 -0.72467370441E+03  0.72467370441E+03  0.00000000000E+00 0. -1.
         23    2    1    2    0    0  0.22272892749E+03 -0.17750762847E+03  0.72579178642E+02  0.30991503310E+03  0.98297798882E+02 0.  0.
         13    1    3    3    0    0  0.10189851027E+03 -0.33823509964E+02  0.56935075893E+02  0.12152752400E+03  0.00000000000E+00 0. -1.
        -13    1    3    3    0    0  0.12083041721E+03 -0.14368411851E+03  0.15644102748E+02  0.18838750910E+03  0.00000000000E+00 0.  1.
         22    1    1    2    0    0 -0.22272892749E+03  0.17750762847E+03 -0.57254193230E+03  0.63946962207E+03  0.00000000000E+00 0. -1.
<mgrwt>
<rscale>  0 0.80707402E+03</rscale>
<asrwt>0</asrwt>
<pdfrwt beam="1">  1        1 0.11148826E+00 0.80707402E+03</pdfrwt>
<pdfrwt beam="2">  1       -1 0.34570916E-01 0.80707402E+03</pdfrwt>
<totfact> 0.20697585E+02</totfact>
</mgrwt>
</event>
<event>
 6    1  0.1776035E-005  0.3843171E+04  0.7818608E-02  0.8036953E-01
          1   -1    0    0  501    0  0.00000000000E+00  0.00000000000E+00  0.25742547207E+04  0.25742547207E+04  0.00000000000E+00 0. -1.
         -1   -1    0    0    0  501 -0.00000000000E+00 -0.00000000000E+00 -0.14343923592E+04  0.14343923592E+04  0.00000000000E+00 0.  1.
         23    2    1    2    0    0  0.75089087711E+03  0.15792992812E+03 -0.12660833169E+04  0.14833048102E+04  0.91908775839E+02 0.  0.
         13    1    3    3    0    0  0.45699449253E+03  0.50764625542E+02 -0.73797699141E+03  0.86950046190E+03  0.00000000000E+00 0. -1.
        -13    1    3    3    0    0  0.29389638458E+03  0.10716530258E+03 -0.52810632554E+03  0.61380434832E+03  0.00000000000E+00 0.  1.
         22    1    1    2    0    0 -0.75089087711E+03 -0.15792992812E+03  0.24059456785E+04  0.25253422697E+04  0.00000000000E+00 0. -1.
<mgrwt>
<rscale>  0 0.38431712E+04</rscale>
<asrwt>0</asrwt>
<pdfrwt beam="1">  1        1 0.39603919E+00 0.38431712E+04</pdfrwt>
<pdfrwt beam="2">  1       -1 0.22067575E+00 0.38431712E+04</pdfrwt>
<totfact> 0.10383624E-01</totfact>
</mgrwt>
</event>
<event>
 6    1  0.1588846E-005  0.1817432E+04  0.7818608E-02  0.8697084E-01
         -2   -1    0    0    0  501 -0.00000000000E+00  0.00000000000E+00  0.10332678695E+04  0.10332678695E+04  0.00000000000E+00 0. -1.
          2   -1    0    0  501    0  0.00000000000E+00 -0.00000000000E+00 -0.79917812691E+03  0.79917812691E+03  0.00000000000E+00 0.  1.
         23    2    1    2    0    0  0.22246416133E+03 -0.74839849197E+03  0.58159228753E+03  0.97784162917E+03  0.91291056317E+02 0.  0.
         11    1    3    3    0    0  0.54326084219E+02 -0.30587935922E+03  0.19639972616E+03  0.36754096133E+03  0.00000000000E+00 0.  1.
        -11    1    3    3    0    0  0.16813807711E+03 -0.44251913275E+03  0.38519256138E+03  0.61030066784E+03  0.00000000000E+00 0. -1.
         22    1    1    2    0    0 -0.22246416133E+03  0.74839849197E+03 -0.34750254491E+03  0.85460436728E+03  0.00000000000E+00 0.  1.
<mgrwt>
<rscale>  0 0.18174323E+04</rscale>
<asrwt>0</asrwt>
<pdfrwt beam="1">  1        2 0.12295048E+00 0.18174323E+04</pdfrwt>
<pdfrwt beam="2">  1       -2 0.15896429E+00 0.18174323E+04</pdfrwt>
<totfact> 0.83336027E+00</totfact>
</mgrwt>
</event>
<event>
 6    1  0.1588846E-005  0.2774085E+04  0.7818608E-02  0.8311359E-01
          2   -1    0    0  501    0  0.00000000000E+00  0.00000000000E+00  0.33083757834E+04  0.33083757834E+04  0.00000000000E+00 0.  1.
         -2   -1    0    0    0  501 -0.00000000000E+00 -0.00000000000E+00 -0.58152020665E+03  0.58152020665E+03  0.00000000000E+00 0. -1.
         23    2    1    2    0    0  0.10036962933E+04  0.33851806848E+03  0.11261743671E+03  0.10692149048E+04  0.92396393928E+02 0.  0.
         11    1    3    3    0    0  0.42736582699E+03  0.10813570319E+03  0.77121541329E+02  0.44752945436E+03  0.00000000000E+00 0. -1.
        -11    1    3    3    0    0  0.57633046635E+03  0.23038236529E+03  0.35495895376E+02  0.62168545043E+03  0.00000000000E+00 0.  1.
         22    1    1    2    0    0 -0.10036962933E+04 -0.33851806848E+03  0.26142381400E+04  0.28206810853E+04  0.00000000000E+00 0.  1.
<mgrwt>
<rscale>  0 0.27740853E+04</rscale>
<asrwt>0</asrwt>
<pdfrwt beam="1">  1        2 0.50898088E+00 0.27740853E+04</pdfrwt>
<pdfrwt beam="2">  1       -2 0.89464649E-01 0.27740853E+04</pdfrwt>
<totfact> 0.10270975E+00</totfact>
</mgrwt>
</event>
<event>
 6    1  0.1588846E-005  0.1252016E+04  0.7818608E-02  0.9068507E-01
          1   -1    0    0  501    0  0.00000000000E+00  0.00000000000E+00  0.21966693965E+04  0.21966693965E+04  0.00000000000E+00 0. -1.
         -1   -1    0    0    0  501 -0.00000000000E+00 -0.00000000000E+00 -0.17839997032E+03  0.17839997032E+03  0.00000000000E+00 0.  1.
         23    2    1    2    0    0 -0.16709299497E+03  0.50488967395E+03  0.16286445698E+04  0.17157961454E+04  0.92949587924E+02 0.  0.
         13    1    3    3    0    0 -0.10099585169E+03  0.32000478500E+03  0.11631430219E+04  0.12105804037E+04  0.00000000000E+00 0. -1.
        -13    1    3    3    0    0 -0.66097143281E+02  0.18488488895E+03  0.46550154792E+03  0.50521574167E+03  0.00000000000E+00 0.  1.
         22    1    1    2    0    0  0.16709299497E+03 -0.50488967395E+03  0.38962485641E+03  0.65927322148E+03  0.00000000000E+00 0.  1.
<mgrwt>
<rscale>  0 0.12520156E+04</rscale>
<asrwt>0</asrwt>
<pdfrwt beam="1">  1        1 0.33794912E+00 0.12520156E+04</pdfrwt>
<pdfrwt beam="2">  1       -1 0.27446151E-01 0.12520156E+04</pdfrwt>
<totfact> 0.25812885E+01</totfact>
</mgrwt>
</event>
<event>
 6    1  0.1588846E-005  0.2198837E+04  0.7818608E-02  0.8518912E-01
          1   -1    0    0  501    0  0.00000000000E+00  0.00000000000E+00  0.13826663485E+04  0.13826663485E+04  0.00000000000E+00 0. -1.
         -1   -1    0    0    0  501 -0.00000000000E+00 -0.00000000000E+00 -0.87419549315E+03  0.87419549315E+03  0.00000000000E+00 0.  1.
         23    2    1    2    0    0 -0.65518705287E+03 -0.24311910855E+03  0.11231491896E+04  0.13261597251E+04  0.94119813429E+02 0.  0.
         11    1    3    3    0    0 -0.60741370263E+03 -0.24907400718E+03  0.10584446152E+04  0.12455096429E+04  0.00000000000E+00 0.  1.
        -11    1    3    3    0    0 -0.47773350243E+02  0.59548986338E+01  0.64704574440E+02  0.80650082236E+02  0.00000000000E+00 0. -1.
         22    1    1    2    0    0  0.65518705287E+03  0.24311910855E+03 -0.61467833422E+03  0.93070211655E+03  0.00000000000E+00 0.  1.
<mgrwt>
<rscale>  0 0.21988367E+04</rscale>
<asrwt>0</asrwt>
<pdfrwt beam="1">  1        1 0.21271790E+00 0.21988367E+04</pdfrwt>
<pdfrwt beam="2">  1       -1 0.13449161E+00 0.21988367E+04</pdfrwt>
<totfact> 0.33513853E+00</totfact>
</mgrwt>
</event>
<event>
 6    1  0.1588846E-005  0.3207462E+04  0.7818608E-02  0.8186849E-01
          2   -1    0    0  501    0  0.00000000000E+00  0.00000000000E+00  0.25929903537E+04  0.25929903537E+04  0.00000000000E+00 0. -1.
         -2   -1    0    0    0  501 -0.00000000000E+00 -0.00000000000E+00 -0.99188685096E+03  0.99188685096E+03  0.00000000000E+00 0.  1.
         23    2    1    2    0    0  0.15513521229E+04 -0.16353691268E+03  0.12109544342E+04  0.19768803058E+04  0.90594542162E+02 0.  0.
         11    1    3    3    0    0  0.95766073046E+03 -0.99815395728E+02  0.80265819254E+03  0.12535299605E+04  0.00000000000E+00 0. -1.
        -11    1    3    3    0    0  0.59369139242E+03 -0.63721516949E+02  0.40829624163E+03  0.72335034532E+03  0.00000000000E+00 0.  1.
         22    1    1    2    0    0 -0.15513521229E+04  0.16353691268E+03  0.39014906860E+03  0.16079968988E+04  0.00000000000E+00 0. -1.
<mgrwt>
<rscale>  0 0.32074619E+04</rscale>
<asrwt>0</asrwt>
<pdfrwt beam="1">  1        2 0.39892159E+00 0.32074619E+04</pdfrwt>
<pdfrwt beam="2">  1       -2 0.15259798E+00 0.32074619E+04</pdfrwt>
<totfact> 0.73983608E-01</totfact>
</mgrwt>
</event>
<event>
 6    1  0.1588846E-005  0.2848239E+04  0.7818608E-02  0.8288447E-01
         -2   -1    0    0    0  501 -0.00000000000E+00  0.00000000000E+00  0.87206476263E+03  0.87206476263E+03  0.00000000000E+00 0. -1.
          2   -1    0    0  501    0  0.00000000000E+00 -0.00000000000E+00 -0.23256486740E+04  0.23256486740E+04  0.00000000000E+00 0.  1.
         23    2    1    2    0    0  0.11637744453E+04 -0.58946868618E+03 -0.90198724850E+02  0.13107414023E+04  0.89793776520E+02 0.  0.
         11    1    3    3    0    0  0.80324725421E+03 -0.35965531596E+03 -0.60381197701E+02  0.88215870836E+03  0.00000000000E+00 0.  1.
        -11    1    3    3    0    0  0.36052719105E+03 -0.22981337023E+03 -0.29817527149E+02  0.42858269395E+03  0.00000000000E+00 0. -1.
         22    1    1    2    0    0 -0.11637744453E+04  0.58946868618E+03 -0.13633851865E+04  0.18869720343E+04  0.00000000000E+00 0.  1.
<mgrwt>
<rscale>  0 0.28482389E+04</rscale>
<asrwt>0</asrwt>
<pdfrwt beam="1">  1        2 0.35779210E+00 0.28482389E+04</pdfrwt>
<pdfrwt beam="2">  1       -2 0.13416381E+00 0.28482389E+04</pdfrwt>
<totfact> 0.15228427E+00</totfact>
</mgrwt>
</event>
<event>
 6    1  0.1588846E-005  0.2251169E+04  0.7818608E-02  0.8497427E-01
          2   -1    0    0  501    0  0.00000000000E+00  0.00000000000E+00  0.11066791483E+04  0.11066791483E+04  0.00000000000E+00 0. -1.
         -2   -1    0    0    0  501 -0.00000000000E+00 -0.00000000000E+00 -0.11448132568E+04  0.11448132568E+04  0.00000000000E+00 0.  1.
         23    2    1    2    0    0 -0.73408823049E+03 -0.59450939668E+03  0.58973289165E+03  0.11172332094E+04  0.89990043362E+02 0.  0.
         13    1    3    3    0    0 -0.60203300181E+03 -0.45160196982E+03  0.44059299059E+03  0.87207239251E+03  0.00000000000E+00 0.  1.
        -13    1    3    3    0    0 -0.13205522868E+03 -0.14290742686E+03  0.14913990106E+03  0.24516081694E+03  0.00000000000E+00 0. -1.
         22    1    1    2    0    0  0.73408823049E+03  0.59450939668E+03 -0.62786700015E+03  0.11342591956E+04  0.00000000000E+00 0.  1.
<mgrwt>
<rscale>  0 0.22511694E+04</rscale>
<asrwt>0</asrwt>
<pdfrwt beam="1">  1        2 0.17025833E+00 0.22511694E+04</pdfrwt>
<pdfrwt beam="2">  1       -2 0.17612512E+00 0.22511694E+04</pdfrwt>
<totfact> 0.37896719E+00</totfact>
</mgrwt>
</event>
<event>
 6    1  0.1588846E-005  0.1878479E+04  0.7818608E-02  0.8665643E-01
         -2   -1    0    0    0  501 -0.00000000000E+00  0.00000000000E+00  0.44899635150E+03  0.44899635150E+03  0.00000000000E+00 0.  1.
          2   -1    0    0  501    0  0.00000000000E+00 -0.00000000000E+00 -0.19647622648E+04  0.19647622648E+04  0.00000000000E+00 0. -1.
         23    2    1    2    0    0  0.44725286622E+03  0.81217945558E+03 -0.58542717136E+03  0.11002896334E+04  0.90783863682E+02 0.  0.
         13    1    3    3    0    0  0.14071189044E+03  0.29635007353E+03 -0.25327081510E+03  0.41445060981E+03  0.00000000000E+00 0. -1.
        -13    1    3    3    0    0  0.30654097577E+03  0.51582938205E+03 -0.33215635626E+03  0.68583902354E+03  0.00000000000E+00 0.  1.
         22    1    1    2    0    0 -0.44725286622E+03 -0.81217945558E+03 -0.93033874190E+03  0.13134689829E+04  0.00000000000E+00 0. -1.
<mgrwt>
<rscale>  0 0.18784793E+04</rscale>
<asrwt>0</asrwt>
<pdfrwt beam="1">  1        2 0.30227112E+00 0.18784793E+04</pdfrwt>
<pdfrwt beam="2">  1       -2 0.69076362E-01 0.18784793E+04</pdfrwt>
<totfact> 0.12547770E+01</totfact>
</mgrwt>
</event>
<event>
 6    1  0.1588846E-005  0.2416441E+04  0.7818608E-02  0.8433374E-01
          1   -1    0    0  501    0  0.00000000000E+00  0.00000000000E+00  0.11499241370E+04  0.11499241370E+04  0.00000000000E+00 0. -1.
         -1   -1    0    0    0  501 -0.00000000000E+00 -0.00000000000E+00 -0.12694719004E+04  0.12694719004E+04  0.00000000000E+00 0.  1.
         23    2    1    2    0    0  0.65135163898E+03 -0.36533199339E+02  0.95630098970E+03  0.11612052045E+04  0.91062131710E+02 0.  0.
         13    1    3    3    0    0  0.13711647144E+03 -0.13952281878E+02  0.27199554569E+03  0.30492157973E+03  0.00000000000E+00 0. -1.
        -13    1    3    3    0    0  0.51423516755E+03 -0.22580917461E+02  0.68430544400E+03  0.85628362478E+03  0.00000000000E+00 0.  1.
         22    1    1    2    0    0 -0.65135163898E+03  0.36533199339E+02 -0.10758487532E+04  0.12581908329E+04  0.00000000000E+00 0.  1.
<mgrwt>
<rscale>  0 0.24164407E+04</rscale>
<asrwt>0</asrwt>
<pdfrwt beam="1">  1        1 0.17691141E+00 0.24164407E+04</pdfrwt>
<pdfrwt beam="2">  1       -1 0.19530337E+00 0.24164407E+04</pdfrwt>
<totfact> 0.16888931E+00</totfact>
</mgrwt>
</event>
<event>
 6    1  0.1588846E-005  0.1442560E+04  0.7818608E-02  0.8923575E-01
          2   -1    0    0  501    0  0.00000000000E+00  0.00000000000E+00  0.13032534644E+04  0.13032534644E+04  0.00000000000E+00 0. -1.
         -2   -1    0    0    0  501 -0.00000000000E+00 -0.00000000000E+00 -0.39918949379E+03  0.39918949379E+03  0.00000000000E+00 0.  1.
         23    2    1    2    0    0  0.12440422500E+02 -0.42509311554E+03 -0.22936459606E+03  0.49185663880E+03  0.91956045023E+02 0.  0.
         13    1    3    3    0    0  0.95233566244E+00 -0.94296710232E+02 -0.10138621183E+02  0.94844968993E+02  0.00000000000E+00 0. -1.
        -13    1    3    3    0    0  0.11488086838E+02 -0.33079640530E+03 -0.21922597487E+03  0.39701166980E+03  0.00000000000E+00 0.  1.
         22    1    1    2    0    0 -0.12440422500E+02  0.42509311554E+03  0.11334285666E+04  0.12105863194E+04  0.00000000000E+00 0. -1.
<mgrwt>
<rscale>  0 0.14425603E+04</rscale>
<asrwt>0</asrwt>
<pdfrwt beam="1">  1        2 0.20050053E+00 0.14425603E+04</pdfrwt>
<pdfrwt beam="2">  1       -2 0.61413769E-01 0.14425603E+04</pdfrwt>
<totfact> 0.39366169E+01</totfact>
</mgrwt>
</event>
<event>
 6    1  0.3469059E-005  0.4810784E+04  0.7818608E-02  0.7858377E-01
         -2   -1    0    0    0  501 -0.00000000000E+00  0.00000000000E+00  0.23202145154E+04  0.23202145154E+04  0.00000000000E+00 0. -1.
          2   -1    0    0  501    0  0.00000000000E+00 -0.00000000000E+00 -0.24936964665E+04  0.24936964665E+04  0.00000000000E+00 0.  1.
         23    2    1    2    0    0  0.26743657035E+03  0.36815633601E+03  0.22758262736E+04  0.23226919656E+04  0.91931128588E+02 0.  0.
         11    1    3    3    0    0  0.76887210365E+02  0.13849985018E+03  0.99724720260E+03  0.10097503824E+04  0.00000000000E+00 0.  1.
        -11    1    3    3    0    0  0.19054935998E+03  0.22965648583E+03  0.12785790710E+04  0.13129415832E+04  0.00000000000E+00 0. -1.
         22    1    1    2    0    0 -0.26743657035E+03 -0.36815633601E+03 -0.24493082248E+04  0.24912190162E+04  0.00000000000E+00 0.  1.
<mgrwt>
<rscale>  0 0.48107840E+04</rscale>
<asrwt>0</asrwt>
<pdfrwt beam="1">  1        2 0.38364561E+00 0.48107840E+04</pdfrwt>
<pdfrwt beam="2">  1       -2 0.35695608E+00 0.48107840E+04</pdfrwt>
<totfact> 0.36479505E-02</totfact>
</mgrwt>
</event>
<event>
 6    1  0.1588846E-005  0.2116449E+04  0.7818608E-02  0.8554032E-01
          2   -1    0    0  501    0  0.00000000000E+00  0.00000000000E+00  0.18461738421E+04  0.18461738421E+04  0.00000000000E+00 0. -1.
         -2   -1    0    0    0  501 -0.00000000000E+00 -0.00000000000E+00 -0.60657279671E+03  0.60657279671E+03  0.00000000000E+00 0.  1.
         23    2    1    2    0    0 -0.56759647905E+03 -0.89049289238E+03  0.59369762856E+03  0.12148716135E+04  0.91064859752E+02 0.  0.
         13    1    3    3    0    0 -0.31225246808E+03 -0.56412332109E+03  0.38374506175E+03  0.75033125860E+03  0.00000000000E+00 0. -1.
        -13    1    3    3    0    0 -0.25534401097E+03 -0.32636957129E+03  0.20995256682E+03  0.46454035488E+03  0.00000000000E+00 0.  1.
         22    1    1    2    0    0  0.56759647905E+03  0.89049289238E+03  0.64590341679E+03  0.12378750253E+04  0.00000000000E+00 0.  1.
<mgrwt>
<rscale>  0 0.21164488E+04</rscale>
<asrwt>0</asrwt>
<pdfrwt beam="1">  1        2 0.28402674E+00 0.21164488E+04</pdfrwt>
<pdfrwt beam="2">  1       -2 0.93318892E-01 0.21164488E+04</pdfrwt>
<totfact> 0.72737415E+00</totfact>
</mgrwt>
</event>
<event>
 6    1  0.1588846E-005  0.3065896E+04  0.7818608E-02  0.8225160E-01
          1   -1    0    0  501    0  0.00000000000E+00  0.00000000000E+00  0.80961261044E+03  0.80961261044E+03  0.00000000000E+00 0. -1.
         -1   -1    0    0    0  501 -0.00000000000E+00 -0.00000000000E+00 -0.29025350272E+04  0.29025350272E+04  0.00000000000E+00 0.  1.
         23    2    1    2    0    0  0.46234710574E+03  0.10882562261E+04 -0.22261622724E+04  0.25222655767E+04  0.89211640402E+02 0.  0.
         13    1    3    3    0    0  0.28085369927E+03  0.56952364440E+03 -0.11370050278E+04  0.13023119500E+04  0.00000000000E+00 0. -1.
        -13    1    3    3    0    0  0.18149340647E+03  0.51873258166E+03 -0.10891572446E+04  0.12199536267E+04  0.00000000000E+00 0.  1.
         22    1    1    2    0    0 -0.46234710574E+03 -0.10882562261E+04  0.13323985564E+03  0.11898820609E+04  0.00000000000E+00 0. -1.
<mgrwt>
<rscale>  0 0.30658956E+04</rscale>
<asrwt>0</asrwt>
<pdfrwt beam="1">  1        1 0.12455579E+00 0.30658956E+04</pdfrwt>
<pdfrwt beam="2">  1       -1 0.44654385E+00 0.30658956E+04</pdfrwt>
<totfact> 0.62671274E-02</totfact>
</mgrwt>
</event>
<event>
 6    1  0.1588846E-005  0.3071126E+04  0.7818608E-02  0.8223707E-01
          1   -1    0    0  501    0  0.00000000000E+00  0.00000000000E+00  0.16701771632E+04  0.16701771632E+04  0.00000000000E+00 0. -1.
         -1   -1    0    0    0  501 -0.00000000000E+00 -0.00000000000E+00 -0.14117983249E+04  0.14117983249E+04  0.00000000000E+00 0.  1.
         23    2    1    2    0    0  0.14408308541E+04  0.34408884102E+02 -0.39844945989E+03  0.14981191390E+04  0.91768519885E+02 0.  0.
         13    1    3    3    0    0  0.99393316571E+03 -0.12649608943E+02 -0.29709009175E+03  0.10374611670E+04  0.00000000000E+00 0.  1.
        -13    1    3    3    0    0  0.44689768836E+03  0.47058493044E+02 -0.10135936813E+03  0.46065797197E+03  0.00000000000E+00 0. -1.
         22    1    1    2    0    0 -0.14408308541E+04 -0.34408884102E+02  0.65682829813E+03  0.15838563491E+04  0.00000000000E+00 0. -1.
<mgrwt>
<rscale>  0 0.30711257E+04</rscale>
<asrwt>0</asrwt>
<pdfrwt beam="1">  1        1 0.25695033E+00 0.30711257E+04</pdfrwt>
<pdfrwt beam="2">  1       -1 0.21719974E+00 0.30711257E+04</pdfrwt>
<totfact> 0.48560456E-01</totfact>
</mgrwt>
</event>
<event>
 6    1  0.1588846E-005  0.3385326E+04  0.7818608E-02  0.8141517E-01
         -2   -1    0    0    0  501 -0.00000000000E+00  0.00000000000E+00  0.76225952816E+03  0.76225952816E+03  0.00000000000E+00 0.  1.
          2   -1    0    0  501    0  0.00000000000E+00 -0.00000000000E+00 -0.37587046060E+04  0.37587046060E+04  0.00000000000E+00 0. -1.
         23    2    1    2    0    0  0.43548970686E+03 -0.40868068255E+03 -0.36126594285E+04  0.36628316787E+04  0.91414306981E+02 0.  0.
         13    1    3    3    0    0  0.10532371691E+03 -0.59804537794E+02 -0.87674531071E+03  0.88507175299E+03  0.00000000000E+00 0. -1.
        -13    1    3    3    0    0  0.33016598995E+03 -0.34887614476E+03 -0.27359141178E+04  0.27777599257E+04  0.00000000000E+00 0.  1.
         22    1    1    2    0    0 -0.43548970686E+03  0.40868068255E+03  0.61621435066E+03  0.85813245541E+03  0.00000000000E+00 0.  1.
<mgrwt>
<rscale>  0 0.33853262E+04</rscale>
<asrwt>0</asrwt>
<pdfrwt beam="1">  1        2 0.57826226E+00 0.33853262E+04</pdfrwt>
<pdfrwt beam="2">  1       -2 0.11727069E+00 0.33853262E+04</pdfrwt>
<totfact> 0.24556549E-01</totfact>
</mgrwt>
</event>
<event>
 6    1  0.1588846E-005  0.2006797E+03  0.7818608E-02  0.1149167E+00
         -1   -1    0    0    0  501 -0.00000000000E+00  0.00000000000E+00  0.18928607090E+03  0.18928607090E+03  0.00000000000E+00 0.  1.
          1   -1    0    0  501    0  0.00000000000E+00 -0.00000000000E+00 -0.53189768520E+02  0.53189768520E+02  0.00000000000E+00 0. -1.
         23    2    1    2    0    0  0.22865848292E+02 -0.74054939123E+02  0.10891134585E+03  0.16034178505E+03  0.88548437315E+02 0.  0.
         13    1    3    3    0    0 -0.30878767217E+02 -0.99202696434E+01  0.19319254326E+02  0.37751074188E+02  0.00000000000E+00 0.  1.
        -13    1    3    3    0    0  0.53744615509E+02 -0.64134669480E+02  0.89592091520E+02  0.12259071086E+03  0.00000000000E+00 0. -1.
         22    1    1    2    0    0 -0.22865848292E+02  0.74054939123E+02  0.27184956538E+02  0.82134054379E+02  0.00000000000E+00 0.  1.
<mgrwt>
<rscale>  0 0.20067967E+03</rscale>
<asrwt>0</asrwt>
<pdfrwt beam="1">  1        1 0.81830414E-02 0.20067967E+03</pdfrwt>
<pdfrwt beam="2">  1       -1 0.29120934E-01 0.20067967E+03</pdfrwt>
<totfact> 0.88015929E+03</totfact>
</mgrwt>
</event>
<event>
 6    1  0.1588846E-005  0.9550205E+03  0.7818608E-02  0.9359302E-01
         -1   -1    0    0    0  501 -0.00000000000E+00  0.00000000000E+00  0.39305809713E+03  0.39305809713E+03  0.00000000000E+00 0.  1.
          1   -1    0    0  501    0  0.00000000000E+00 -0.00000000000E+00 -0.58010771276E+03  0.58010771276E+03  0.00000000000E+00 0. -1.
         23    2    1    2    0    0  0.23631849180E+03  0.15204583977E+03  0.29341034428E+03  0.41656349222E+03  0.92038828591E+02 0.  0.
         13    1    3    3    0    0  0.83115499583E+02  0.94388326922E+02  0.86092085354E+02  0.15241125185E+03  0.00000000000E+00 0.  1.
        -13    1    3    3    0    0  0.15320299221E+03  0.57657512845E+02  0.20731825892E+03  0.26415224037E+03  0.00000000000E+00 0. -1.
         22    1    1    2    0    0 -0.23631849180E+03 -0.15204583977E+03 -0.48045995990E+03  0.55660231766E+03  0.00000000000E+00 0. -1.
<mgrwt>
<rscale>  0 0.95502049E+03</rscale>
<asrwt>0</asrwt>
<pdfrwt beam="1">  1        1 0.89247340E-01 0.95502049E+03</pdfrwt>
<pdfrwt beam="2">  1       -1 0.60470477E-01 0.95502049E+03</pdfrwt>
<totfact> 0.10023744E+02</totfact>
</mgrwt>
</event>
<event>
 6    1  0.1588846E-005  0.2253411E+04  0.7818608E-02  0.8496521E-01
          2   -1    0    0  501    0  0.00000000000E+00  0.00000000000E+00  0.12022123909E+04  0.12022123909E+04  0.00000000000E+00 0. -1.
         -2   -1    0    0    0  501 -0.00000000000E+00 -0.00000000000E+00 -0.10559404976E+04  0.10559404976E+04  0.00000000000E+00 0.  1.
         23    2    1    2    0    0 -0.61794203781E+03 -0.48972483140E+03  0.87709405059E+03  0.11830790315E+04  0.93269762124E+02 0.  0.
         11    1    3    3    0    0 -0.34245203943E+03 -0.27707222352E+03  0.55797881716E+03  0.71090278995E+03  0.00000000000E+00 0.  1.
        -11    1    3    3    0    0 -0.27548999838E+03 -0.21265260788E+03  0.31911523343E+03  0.47217624151E+03  0.00000000000E+00 0. -1.
         22    1    1    2    0    0  0.61794203781E+03  0.48972483140E+03 -0.73082215722E+03  0.10750738570E+04  0.00000000000E+00 0.  1.
<mgrwt>
<rscale>  0 0.22534105E+04</rscale>
<asrwt>0</asrwt>
<pdfrwt beam="1">  1        2 0.18495575E+00 0.22534105E+04</pdfrwt>
<pdfrwt beam="2">  1       -2 0.16245238E+00 0.22534105E+04</pdfrwt>
<totfact> 0.41526548E+00</totfact>
</mgrwt>
</event>
<event>
 6    1  0.1588846E-005  0.2282188E+04  0.7818608E-02  0.8484977E-01
         -3   -1    0    0    0  501 -0.00000000000E+00  0.00000000000E+00  0.13282210137E+04  0.13282210137E+04  0.00000000000E+00 0.  1.
          3   -1    0    0  501    0  0.00000000000E+00 -0.00000000000E+00 -0.98033076621E+03  0.98033076621E+03  0.00000000000E+00 0. -1.
         23    2    1    2    0    0  0.12418539250E+03  0.10222257127E+04 -0.31860888872E+03  0.10819350843E+04  0.93297820517E+02 0.  0.
         11    1    3    3    0    0  0.92559973933E+02  0.50804479831E+03 -0.19632774806E+03  0.55246850637E+03  0.00000000000E+00 0. -1.
        -11    1    3    3    0    0  0.31625418571E+02  0.51418091435E+03 -0.12228114066E+03  0.52946657793E+03  0.00000000000E+00 0.  1.
         22    1    1    2    0    0 -0.12418539250E+03 -0.10222257127E+04  0.66649913617E+03  0.12266166956E+04  0.00000000000E+00 0.  1.
<mgrwt>
<rscale>  0 0.22821884E+04</rscale>
<asrwt>0</asrwt>
<pdfrwt beam="1">  1        3 0.15082012E+00 0.22821884E+04</pdfrwt>
<pdfrwt beam="2">  1       -3 0.20434169E+00 0.22821884E+04</pdfrwt>
<totfact> 0.10385446E-01</totfact>
</mgrwt>
</event>
<event>
 6    1  0.1588846E-005  0.3061339E+04  0.7818608E-02  0.8226429E-01
          2   -1    0    0  501    0  0.00000000000E+00  0.00000000000E+00  0.13419491550E+04  0.13419491550E+04  0.00000000000E+00 0. -1.
         -2   -1    0    0    0  501 -0.00000000000E+00 -0.00000000000E+00 -0.17459293847E+04  0.17459293847E+04  0.00000000000E+00 0.  1.
         23    2    1    2    0    0  0.13711926742E+04  0.35541796918E+03  0.37927058031E+03  0.14692454392E+04  0.91349357523E+02 0.  0.
         13    1    3    3    0    0  0.10923485474E+04  0.25412994383E+03  0.32490755315E+03  0.11676353435E+04  0.00000000000E+00 0. -1.
        -13    1    3    3    0    0  0.27884412681E+03  0.10128802535E+03  0.54363027162E+02  0.30161009575E+03  0.00000000000E+00 0.  1.
         22    1    1    2    0    0 -0.13711926742E+04 -0.35541796918E+03 -0.78325081004E+03  0.16186331005E+04  0.00000000000E+00 0.  1.
<mgrwt>
<rscale>  0 0.30613386E+04</rscale>
<asrwt>0</asrwt>
<pdfrwt beam="1">  1        2 0.20645372E+00 0.30613386E+04</pdfrwt>
<pdfrwt beam="2">  1       -2 0.26860452E+00 0.30613386E+04</pdfrwt>
<totfact> 0.65793135E-01</totfact>
</mgrwt>
</event>
<event>
 6    1  0.1588846E-005  0.2943889E+04  0.7818608E-02  0.8259938E-01
         -2   -1    0    0    0  501 -0.00000000000E+00  0.00000000000E+00  0.51918245559E+03  0.51918245559E+03  0.00000000000E+00 0.  1.
          2   -1    0    0  501    0  0.00000000000E+00 -0.00000000000E+00 -0.41731404906E+04  0.41731404906E+04  0.00000000000E+00 0. -1.
         23    2    1    2    0    0  0.10003468997E+04  0.40751416827E+02 -0.35455136753E+04  0.36852902869E+04  0.91338271893E+02 0.  0.
         11    1    3    3    0    0  0.36589950973E+03 -0.29058299986E+02 -0.13008111621E+04  0.13516051626E+04  0.00000000000E+00 0. -1.
        -11    1    3    3    0    0  0.63444738994E+03  0.69809716813E+02 -0.22447025131E+04  0.23336851243E+04  0.00000000000E+00 0.  1.
         22    1    1    2    0    0 -0.10003468997E+04 -0.40751416827E+02 -0.10844435975E+03  0.10070326593E+04  0.00000000000E+00 0.  1.
<mgrwt>
<rscale>  0 0.29438895E+04</rscale>
<asrwt>0</asrwt>
<pdfrwt beam="1">  1        2 0.64202163E+00 0.29438895E+04</pdfrwt>
<pdfrwt beam="2">  1       -2 0.79874221E-01 0.29438895E+04</pdfrwt>
<totfact> 0.29257861E-01</totfact>
</mgrwt>
</event>
<event>
 6    1  0.1588846E-005  0.4173601E+04  0.7818608E-02  0.7970413E-01
         -1   -1    0    0    0  501 -0.00000000000E+00  0.00000000000E+00  0.96984753105E+03  0.96984753105E+03  0.00000000000E+00 0.  1.
          1   -1    0    0  501    0  0.00000000000E+00 -0.00000000000E+00 -0.44901257429E+04  0.44901257429E+04  0.00000000000E+00 0. -1.
         23    2    1    2    0    0  0.50682394960E+03 -0.19118361677E+04 -0.26273199345E+04  0.32898667021E+04  0.91786881431E+02 0.  0.
         11    1    3    3    0    0  0.29444090718E+03 -0.12798641375E+04 -0.17404220683E+04  0.21803248919E+04  0.00000000000E+00 0. -1.
        -11    1    3    3    0    0  0.21238304242E+03 -0.63197203015E+03 -0.88689786619E+03  0.11095418102E+04  0.00000000000E+00 0.  1.
         22    1    1    2    0    0 -0.50682394960E+03  0.19118361677E+04 -0.89295827737E+03  0.21701065718E+04  0.00000000000E+00 0.  1.
<mgrwt>
<rscale>  0 0.41736015E+04</rscale>
<asrwt>0</asrwt>
<pdfrwt beam="1">  1        1 0.69078858E+00 0.41736015E+04</pdfrwt>
<pdfrwt beam="2">  1       -1 0.14920731E+00 0.41736015E+04</pdfrwt>
<totfact> 0.89487908E-03</totfact>
</mgrwt>
</event>
<event>
 6    1  0.1588846E-005  0.2778687E+04  0.7818608E-02  0.8309916E-01
         -2   -1    0    0    0  501 -0.00000000000E+00  0.00000000000E+00  0.96689488859E+03  0.96689488859E+03  0.00000000000E+00 0.  1.
          2   -1    0    0  501    0  0.00000000000E+00 -0.00000000000E+00 -0.19963648908E+04  0.19963648908E+04  0.00000000000E+00 0. -1.
         23    2    1    2    0    0 -0.52581569789E+03 -0.42817529322E+03 -0.18065473200E+04  0.19319182318E+04  0.94226351958E+02 0.  0.
         13    1    3    3    0    0 -0.43877076008E+03 -0.30969782772E+03 -0.14489460789E+04  0.15452757889E+04  0.00000000000E+00 0. -1.
        -13    1    3    3    0    0 -0.87044937810E+02 -0.11847746549E+03 -0.35760124109E+03  0.38664244291E+03  0.00000000000E+00 0.  1.
         22    1    1    2    0    0  0.52581569789E+03  0.42817529322E+03  0.77707731777E+03  0.10313415475E+04  0.00000000000E+00 0.  1.
<mgrwt>
<rscale>  0 0.27786867E+04</rscale>
<asrwt>0</asrwt>
<pdfrwt beam="1">  1        2 0.30713306E+00 0.27786867E+04</pdfrwt>
<pdfrwt beam="2">  1       -2 0.14875306E+00 0.27786867E+04</pdfrwt>
<totfact> 0.17924239E+00</totfact>
</mgrwt>
</event>
<event>
 6    1  0.1588846E-005  0.3506588E+04  0.7818608E-02  0.8112231E-01
          1   -1    0    0  501    0  0.00000000000E+00  0.00000000000E+00  0.22668345123E+04  0.22668345123E+04  0.00000000000E+00 0. -1.
         -1   -1    0    0    0  501 -0.00000000000E+00 -0.00000000000E+00 -0.13560932518E+04  0.13560932518E+04  0.00000000000E+00 0.  1.
         23    2    1    2    0    0 -0.72904054303E+03  0.15683895806E+04  0.16563409822E+03  0.17397042847E+04  0.88262980973E+02 0.  0.
         13    1    3    3    0    0 -0.36148972822E+03  0.68622235505E+03  0.53126173869E+02  0.77743059788E+03  0.00000000000E+00 0. -1.
        -13    1    3    3    0    0 -0.36755081482E+03  0.88216722558E+03  0.11250792435E+03  0.96227368684E+03  0.00000000000E+00 0.  1.
         22    1    1    2    0    0  0.72904054303E+03 -0.15683895806E+04  0.74510716233E+03  0.18832234794E+04  0.00000000000E+00 0. -1.
<mgrwt>
<rscale>  0 0.35065875E+04</rscale>
<asrwt>0</asrwt>
<pdfrwt beam="1">  1        1 0.34874377E+00 0.35065875E+04</pdfrwt>
<pdfrwt beam="2">  1       -1 0.20862973E+00 0.35065875E+04</pdfrwt>
<totfact> 0.21003204E-01</totfact>
</mgrwt>
</event>
<event>
 6    1  0.1588846E-005  0.4360811E+03  0.7818608E-02  0.1031956E+00
          2   -1    0    0  501    0  0.00000000000E+00  0.00000000000E+00  0.21666164360E+03  0.21666164360E+03  0.00000000000E+00 0. -1.
         -2   -1    0    0    0  501 -0.00000000000E+00 -0.00000000000E+00 -0.21942826354E+03  0.21942826354E+03  0.00000000000E+00 0.  1.
         23    2    1    2    0    0  0.94476613330E+02 -0.80665986690E+02  0.16615263307E+03  0.22640789573E+03  0.90669762864E+02 0.  0.
         13    1    3    3    0    0  0.66012393216E+02 -0.75790356212E+02  0.61470218909E+02  0.11781511773E+03  0.00000000000E+00 0.  1.
        -13    1    3    3    0    0  0.28464220114E+02 -0.48756304773E+01  0.10468241416E+03  0.10859277800E+03  0.00000000000E+00 0. -1.
         22    1    1    2    0    0 -0.94476613330E+02  0.80665986690E+02 -0.16891925300E+03  0.20968201141E+03  0.00000000000E+00 0.  1.
<mgrwt>
<rscale>  0 0.43608113E+03</rscale>
<asrwt>0</asrwt>
<pdfrwt beam="1">  1        2 0.33332561E-01 0.43608113E+03</pdfrwt>
<pdfrwt beam="2">  1       -2 0.33758194E-01 0.43608113E+03</pdfrwt>
<totfact> 0.12923929E+03</totfact>
</mgrwt>
</event>
<event>
 6    1  0.1588846E-005  0.2224187E+04  0.7818608E-02  0.8508428E-01
          2   -1    0    0  501    0  0.00000000000E+00  0.00000000000E+00  0.14149970117E+04  0.14149970117E+04  0.00000000000E+00 0. -1.
         -2   -1    0    0    0  501 -0.00000000000E+00 -0.00000000000E+00 -0.87403157962E+03  0.87403157962E+03  0.00000000000E+00 0.  1.
         23    2    1    2    0    0 -0.92018439335E+02 -0.10309240143E+04 -0.14256648669E+03  0.10486707395E+04  0.90074415921E+02 0.  0.
         13    1    3    3    0    0  0.93378513175E+01 -0.35812174113E+03 -0.37264683746E+02  0.36017639233E+03  0.00000000000E+00 0. -1.
        -13    1    3    3    0    0 -0.10135629065E+03 -0.67280227318E+03 -0.10530180295E+03  0.68849434722E+03  0.00000000000E+00 0.  1.
         22    1    1    2    0    0  0.92018439335E+02  0.10309240143E+04  0.68353191874E+03  0.12403578517E+04  0.00000000000E+00 0. -1.
<mgrwt>
<rscale>  0 0.22241871E+04</rscale>
<asrwt>0</asrwt>
<pdfrwt beam="1">  1        2 0.21769185E+00 0.22241871E+04</pdfrwt>
<pdfrwt beam="2">  1       -2 0.13446640E+00 0.22241871E+04</pdfrwt>
<totfact> 0.51587581E+00</totfact>
</mgrwt>
</event>
<event>
 6    1  0.1588846E-005  0.1957083E+04  0.7818608E-02  0.8626953E-01
         -2   -1    0    0    0  501 -0.00000000000E+00  0.00000000000E+00  0.31602911740E+03  0.31602911740E+03  0.00000000000E+00 0.  1.
          2   -1    0    0  501    0  0.00000000000E+00 -0.00000000000E+00 -0.30299225120E+04  0.30299225120E+04  0.00000000000E+00 0. -1.
         23    2    1    2    0    0  0.94710683200E+03  0.12777917766E+03 -0.17030565715E+04  0.19548621455E+04  0.88008252302E+02 0.  0.
         13    1    3    3    0    0  0.45830047935E+03  0.39652384207E+02 -0.74151854875E+03  0.87261755603E+03  0.00000000000E+00 0.  1.
        -13    1    3    3    0    0  0.48880635265E+03  0.88126793452E+02 -0.96153802277E+03  0.10822445894E+04  0.00000000000E+00 0. -1.
         22    1    1    2    0    0 -0.94710683200E+03 -0.12777917766E+03 -0.10108368231E+04  0.13910894840E+04  0.00000000000E+00 0. -1.
<mgrwt>
<rscale>  0 0.19570833E+04</rscale>
<asrwt>0</asrwt>
<pdfrwt beam="1">  1        2 0.46614190E+00 0.19570833E+04</pdfrwt>
<pdfrwt beam="2">  1       -2 0.48619866E-01 0.19570833E+04</pdfrwt>
<totfact> 0.62451613E+00</totfact>
</mgrwt>
</event>
<event>
 6    1  0.1588846E-005  0.2032088E+04  0.7818608E-02  0.8591764E-01
         -1   -1    0    0    0  501 -0.00000000000E+00  0.00000000000E+00  0.80609595951E+03  0.80609595951E+03  0.00000000000E+00 0.  1.
          1   -1    0    0  501    0  0.00000000000E+00 -0.00000000000E+00 -0.12806731313E+04  0.12806731313E+04  0.00000000000E+00 0. -1.
         23    2    1    2    0    0  0.68548973472E+03 -0.18265146683E+03 -0.98174700682E+03  0.12147146337E+04  0.91906045285E+02 0.  0.
         11    1    3    3    0    0  0.38563992181E+03 -0.13487473135E+03 -0.50616150102E+03  0.65046814493E+03  0.00000000000E+00 0.  1.
        -11    1    3    3    0    0  0.29984981292E+03 -0.47776735482E+02 -0.47558550580E+03  0.56424648876E+03  0.00000000000E+00 0. -1.
         22    1    1    2    0    0 -0.68548973472E+03  0.18265146683E+03  0.50716983498E+03  0.87205445716E+03  0.00000000000E+00 0.  1.
<mgrwt>
<rscale>  0 0.20320880E+04</rscale>
<asrwt>0</asrwt>
<pdfrwt beam="1">  1        1 0.19702663E+00 0.20320880E+04</pdfrwt>
<pdfrwt beam="2">  1       -1 0.12401476E+00 0.20320880E+04</pdfrwt>
<totfact> 0.49313559E+00</totfact>
</mgrwt>
</event>
<event>
 6    1  0.1588846E-005  0.5454035E+03  0.7818608E-02  0.1002563E+00
          1   -1    0    0  501    0  0.00000000000E+00  0.00000000000E+00  0.32688148481E+03  0.32688148481E+03  0.00000000000E+00 0. -1.
         -1   -1    0    0    0  501 -0.00000000000E+00 -0.00000000000E+00 -0.22750215141E+03  0.22750215141E+03  0.00000000000E+00 0.  1.
         23    2    1    2    0    0  0.76209912766E+02  0.79709451209E+01  0.30844540022E+03  0.33171772715E+03  0.95008414482E+02 0.  0.
         11    1    3    3    0    0 -0.11176863604E+02  0.19856766495E+02  0.13738229150E+03  0.13925913785E+03  0.00000000000E+00 0. -1.
        -11    1    3    3    0    0  0.87386776371E+02 -0.11885821374E+02  0.17106310872E+03  0.19245858931E+03  0.00000000000E+00 0.  1.
         22    1    1    2    0    0 -0.76209912766E+02 -0.79709451209E+01 -0.20906606681E+03  0.22266590907E+03  0.00000000000E+00 0.  1.
<mgrwt>
<rscale>  0 0.54540349E+03</rscale>
<asrwt>0</asrwt>
<pdfrwt beam="1">  1        1 0.50289459E-01 0.54540349E+03</pdfrwt>
<pdfrwt beam="2">  1       -1 0.35000331E-01 0.54540349E+03</pdfrwt>
<totfact> 0.61349508E+02</totfact>
</mgrwt>
</event>
<event>
 6    1  0.1588846E-005  0.9614425E+03  0.7818608E-02  0.9351875E-01
          1   -1    0    0  501    0  0.00000000000E+00  0.00000000000E+00  0.12264606020E+04  0.12264606020E+04  0.00000000000E+00 0. -1.
         -1   -1    0    0    0  501 -0.00000000000E+00 -0.00000000000E+00 -0.18842260937E+03  0.18842260937E+03  0.00000000000E+00 0.  1.
         23    2    1    2    0    0  0.37733127521E+03  0.20422000802E+03  0.21856548672E+03  0.48988597307E+03  0.90181437690E+02 0.  0.
         11    1    3    3    0    0  0.81734369546E+02  0.82347462009E+02  0.34927380881E+02  0.12116737845E+03  0.00000000000E+00 0. -1.
        -11    1    3    3    0    0  0.29559690566E+03  0.12187254601E+03  0.18363810584E+03  0.36871859462E+03  0.00000000000E+00 0.  1.
         22    1    1    2    0    0 -0.37733127521E+03 -0.20422000802E+03  0.81947250592E+03  0.92499723832E+03  0.00000000000E+00 0. -1.
<mgrwt>
<rscale>  0 0.96144247E+03</rscale>
<asrwt>0</asrwt>
<pdfrwt beam="1">  1        1 0.18868624E+00 0.96144247E+03</pdfrwt>
<pdfrwt beam="2">  1       -1 0.28988095E-01 0.96144247E+03</pdfrwt>
<totfact> 0.11116586E+02</totfact>
</mgrwt>
</event>
<event>
 6    1  0.1588846E-005  0.1916254E+04  0.7818608E-02  0.8646808E-01
         -1   -1    0    0    0  501 -0.00000000000E+00  0.00000000000E+00  0.48632892846E+03  0.48632892846E+03  0.00000000000E+00 0.  1.
          1   -1    0    0  501    0  0.00000000000E+00 -0.00000000000E+00 -0.18876265034E+04  0.18876265034E+04  0.00000000000E+00 0. -1.
         23    2    1    2    0    0  0.58113701373E+03  0.16970194474E+03  0.21431158766E+03  0.64864040409E+03  0.91027130234E+02 0.  0.
         13    1    3    3    0    0  0.37634446638E+03  0.13312303219E+03  0.17957729039E+03  0.43772697233E+03  0.00000000000E+00 0. -1.
        -13    1    3    3    0    0  0.20479254735E+03  0.36578912546E+02  0.34734297267E+02  0.21091343177E+03  0.00000000000E+00 0.  1.
         22    1    1    2    0    0 -0.58113701373E+03 -0.16970194474E+03 -0.16156091626E+04  0.17253150278E+04  0.00000000000E+00 0. -1.
<mgrwt>
<rscale>  0 0.19162540E+04</rscale>
<asrwt>0</asrwt>
<pdfrwt beam="1">  1        1 0.29040408E+00 0.19162540E+04</pdfrwt>
<pdfrwt beam="2">  1       -1 0.74819835E-01 0.19162540E+04</pdfrwt>
<totfact> 0.59633525E+00</totfact>
</mgrwt>
</event>
<event>
 6    1  0.1588846E-005  0.3258284E+04  0.7818608E-02  0.8173592E-01
          2   -1    0    0  501    0  0.00000000000E+00  0.00000000000E+00  0.20562754540E+04  0.20562754540E+04  0.00000000000E+00 0. -1.
         -2   -1    0    0    0  501 -0.00000000000E+00 -0.00000000000E+00 -0.12907333530E+04  0.12907333530E+04  0.00000000000E+00 0.  1.
         23    2    1    2    0    0  0.15325480951E+04 -0.11293799183E+03  0.93502301240E+03  0.18009873217E+04  0.88479632662E+02 0.  0.
         11    1    3    3    0    0  0.13679859969E+04 -0.12214805884E+03  0.81425456021E+03  0.15966578609E+04  0.00000000000E+00 0.  1.
        -11    1    3    3    0    0  0.16456209815E+03  0.92100670087E+01  0.12076845219E+03  0.20432946074E+03  0.00000000000E+00 0. -1.
         22    1    1    2    0    0 -0.15325480951E+04  0.11293799183E+03 -0.16948091144E+03  0.15460214853E+04  0.00000000000E+00 0.  1.
<mgrwt>
<rscale>  0 0.32582838E+04</rscale>
<asrwt>0</asrwt>
<pdfrwt beam="1">  1        2 0.31635007E+00 0.32582838E+04</pdfrwt>
<pdfrwt beam="2">  1       -2 0.19857436E+00 0.32582838E+04</pdfrwt>
<totfact> 0.70798996E-01</totfact>
</mgrwt>
</event>
<event>
 6    1  0.1588846E-005  0.1593805E+04  0.7818608E-02  0.8824363E-01
          2   -1    0    0  501    0  0.00000000000E+00  0.00000000000E+00  0.89211682852E+03  0.89211682852E+03  0.00000000000E+00 0.  1.
         -2   -1    0    0    0  501 -0.00000000000E+00 -0.00000000000E+00 -0.71184984393E+03  0.71184984393E+03  0.00000000000E+00 0. -1.
         23    2    1    2    0    0  0.38563776119E+03 -0.68185714941E+03  0.22277982952E+03  0.81945854818E+03  0.90751334404E+02 0.  0.
         11    1    3    3    0    0  0.32305414743E+03 -0.59678058533E+03  0.16228592967E+03  0.69774477581E+03  0.00000000000E+00 0. -1.
        -11    1    3    3    0    0  0.62583613762E+02 -0.85076564072E+02  0.60493899851E+02  0.12171377237E+03  0.00000000000E+00 0.  1.
         22    1    1    2    0    0 -0.38563776119E+03  0.68185714941E+03 -0.42512844936E+02  0.78450812427E+03  0.00000000000E+00 0. -1.
<mgrwt>
<rscale>  0 0.15938045E+04</rscale>
<asrwt>0</asrwt>
<pdfrwt beam="1">  1        2 0.13724874E+00 0.15938045E+04</pdfrwt>
<pdfrwt beam="2">  1       -2 0.10951536E+00 0.15938045E+04</pdfrwt>
<totfact> 0.18915134E+01</totfact>
</mgrwt>
</event>
<event>
 6    1  0.1588846E-005  0.2143271E+04  0.7818608E-02  0.8542418E-01
         -2   -1    0    0    0  501 -0.00000000000E+00  0.00000000000E+00  0.92933732661E+03  0.92933732661E+03  0.00000000000E+00 0.  1.
          2   -1    0    0  501    0  0.00000000000E+00 -0.00000000000E+00 -0.12357217356E+04  0.12357217356E+04  0.00000000000E+00 0. -1.
         23    2    1    2    0    0  0.20116572514E+03 -0.82929316534E+03  0.49786317603E+03  0.99245129274E+03  0.94324033907E+02 0.  0.
         13    1    3    3    0    0  0.15495241197E+03 -0.57113043691E+03  0.39081012491E+03  0.70917753748E+03  0.00000000000E+00 0. -1.
        -13    1    3    3    0    0  0.46213313164E+02 -0.25816272843E+03  0.10705305112E+03  0.28327375526E+03  0.00000000000E+00 0.  1.
         22    1    1    2    0    0 -0.20116572514E+03  0.82929316534E+03 -0.80424758506E+03  0.11726077695E+04  0.00000000000E+00 0. -1.
<mgrwt>
<rscale>  0 0.21432707E+04</rscale>
<asrwt>0</asrwt>
<pdfrwt beam="1">  1        2 0.19011103E+00 0.21432707E+04</pdfrwt>
<pdfrwt beam="2">  1       -2 0.14297498E+00 0.21432707E+04</pdfrwt>
<totfact> 0.56314624E+00</totfact>
</mgrwt>
</event>
<event>
 6    1  0.1588846E-005  0.1122902E+04  0.7818608E-02  0.9183153E-01
          1   -1    0    0  501    0  0.00000000000E+00  0.00000000000E+00  0.73612241759E+03  0.73612241759E+03  0.00000000000E+00 0. -1.
         -1   -1    0    0    0  501 -0.00000000000E+00 -0.00000000000E+00 -0.42822690580E+03  0.42822690580E+03  0.00000000000E+00 0.  1.
         23    2    1    2    0    0  0.24822383887E+03  0.22691809081E+03 -0.30665391251E+03  0.46379390872E+03  0.89225969221E+02 0.  0.
         11    1    3    3    0    0  0.10730741558E+03  0.13832023270E+03 -0.11268771731E+03  0.20819675753E+03  0.00000000000E+00 0. -1.
        -11    1    3    3    0    0  0.14091642329E+03  0.88597858112E+02 -0.19396619520E+03  0.25559715119E+03  0.00000000000E+00 0.  1.
         22    1    1    2    0    0 -0.24822383887E+03 -0.22691809081E+03  0.61454942431E+03  0.70055541468E+03  0.00000000000E+00 0. -1.
<mgrwt>
<rscale>  0 0.11229024E+04</rscale>
<asrwt>0</asrwt>
<pdfrwt beam="1">  1        1 0.11324960E+00 0.11229024E+04</pdfrwt>
<pdfrwt beam="2">  1       -1 0.65881062E-01 0.11229024E+04</pdfrwt>
<totfact> 0.58604005E+01</totfact>
</mgrwt>
</event>
<event>
 6    1  0.1588846E-005  0.1544283E+04  0.7818608E-02  0.8855528E-01
         -1   -1    0    0    0  501 -0.00000000000E+00  0.00000000000E+00  0.41764676963E+03  0.41764676963E+03  0.00000000000E+00 0.  1.
          1   -1    0    0  501    0  0.00000000000E+00 -0.00000000000E+00 -0.14275271797E+04  0.14275271797E+04  0.00000000000E+00 0. -1.
         23    2    1    2    0    0 -0.28009103914E+03  0.59911588158E+03 -0.97648392965E+03  0.11829759769E+04  0.92306377106E+02 0.  0.
         13    1    3    3    0    0 -0.10332813748E+03  0.21007457645E+03 -0.27048789546E+03  0.35773137025E+03  0.00000000000E+00 0. -1.
        -13    1    3    3    0    0 -0.17676290166E+03  0.38904130513E+03 -0.70599603418E+03  0.82524460664E+03  0.00000000000E+00 0.  1.
         22    1    1    2    0    0  0.28009103914E+03 -0.59911588158E+03 -0.33396480392E+02  0.66219797242E+03  0.00000000000E+00 0.  1.
<mgrwt>
<rscale>  0 0.15442825E+04</rscale>
<asrwt>0</asrwt>
<pdfrwt beam="1">  1        1 0.21961957E+00 0.15442825E+04</pdfrwt>
<pdfrwt beam="2">  1       -1 0.64253349E-01 0.15442825E+04</pdfrwt>
<totfact> 0.17397548E+01</totfact>
</mgrwt>
</event>
<event>
 6    1  0.1588846E-005  0.3771732E+04  0.7818608E-02  0.8052248E-01
         -1   -1    0    0    0  501 -0.00000000000E+00  0.00000000000E+00  0.12496841304E+04  0.12496841304E+04  0.00000000000E+00 0.  1.
          1   -1    0    0  501    0  0.00000000000E+00 -0.00000000000E+00 -0.28459115904E+04  0.28459115904E+04  0.00000000000E+00 0. -1.
         23    2    1    2    0    0 -0.12281847729E+04  0.10954209173E+04  0.19879632009E+03  0.16603349147E+04  0.93846841848E+02 0.  0.
         13    1    3    3    0    0 -0.10264710778E+04  0.92104884477E+03  0.13174741100E+03  0.13853993028E+04  0.00000000000E+00 0. -1.
        -13    1    3    3    0    0 -0.20171369511E+03  0.17437207248E+03  0.67048909088E+02  0.27493561186E+03  0.00000000000E+00 0.  1.
         22    1    1    2    0    0  0.12281847729E+04 -0.10954209173E+04 -0.17950237801E+04  0.24352608060E+04  0.00000000000E+00 0. -1.
<mgrwt>
<rscale>  0 0.37717320E+04</rscale>
<asrwt>0</asrwt>
<pdfrwt beam="1">  1        1 0.43783255E+00 0.37717320E+04</pdfrwt>
<pdfrwt beam="2">  1       -1 0.19225910E+00 0.37717320E+04</pdfrwt>
<totfact> 0.10494940E-01</totfact>
</mgrwt>
</event>
<event>
 6    1  0.1588846E-005  0.4178774E+04  0.7818608E-02  0.7969422E-01
          1   -1    0    0  501    0  0.00000000000E+00  0.00000000000E+00  0.35344539066E+04  0.35344539066E+04  0.00000000000E+00 0. -1.
         -1   -1    0    0    0  501 -0.00000000000E+00 -0.00000000000E+00 -0.12351378117E+04  0.12351378117E+04  0.00000000000E+00 0.  1.
         23    2    1    2    0    0  0.20360347276E+04 -0.35984996740E+03  0.14860651840E+04  0.25478116988E+04  0.89584095371E+02 0.  0.
         13    1    3    3    0    0  0.81469643457E+02  0.22338551529E+01  0.51611137907E+02  0.96467623946E+02  0.00000000000E+00 0. -1.
        -13    1    3    3    0    0  0.19545650841E+04 -0.36208382255E+03  0.14344540461E+04  0.24513440748E+04  0.00000000000E+00 0.  1.
         22    1    1    2    0    0 -0.20360347276E+04  0.35984996740E+03  0.81325091096E+03  0.22217800195E+04  0.00000000000E+00 0.  1.
<mgrwt>
<rscale>  0 0.41787738E+04</rscale>
<asrwt>0</asrwt>
<pdfrwt beam="1">  1        1 0.54376213E+00 0.41787738E+04</pdfrwt>
<pdfrwt beam="2">  1       -1 0.19002120E+00 0.41787738E+04</pdfrwt>
<totfact> 0.31923144E-02</totfact>
</mgrwt>
</event>
<event>
 6    1  0.1588846E-005  0.3605770E+04  0.7818608E-02  0.8089171E-01
          1   -1    0    0  501    0  0.00000000000E+00  0.00000000000E+00  0.18097502616E+04  0.18097502616E+04  0.00000000000E+00 0. -1.
         -1   -1    0    0    0  501 -0.00000000000E+00 -0.00000000000E+00 -0.17960455433E+04  0.17960455433E+04  0.00000000000E+00 0.  1.
         23    2    1    2    0    0 -0.11407044209E+04  0.50847014531E+03 -0.12918379983E+04  0.17990887867E+04  0.90147566670E+02 0.  0.
         11    1    3    3    0    0 -0.78049288473E+03  0.39033942925E+03 -0.92138381961E+03  0.12690477360E+04  0.00000000000E+00 0. -1.
        -11    1    3    3    0    0 -0.36021153619E+03  0.11813071606E+03 -0.37045417873E+03  0.53004105069E+03  0.00000000000E+00 0.  1.
         22    1    1    2    0    0  0.11407044209E+04 -0.50847014531E+03  0.13055427167E+04  0.18067070182E+04  0.00000000000E+00 0. -1.
<mgrwt>
<rscale>  0 0.36057698E+04</rscale>
<asrwt>0</asrwt>
<pdfrwt beam="1">  1        1 0.27842312E+00 0.36057698E+04</pdfrwt>
<pdfrwt beam="2">  1       -1 0.27631470E+00 0.36057698E+04</pdfrwt>
<totfact> 0.15256498E-01</totfact>
</mgrwt>
</event>
<event>
 6    1  0.1588846E-005  0.1400376E+04  0.7818608E-02  0.8953547E-01
          2   -1    0    0  501    0  0.00000000000E+00  0.00000000000E+00  0.22373033534E+04  0.22373033534E+04  0.00000000000E+00 0. -1.
         -2   -1    0    0    0  501 -0.00000000000E+00 -0.00000000000E+00 -0.21913117903E+03  0.21913117903E+03  0.00000000000E+00 0.  1.
         23    2    1    2    0    0  0.36800338514E+03 -0.97519052258E+02  0.20379378332E+04  0.20752165655E+04  0.91633645313E+02 0.  0.
         11    1    3    3    0    0  0.24556881250E+03 -0.21927968895E+02  0.13617490772E+04  0.13838877941E+04  0.00000000000E+00 0. -1.
        -11    1    3    3    0    0  0.12243457264E+03 -0.75591083362E+02  0.67618875599E+03  0.69132877142E+03  0.00000000000E+00 0.  1.
         22    1    1    2    0    0 -0.36800338514E+03  0.97519052258E+02 -0.19765658793E+02  0.38121796691E+03  0.00000000000E+00 0.  1.
<mgrwt>
<rscale>  0 0.14003756E+04</rscale>
<asrwt>0</asrwt>
<pdfrwt beam="1">  1        2 0.34420050E+00 0.14003756E+04</pdfrwt>
<pdfrwt beam="2">  1       -2 0.33712491E-01 0.14003756E+04</pdfrwt>
<totfact> 0.39473135E+01</totfact>
</mgrwt>
</event>
<event>
 6    1  0.1588846E-005  0.1984083E+04  0.7818608E-02  0.8614099E-01
          2   -1    0    0  501    0  0.00000000000E+00  0.00000000000E+00  0.13853794856E+04  0.13853794856E+04  0.00000000000E+00 0. -1.
         -2   -1    0    0    0  501 -0.00000000000E+00 -0.00000000000E+00 -0.71038006962E+03  0.71038006962E+03  0.00000000000E+00 0.  1.
         23    2    1    2    0    0  0.25913523112E+03 -0.58385494889E+03 -0.46052293278E+03  0.79289783045E+03  0.92563105813E+02 0.  0.
         11    1    3    3    0    0  0.16346621455E+03 -0.45882042360E+03 -0.36610699635E+03  0.60932070143E+03  0.00000000000E+00 0. -1.
        -11    1    3    3    0    0  0.95669016576E+02 -0.12503452529E+03 -0.94415936430E+02  0.18357712902E+03  0.00000000000E+00 0.  1.
         22    1    1    2    0    0 -0.25913523112E+03  0.58385494889E+03  0.11355223488E+04  0.13028617248E+04  0.00000000000E+00 0. -1.
<mgrwt>
<rscale>  0 0.19840826E+04</rscale>
<asrwt>0</asrwt>
<pdfrwt beam="1">  1        2 0.21313531E+00 0.19840826E+04</pdfrwt>
<pdfrwt beam="2">  1       -2 0.10928924E+00 0.19840826E+04</pdfrwt>
<totfact> 0.91611085E+00</totfact>
</mgrwt>
</event>
<event>
 6    1  0.1588846E-005  0.4726067E+04  0.7818608E-02  0.7872212E-01
         -1   -1    0    0    0  501 -0.00000000000E+00  0.00000000000E+00  0.23343360131E+04  0.23343360131E+04  0.00000000000E+00 0.  1.
          1   -1    0    0  501    0  0.00000000000E+00 -0.00000000000E+00 -0.23920838741E+04  0.23920838741E+04  0.00000000000E+00 0. -1.
         23    2    1    2    0    0  0.10836633297E+03  0.16273593995E+04 -0.17377287794E+04  0.23849720951E+04  0.91371255705E+02 0.  0.
         13    1    3    3    0    0  0.65488264032E+02  0.67562404490E+03 -0.78193881622E+03  0.10354636039E+04  0.00000000000E+00 0.  1.
        -13    1    3    3    0    0  0.42878068940E+02  0.95173535456E+03 -0.95578996322E+03  0.13495084912E+04  0.00000000000E+00 0. -1.
         22    1    1    2    0    0 -0.10836633297E+03 -0.16273593995E+04  0.16799809184E+04  0.23414477921E+04  0.00000000000E+00 0.  1.
<mgrwt>
<rscale>  0 0.47260671E+04</rscale>
<asrwt>0</asrwt>
<pdfrwt beam="1">  1        1 0.36801290E+00 0.47260671E+04</pdfrwt>
<pdfrwt beam="2">  1       -1 0.35912862E+00 0.47260671E+04</pdfrwt>
<totfact> 0.16037255E-02</totfact>
</mgrwt>
</event>
<event>
 6    1  0.1588846E-005  0.8499611E+03  0.7818608E-02  0.9490389E-01
          1   -1    0    0  501    0  0.00000000000E+00  0.00000000000E+00  0.65025370206E+03  0.65025370206E+03  0.00000000000E+00 0. -1.
         -1   -1    0    0    0  501 -0.00000000000E+00 -0.00000000000E+00 -0.27775079337E+03  0.27775079337E+03  0.00000000000E+00 0.  1.
         23    2    1    2    0    0  0.19916950978E+03  0.13608420451E+03  0.56402856829E+03  0.61999559518E+03  0.89882745047E+02 0.  0.
         11    1    3    3    0    0  0.27038354653E+02  0.37032698728E+02  0.20133013388E+03  0.20648563195E+03  0.00000000000E+00 0.  1.
        -11    1    3    3    0    0  0.17213115513E+03  0.99051505778E+02  0.36269843441E+03  0.41350996323E+03  0.00000000000E+00 0. -1.
         22    1    1    2    0    0 -0.19916950978E+03 -0.13608420451E+03 -0.19152565960E+03  0.30800890024E+03  0.00000000000E+00 0.  1.
<mgrwt>
<rscale>  0 0.84996113E+03</rscale>
<asrwt>0</asrwt>
<pdfrwt beam="1">  1        1 0.10003903E+00 0.84996113E+03</pdfrwt>
<pdfrwt beam="2">  1       -1 0.42730892E-01 0.84996113E+03</pdfrwt>
<totfact> 0.16564624E+02</totfact>
</mgrwt>
</event>
<event>
 6    1  0.1588846E-005  0.1319160E+04  0.7818608E-02  0.9014507E-01
         -2   -1    0    0    0  501 -0.00000000000E+00  0.00000000000E+00  0.97740895604E+03  0.97740895604E+03  0.00000000000E+00 0.  1.
          2   -1    0    0  501    0  0.00000000000E+00 -0.00000000000E+00 -0.44510117905E+03  0.44510117905E+03  0.00000000000E+00 0. -1.
         23    2    1    2    0    0  0.26900345599E+03  0.34694154823E+03  0.79388742874E+03  0.91147666121E+03  0.88324159730E+02 0.  0.
         13    1    3    3    0    0  0.16602016150E+03  0.27287490243E+03  0.60119602763E+03  0.68077901704E+03  0.00000000000E+00 0. -1.
        -13    1    3    3    0    0  0.10298329449E+03  0.74066645802E+02  0.19269140111E+03  0.23069764417E+03  0.00000000000E+00 0.  1.
         22    1    1    2    0    0 -0.26900345599E+03 -0.34694154823E+03 -0.26157965175E+03  0.51103347389E+03  0.00000000000E+00 0. -1.
<mgrwt>
<rscale>  0 0.13191602E+04</rscale>
<asrwt>0</asrwt>
<pdfrwt beam="1">  1        2 0.68477105E-01 0.13191602E+04</pdfrwt>
<pdfrwt beam="2">  1       -2 0.15037061E+00 0.13191602E+04</pdfrwt>
<totfact> 0.20500028E+01</totfact>
</mgrwt>
</event>
<event>
 6    1  0.1588846E-005  0.8055052E+03  0.7818608E-02  0.9552083E-01
          1   -1    0    0  501    0  0.00000000000E+00  0.00000000000E+00  0.93797129499E+03  0.93797129499E+03  0.00000000000E+00 0.  1.
         -1   -1    0    0    0  501 -0.00000000000E+00 -0.00000000000E+00 -0.17293669828E+03  0.17293669828E+03  0.00000000000E+00 0. -1.
         23    2    1    2    0    0  0.27381007819E+02  0.26102025030E+03 -0.25661007588E+02  0.27779285758E+03  0.87344683607E+02 0.  0.
         11    1    3    3    0    0  0.26721597145E+02  0.21797197293E+03  0.12918044251E+02  0.21998340984E+03  0.00000000000E+00 0.  1.
        -11    1    3    3    0    0  0.65941067388E+00  0.43048277369E+02 -0.38579051839E+02  0.57809447737E+02  0.00000000000E+00 0. -1.
         22    1    1    2    0    0 -0.27381007819E+02 -0.26102025030E+03  0.79069560430E+03  0.83311513569E+03  0.00000000000E+00 0.  1.
<mgrwt>
<rscale>  0 0.80550521E+03</rscale>
<asrwt>0</asrwt>
<pdfrwt beam="1">  1        1 0.14430327E+00 0.80550521E+03</pdfrwt>
<pdfrwt beam="2">  1       -1 0.26605646E-01 0.80550521E+03</pdfrwt>
<totfact> 0.21524980E+02</totfact>
</mgrwt>
</event>
<event>
 6    1  0.1588846E-005  0.1050581E+04  0.7818608E-02  0.9254744E-01
         -2   -1    0    0    0  501 -0.00000000000E+00  0.00000000000E+00  0.17161871474E+03  0.17161871474E+03  0.00000000000E+00 0.  1.
          2   -1    0    0  501    0  0.00000000000E+00 -0.00000000000E+00 -0.16078094870E+04  0.16078094870E+04  0.00000000000E+00 0. -1.
         23    2    1    2    0    0 -0.50661605852E+02 -0.28871790811E+03  0.72337203442E+01  0.30654025807E+03  0.89386656361E+02 0.  0.
         11    1    3    3    0    0  0.19290623333E+02 -0.80465571959E+02  0.24164573189E+02  0.86201873626E+02  0.00000000000E+00 0. -1.
        -11    1    3    3    0    0 -0.69952229185E+02 -0.20825233616E+03 -0.16930852845E+02  0.22033838445E+03  0.00000000000E+00 0.  1.
         22    1    1    2    0    0  0.50661605852E+02  0.28871790811E+03 -0.14434244926E+04  0.14728879436E+04  0.00000000000E+00 0. -1.
<mgrwt>
<rscale>  0 0.10505812E+04</rscale>
<asrwt>0</asrwt>
<pdfrwt beam="1">  1        2 0.24735531E+00 0.10505812E+04</pdfrwt>
<pdfrwt beam="2">  1       -2 0.26402879E-01 0.10505812E+04</pdfrwt>
<totfact> 0.14270038E+02</totfact>
</mgrwt>
</event>
<event>
 6    1  0.1588846E-005  0.1505013E+04  0.7818608E-02  0.8881126E-01
         -1   -1    0    0    0  501 -0.00000000000E+00  0.00000000000E+00  0.33528482624E+03  0.33528482624E+03  0.00000000000E+00 0. -1.
          1   -1    0    0  501    0  0.00000000000E+00 -0.00000000000E+00 -0.16889098170E+04  0.16889098170E+04  0.00000000000E+00 0.  1.
         23    2    1    2    0    0 -0.47234605605E+03  0.57768948843E+03 -0.77732473173E+03  0.10813489876E+04  0.90807228839E+02 0.  0.
         13    1    3    3    0    0 -0.32368476901E+03  0.39361809312E+03 -0.58960257246E+03  0.77931907866E+03  0.00000000000E+00 0.  1.
        -13    1    3    3    0    0 -0.14866128704E+03  0.18407139532E+03 -0.18772215927E+03  0.30202990898E+03  0.00000000000E+00 0. -1.
         22    1    1    2    0    0  0.47234605605E+03 -0.57768948843E+03 -0.57630025902E+03  0.94284565558E+03  0.00000000000E+00 0. -1.
<mgrwt>
<rscale>  0 0.15050127E+04</rscale>
<asrwt>0</asrwt>
<pdfrwt beam="1">  1        1 0.25983228E+00 0.15050127E+04</pdfrwt>
<pdfrwt beam="2">  1       -1 0.51582281E-01 0.15050127E+04</pdfrwt>
<totfact> 0.17735510E+01</totfact>
</mgrwt>
</event>
<event>
 6    1  0.1588846E-005  0.4049692E+04  0.7818608E-02  0.7994597E-01
         -2   -1    0    0    0  501 -0.00000000000E+00  0.00000000000E+00  0.99627754010E+03  0.99627754010E+03  0.00000000000E+00 0. -1.
          2   -1    0    0  501    0  0.00000000000E+00 -0.00000000000E+00 -0.41153199277E+04  0.41153199277E+04  0.00000000000E+00 0.  1.
         23    2    1    2    0    0  0.75708718154E+02 -0.11968553265E+04  0.49756641202E+03  0.13013410864E+04  0.87873807700E+02 0.  0.
         13    1    3    3    0    0  0.47009752226E+02 -0.68594707665E+03  0.23819152883E+03  0.72764587072E+03  0.00000000000E+00 0. -1.
        -13    1    3    3    0    0  0.28698965928E+02 -0.51090824988E+03  0.25937488319E+03  0.57369521566E+03  0.00000000000E+00 0.  1.
         22    1    1    2    0    0 -0.75708718154E+02  0.11968553265E+04 -0.36166087997E+04  0.38102563815E+04  0.00000000000E+00 0.  1.
<mgrwt>
<rscale>  0 0.40496917E+04</rscale>
<asrwt>0</asrwt>
<pdfrwt beam="1">  1        2 0.63312615E+00 0.40496917E+04</pdfrwt>
<pdfrwt beam="2">  1       -2 0.15327347E+00 0.40496917E+04</pdfrwt>
<totfact> 0.60797511E-02</totfact>
</mgrwt>
</event>
<event>
 6    1  0.1588846E-005  0.2302804E+04  0.7818608E-02  0.8476816E-01
         -2   -1    0    0    0  501 -0.00000000000E+00  0.00000000000E+00  0.64969015091E+03  0.64969015091E+03  0.00000000000E+00 0.  1.
          2   -1    0    0  501    0  0.00000000000E+00 -0.00000000000E+00 -0.20405515220E+04  0.20405515220E+04  0.00000000000E+00 0. -1.
         23    2    1    2    0    0 -0.38964851840E+03  0.10768418524E+04 -0.58005284764E+03  0.12870934966E+04  0.93455978904E+02 0.  0.
         13    1    3    3    0    0 -0.22243925523E+03  0.72810326849E+03 -0.40859046395E+03  0.86403689683E+03  0.00000000000E+00 0. -1.
        -13    1    3    3    0    0 -0.16720926317E+03  0.34873858390E+03 -0.17146238369E+03  0.42305659978E+03  0.00000000000E+00 0.  1.
         22    1    1    2    0    0  0.38964851840E+03 -0.10768418524E+04 -0.81080852347E+03  0.14031481763E+04  0.00000000000E+00 0. -1.
<mgrwt>
<rscale>  0 0.23028037E+04</rscale>
<asrwt>0</asrwt>
<pdfrwt beam="1">  1        2 0.31393101E+00 0.23028037E+04</pdfrwt>
<pdfrwt beam="2">  1       -2 0.99952330E-01 0.23028037E+04</pdfrwt>
<totfact> 0.47537329E+00</totfact>
</mgrwt>
</event>
<event>
 6    1  0.1588846E-005  0.2316411E+04  0.7818608E-02  0.8471478E-01
          3   -1    0    0  501    0  0.00000000000E+00  0.00000000000E+00  0.93477229419E+03  0.93477229419E+03  0.00000000000E+00 0. -1.
         -3   -1    0    0    0  501 -0.00000000000E+00 -0.00000000000E+00 -0.14350451939E+04  0.14350451939E+04  0.00000000000E+00 0.  1.
         23    2    1    2    0    0 -0.18050136545E+03 -0.10848043165E+04 -0.61629241222E+03  0.12639957686E+04  0.92129352910E+02 0.  0.
         13    1    3    3    0    0 -0.20372014583E+02 -0.38857365948E+03 -0.21124192357E+03  0.44275010796E+03  0.00000000000E+00 0. -1.
        -13    1    3    3    0    0 -0.16012935086E+03 -0.69623065699E+03 -0.40505048865E+03  0.82124566063E+03  0.00000000000E+00 0.  1.
         22    1    1    2    0    0  0.18050136545E+03  0.10848043165E+04  0.11601951254E+03  0.11058217195E+04  0.00000000000E+00 0.  1.
<mgrwt>
<rscale>  0 0.23164114E+04</rscale>
<asrwt>0</asrwt>
<pdfrwt beam="1">  1        3 0.14381112E+00 0.23164114E+04</pdfrwt>
<pdfrwt beam="2">  1       -3 0.22077618E+00 0.23164114E+04</pdfrwt>
<totfact> 0.92711543E-02</totfact>
</mgrwt>
</event>
<event>
 6    1  0.1588846E-005  0.1039112E+04  0.7818608E-02  0.9266658E-01
          4   -1    0    0  501    0  0.00000000000E+00  0.00000000000E+00  0.73721959341E+03  0.73721959341E+03  0.00000000000E+00 0. -1.
         -4   -1    0    0    0  501 -0.00000000000E+00 -0.00000000000E+00 -0.36615747655E+03  0.36615747655E+03  0.00000000000E+00 0.  1.
         23    2    1    2    0    0 -0.10556912588E+03 -0.32882143076E+03  0.59339060980E+03  0.69264804440E+03  0.91545201662E+02 0.  0.
         11    1    3    3    0    0 -0.12107079053E+03 -0.26548130142E+03  0.47399781162E+03  0.55660792587E+03  0.00000000000E+00 0.  1.
        -11    1    3    3    0    0  0.15501664654E+02 -0.63340129342E+02  0.11939279818E+03  0.13604011853E+03  0.00000000000E+00 0. -1.
         22    1    1    2    0    0  0.10556912588E+03  0.32882143076E+03 -0.22232849294E+03  0.41072902556E+03  0.00000000000E+00 0.  1.
<mgrwt>
<rscale>  0 0.10391121E+04</rscale>
<asrwt>0</asrwt>
<pdfrwt beam="1">  1        4 0.11341840E+00 0.10391121E+04</pdfrwt>
<pdfrwt beam="2">  1       -4 0.56331920E-01 0.10391121E+04</pdfrwt>
<totfact> 0.36189389E+00</totfact>
</mgrwt>
</event>
<event>
 6    1  0.1588846E-005  0.2201325E+04  0.7818608E-02  0.8517877E-01
         -1   -1    0    0    0  501 -0.00000000000E+00  0.00000000000E+00  0.19160483065E+04  0.19160483065E+04  0.00000000000E+00 0.  1.
          1   -1    0    0  501    0  0.00000000000E+00 -0.00000000000E+00 -0.63226894734E+03  0.63226894734E+03  0.00000000000E+00 0. -1.
         23    2    1    2    0    0  0.91548038769E+03 -0.59611877764E+03  0.77967175215E+03  0.13451603993E+04  0.90036222276E+02 0.  0.
         11    1    3    3    0    0  0.56738454842E+03 -0.40605542889E+03  0.53421474139E+03  0.87874434680E+03  0.00000000000E+00 0.  1.
        -11    1    3    3    0    0  0.34809583927E+03 -0.19006334875E+03  0.24545701076E+03  0.46641605245E+03  0.00000000000E+00 0. -1.
         22    1    1    2    0    0 -0.91548038769E+03  0.59611877764E+03  0.50410760702E+03  0.12031568546E+04  0.00000000000E+00 0. -1.
<mgrwt>
<rscale>  0 0.22013249E+04</rscale>
<asrwt>0</asrwt>
<pdfrwt beam="1">  1        1 0.97272147E-01 0.22013249E+04</pdfrwt>
<pdfrwt beam="2">  1       -1 0.29477666E+00 0.22013249E+04</pdfrwt>
<totfact> 0.10329545E+00</totfact>
</mgrwt>
</event>
<event>
 6    1  0.1588846E-005  0.1504303E+04  0.7818608E-02  0.8881596E-01
         -2   -1    0    0    0  501 -0.00000000000E+00  0.00000000000E+00  0.71656881501E+03  0.71656881501E+03  0.00000000000E+00 0.  1.
          2   -1    0    0  501    0  0.00000000000E+00 -0.00000000000E+00 -0.78950156769E+03  0.78950156769E+03  0.00000000000E+00 0. -1.
         23    2    1    2    0    0 -0.58637946274E+03 -0.64345072400E+02 -0.49697003431E+03  0.77957965401E+03  0.11306661436E+03 0.  0.
         11    1    3    3    0    0 -0.30065842623E+03  0.13593023811E+02 -0.20837486365E+03  0.36606057335E+03  0.00000000000E+00 0. -1.
        -11    1    3    3    0    0 -0.28572103651E+03 -0.77938096211E+02 -0.28859517065E+03  0.41351908066E+03  0.00000000000E+00 0.  1.
         22    1    1    2    0    0  0.58637946274E+03  0.64345072400E+02  0.42403728163E+03  0.72649072869E+03  0.00000000000E+00 0.  1.
<mgrwt>
<rscale>  0 0.15043034E+04</rscale>
<asrwt>0</asrwt>
<pdfrwt beam="1">  1        2 0.12146178E+00 0.15043034E+04</pdfrwt>
<pdfrwt beam="2">  1       -2 0.11024136E+00 0.15043034E+04</pdfrwt>
<totfact> 0.22130977E+01</totfact>
</mgrwt>
</event>
<event>
 6    1  0.1588846E-005  0.1032080E+04  0.7818608E-02  0.9274043E-01
          1   -1    0    0  501    0  0.00000000000E+00  0.00000000000E+00  0.11949425854E+04  0.11949425854E+04  0.00000000000E+00 0. -1.
         -1   -1    0    0    0  501 -0.00000000000E+00 -0.00000000000E+00 -0.22285380316E+03  0.22285380316E+03  0.00000000000E+00 0.  1.
         23    2    1    2    0    0  0.37751291984E+03  0.22438746700E+03  0.12809992458E+03  0.46638536706E+03  0.90774335233E+02 0.  0.
         13    1    3    3    0    0  0.14178665949E+03  0.49751665932E+02  0.11520310564E+02  0.15070302793E+03  0.00000000000E+00 0. -1.
        -13    1    3    3    0    0  0.23572626035E+03  0.17463580107E+03  0.11657961402E+03  0.31568233913E+03  0.00000000000E+00 0.  1.
         22    1    1    2    0    0 -0.37751291984E+03 -0.22438746700E+03  0.84398885770E+03  0.95141102154E+03  0.00000000000E+00 0. -1.
<mgrwt>
<rscale>  0 0.10320804E+04</rscale>
<asrwt>0</asrwt>
<pdfrwt beam="1">  1        1 0.18383732E+00 0.10320804E+04</pdfrwt>
<pdfrwt beam="2">  1       -1 0.34285201E-01 0.10320804E+04</pdfrwt>
<totfact> 0.86759001E+01</totfact>
</mgrwt>
</event>
<event>
 6    1  0.1588846E-005  0.3175605E+04  0.7818608E-02  0.8195290E-01
         -2   -1    0    0    0  501 -0.00000000000E+00  0.00000000000E+00  0.12817097614E+04  0.12817097614E+04  0.00000000000E+00 0. -1.
          2   -1    0    0  501    0  0.00000000000E+00 -0.00000000000E+00 -0.19669951994E+04  0.19669951994E+04  0.00000000000E+00 0.  1.
         23    2    1    2    0    0 -0.12298974350E+04 -0.50923709700E+03 -0.12258997101E+04  0.18119607550E+04  0.91660006542E+02 0.  0.
         11    1    3    3    0    0 -0.32248460947E+03 -0.10368738741E+03 -0.35154085260E+03  0.48818886581E+03  0.00000000000E+00 0.  1.
        -11    1    3    3    0    0 -0.90741282551E+03 -0.40554970959E+03 -0.87435885754E+03  0.13237718892E+04  0.00000000000E+00 0. -1.
         22    1    1    2    0    0  0.12298974350E+04  0.50923709700E+03  0.54061427218E+03  0.14367442058E+04  0.00000000000E+00 0. -1.
<mgrwt>
<rscale>  0 0.31756051E+04</rscale>
<asrwt>0</asrwt>
<pdfrwt beam="1">  1        2 0.30261465E+00 0.31756051E+04</pdfrwt>
<pdfrwt beam="2">  1       -2 0.19718612E+00 0.31756051E+04</pdfrwt>
<totfact> 0.81634704E-01</totfact>
</mgrwt>
</event>
<event>
 6    1  0.1588846E-005  0.4035126E+04  0.7818608E-02  0.7997498E-01
         -1   -1    0    0    0  501 -0.00000000000E+00  0.00000000000E+00  0.23498123579E+04  0.23498123579E+04  0.00000000000E+00 0.  1.
          1   -1    0    0  501    0  0.00000000000E+00 -0.00000000000E+00 -0.17322916540E+04  0.17322916540E+04  0.00000000000E+00 0. -1.
         23    2    1    2    0    0  0.46760950309E+03 -0.19564444560E+04  0.16774719867E+03  0.20208835573E+04  0.97456004195E+02 0.  0.
         11    1    3    3    0    0  0.30809327516E+03 -0.11135750900E+04  0.12201773921E+03  0.11618344443E+04  0.00000000000E+00 0. -1.
        -11    1    3    3    0    0  0.15951622793E+03 -0.84286936591E+03  0.45729459462E+02  0.85904911293E+03  0.00000000000E+00 0.  1.
         22    1    1    2    0    0 -0.46760950309E+03  0.19564444560E+04  0.44977350524E+03  0.20612204546E+04  0.00000000000E+00 0.  1.
<mgrwt>
<rscale>  0 0.40351259E+04</rscale>
<asrwt>0</asrwt>
<pdfrwt beam="1">  1        1 0.26650641E+00 0.40351259E+04</pdfrwt>
<pdfrwt beam="2">  1       -1 0.36150960E+00 0.40351259E+04</pdfrwt>
<totfact> 0.46028689E-02</totfact>
</mgrwt>
</event>
<event>
 6    1  0.1588846E-005  0.1417371E+04  0.7818608E-02  0.8941340E-01
         -2   -1    0    0    0  501 -0.00000000000E+00  0.00000000000E+00  0.10386706925E+03  0.10386706925E+03  0.00000000000E+00 0. -1.
          2   -1    0    0  501    0  0.00000000000E+00 -0.00000000000E+00 -0.48353622197E+04  0.48353622197E+04  0.00000000000E+00 0.  1.
         23    2    1    2    0    0  0.21778727298E+03 -0.44048627703E+03 -0.41415784349E+04  0.41714655311E+04  0.83625884783E+02 0.  0.
         11    1    3    3    0    0  0.64153564625E+02 -0.85010022730E+02 -0.67942183632E+03  0.68771826752E+03  0.00000000000E+00 0. -1.
        -11    1    3    3    0    0  0.15363370835E+03 -0.35547625430E+03 -0.34621565985E+04  0.34837472636E+04  0.00000000000E+00 0.  1.
         22    1    1    2    0    0 -0.21778727298E+03  0.44048627703E+03 -0.58991671556E+03  0.76776375782E+03  0.00000000000E+00 0. -1.
<mgrwt>
<rscale>  0 0.14173707E+04</rscale>
<asrwt>0</asrwt>
<pdfrwt beam="1">  1        2 0.74390165E+00 0.14173707E+04</pdfrwt>
<pdfrwt beam="2">  1       -2 0.15979554E-01 0.14173707E+04</pdfrwt>
<totfact> 0.17514228E+00</totfact>
</mgrwt>
</event>
<event>
 6    1  0.1588846E-005  0.1999913E+04  0.7818608E-02  0.8606661E-01
         -1   -1    0    0    0  501 -0.00000000000E+00  0.00000000000E+00  0.60247937919E+03  0.60247937919E+03  0.00000000000E+00 0.  1.
          1   -1    0    0  501    0  0.00000000000E+00 -0.00000000000E+00 -0.16596628812E+04  0.16596628812E+04  0.00000000000E+00 0. -1.
         23    2    1    2    0    0  0.79101928512E+03 -0.12927324000E+03  0.14251227610E+03  0.81933491358E+03  0.92611401921E+02 0.  0.
         11    1    3    3    0    0  0.58639693005E+03 -0.56337898275E+02  0.11708082315E+03  0.60061904524E+03  0.00000000000E+00 0. -1.
        -11    1    3    3    0    0  0.20462235507E+03 -0.72935341721E+02  0.25431452948E+02  0.21871586835E+03  0.00000000000E+00 0.  1.
         22    1    1    2    0    0 -0.79101928512E+03  0.12927324000E+03 -0.11996957781E+04  0.14428073468E+04  0.00000000000E+00 0. -1.
<mgrwt>
<rscale>  0 0.19999127E+04</rscale>
<asrwt>0</asrwt>
<pdfrwt beam="1">  1        1 0.25533275E+00 0.19999127E+04</pdfrwt>
<pdfrwt beam="2">  1       -1 0.92689137E-01 0.19999127E+04</pdfrwt>
<totfact> 0.53299782E+00</totfact>
</mgrwt>
</event>
<event>
 6    1  0.1588846E-005  0.2734171E+04  0.7818608E-02  0.8324002E-01
          1   -1    0    0  501    0  0.00000000000E+00  0.00000000000E+00  0.17129447085E+04  0.17129447085E+04  0.00000000000E+00 0. -1.
         -1   -1    0    0    0  501 -0.00000000000E+00 -0.00000000000E+00 -0.10910585856E+04  0.10910585856E+04  0.00000000000E+00 0.  1.
         23    2    1    2    0    0  0.88116762882E+03  0.85990684534E+03 -0.29525311145E+03  0.12687376663E+04  0.81392219495E+02 0.  0.
         11    1    3    3    0    0  0.75198832403E+03  0.76177990749E+03 -0.27560522877E+03  0.11053295025E+04  0.00000000000E+00 0. -1.
        -11    1    3    3    0    0  0.12917930478E+03  0.98126937853E+02 -0.19647882683E+02  0.16340816384E+03  0.00000000000E+00 0.  1.
         22    1    1    2    0    0 -0.88116762882E+03 -0.85990684534E+03  0.91713923439E+03  0.15352656278E+04  0.00000000000E+00 0. -1.
<mgrwt>
<rscale>  0 0.27341712E+04</rscale>
<asrwt>0</asrwt>
<pdfrwt beam="1">  1        1 0.26352996E+00 0.27341712E+04</pdfrwt>
<pdfrwt beam="2">  1       -1 0.16785517E+00 0.27341712E+04</pdfrwt>
<totfact> 0.10376018E+00</totfact>
</mgrwt>
</event>
<event>
 6    1  0.1588846E-005  0.2619105E+04  0.7818608E-02  0.8361740E-01
          1   -1    0    0  501    0  0.00000000000E+00  0.00000000000E+00  0.11225455246E+04  0.11225455246E+04  0.00000000000E+00 0. -1.
         -1   -1    0    0    0  501 -0.00000000000E+00 -0.00000000000E+00 -0.15277134412E+04  0.15277134412E+04  0.00000000000E+00 0.  1.
         23    2    1    2    0    0 -0.95832390477E+03 -0.19647936620E+03 -0.10813363240E+04  0.14610606800E+04  0.91767190058E+02 0.  0.
         13    1    3    3    0    0 -0.15991716964E+03 -0.25507032424E+02 -0.23174321826E+03  0.28271722456E+03  0.00000000000E+00 0. -1.
        -13    1    3    3    0    0 -0.79840673512E+03 -0.17097233378E+03 -0.84959310571E+03  0.11783434554E+04  0.00000000000E+00 0.  1.
         22    1    1    2    0    0  0.95832390477E+03  0.19647936620E+03  0.67616840746E+03  0.11891982858E+04  0.00000000000E+00 0. -1.
<mgrwt>
<rscale>  0 0.26191051E+04</rscale>
<asrwt>0</asrwt>
<pdfrwt beam="1">  1        1 0.17269931E+00 0.26191051E+04</pdfrwt>
<pdfrwt beam="2">  1       -1 0.23503284E+00 0.26191051E+04</pdfrwt>
<totfact> 0.93727313E-01</totfact>
</mgrwt>
</event>
<event>
 6    1  0.1588846E-005  0.1143704E+04  0.7818608E-02  0.9163612E-01
          2   -1    0    0  501    0  0.00000000000E+00  0.00000000000E+00  0.12625020601E+04  0.12625020601E+04  0.00000000000E+00 0. -1.
         -2   -1    0    0    0  501 -0.00000000000E+00 -0.00000000000E+00 -0.25902098368E+03  0.25902098368E+03  0.00000000000E+00 0.  1.
         23    2    1    2    0    0 -0.55102850657E+03 -0.15398695851E+02  0.68847539388E+03  0.88662296117E+03  0.90732421989E+02 0.  0.
         11    1    3    3    0    0 -0.13225097379E+03 -0.17236322191E+02  0.11241298681E+03  0.17442502823E+03  0.00000000000E+00 0. -1.
        -11    1    3    3    0    0 -0.41877753278E+03  0.18376263402E+01  0.57606240707E+03  0.71219793293E+03  0.00000000000E+00 0.  1.
         22    1    1    2    0    0  0.55102850657E+03  0.15398695851E+02  0.31500568257E+03  0.63490008264E+03  0.00000000000E+00 0.  1.
<mgrwt>
<rscale>  0 0.11437037E+04</rscale>
<asrwt>0</asrwt>
<pdfrwt beam="1">  1        2 0.19423108E+00 0.11437037E+04</pdfrwt>
<pdfrwt beam="2">  1       -2 0.39849383E-01 0.11437037E+04</pdfrwt>
<totfact> 0.10252720E+02</totfact>
</mgrwt>
</event>
<event>
 6    1  0.1588846E-005  0.1627202E+04  0.7818608E-02  0.8804009E-01
         -2   -1    0    0    0  501 -0.00000000000E+00  0.00000000000E+00  0.64436951427E+03  0.64436951427E+03  0.00000000000E+00 0.  1.
          2   -1    0    0  501    0  0.00000000000E+00 -0.00000000000E+00 -0.10272785502E+04  0.10272785502E+04  0.00000000000E+00 0. -1.
         23    2    1    2    0    0  0.64856219382E+03 -0.45081481226E+03 -0.38102227961E+03  0.88179334738E+03  0.92274675373E+02 0.  0.
         11    1    3    3    0    0  0.43369386180E+03 -0.34927453605E+03 -0.28409709102E+03  0.62513536488E+03  0.00000000000E+00 0. -1.
        -11    1    3    3    0    0  0.21486833202E+03 -0.10154027622E+03 -0.96925188588E+02  0.25665798250E+03  0.00000000000E+00 0.  1.
         22    1    1    2    0    0 -0.64856219382E+03  0.45081481226E+03 -0.18867562973E+01  0.78985471706E+03  0.00000000000E+00 0. -1.
<mgrwt>
<rscale>  0 0.16272025E+04</rscale>
<asrwt>0</asrwt>
<pdfrwt beam="1">  1        2 0.15804285E+00 0.16272025E+04</pdfrwt>
<pdfrwt beam="2">  1       -2 0.99133772E-01 0.16272025E+04</pdfrwt>
<totfact> 0.19527436E+01</totfact>
</mgrwt>
</event>
<event>
 6    1  0.1588846E-005  0.1497125E+04  0.7818608E-02  0.8886367E-01
         -1   -1    0    0    0  501 -0.00000000000E+00  0.00000000000E+00  0.11343948779E+04  0.11343948779E+04  0.00000000000E+00 0.  1.
          1   -1    0    0  501    0  0.00000000000E+00 -0.00000000000E+00 -0.49396006297E+03  0.49396006297E+03  0.00000000000E+00 0. -1.
         23    2    1    2    0    0 -0.27784536430E+03 -0.59352884476E+03 -0.65596737593E+02  0.66505068509E+03  0.92276463573E+02 0.  0.
         11    1    3    3    0    0 -0.36647119491E+02 -0.13492593195E+03 -0.43466467024E+02  0.14641500003E+03  0.00000000000E+00 0. -1.
        -11    1    3    3    0    0 -0.24119824481E+03 -0.45860291282E+03 -0.22130270569E+02  0.51863568506E+03  0.00000000000E+00 0.  1.
         22    1    1    2    0    0  0.27784536430E+03  0.59352884476E+03  0.70603155252E+03  0.96330425577E+03  0.00000000000E+00 0. -1.
<mgrwt>
<rscale>  0 0.14971249E+04</rscale>
<asrwt>0</asrwt>
<pdfrwt beam="1">  1        1 0.75993856E-01 0.14971249E+04</pdfrwt>
<pdfrwt beam="2">  1       -1 0.17452229E+00 0.14971249E+04</pdfrwt>
<totfact> 0.99425820E+00</totfact>
</mgrwt>
</event>
<event>
 6    1  0.1588846E-005  0.1345289E+04  0.7818608E-02  0.8994402E-01
          3   -1    0    0  501    0  0.00000000000E+00  0.00000000000E+00  0.43995569587E+03  0.43995569587E+03  0.00000000000E+00 0. -1.
         -3   -1    0    0    0  501 -0.00000000000E+00 -0.00000000000E+00 -0.10284002998E+04  0.10284002998E+04  0.00000000000E+00 0.  1.
         23    2    1    2    0    0  0.18023949775E+02 -0.43113502427E+03 -0.85431875272E+03  0.96151150783E+03  0.91878052478E+02 0.  0.
         11    1    3    3    0    0  0.30595863400E+02 -0.30192117609E+03 -0.67550000048E+03  0.74053545093E+03  0.00000000000E+00 0.  1.
        -11    1    3    3    0    0 -0.12571913625E+02 -0.12921384818E+03 -0.17881875224E+03  0.22097605691E+03  0.00000000000E+00 0. -1.
         22    1    1    2    0    0 -0.18023949775E+02  0.43113502427E+03  0.26587414875E+03  0.50684448788E+03  0.00000000000E+00 0. -1.
<mgrwt>
<rscale>  0 0.13452889E+04</rscale>
<asrwt>0</asrwt>
<pdfrwt beam="1">  1        3 0.67685492E-01 0.13452889E+04</pdfrwt>
<pdfrwt beam="2">  1       -3 0.15821543E+00 0.13452889E+04</pdfrwt>
<totfact> 0.15073791E+00</totfact>
</mgrwt>
</event>
<event>
 6    1  0.1588846E-005  0.2248366E+04  0.7818608E-02  0.8498562E-01
         -2   -1    0    0    0  501 -0.00000000000E+00  0.00000000000E+00  0.14945106887E+04  0.14945106887E+04  0.00000000000E+00 0.  1.
          2   -1    0    0  501    0  0.00000000000E+00 -0.00000000000E+00 -0.84561956969E+03  0.84561956969E+03  0.00000000000E+00 0. -1.
         23    2    1    2    0    0  0.65284326600E+03 -0.29499147203E+03  0.12241706540E+04  0.14213425560E+04  0.91632814961E+02 0.  0.
         11    1    3    3    0    0  0.14602324713E+03 -0.86152840638E+02  0.22555628404E+03  0.28217146901E+03  0.00000000000E+00 0.  1.
        -11    1    3    3    0    0  0.50682001887E+03 -0.20883863139E+03  0.99861436997E+03  0.11391710870E+04  0.00000000000E+00 0. -1.
         22    1    1    2    0    0 -0.65284326600E+03  0.29499147203E+03 -0.57527953505E+03  0.91878770235E+03  0.00000000000E+00 0. -1.
<mgrwt>
<rscale>  0 0.22483661E+04</rscale>
<asrwt>0</asrwt>
<pdfrwt beam="1">  1        2 0.13009532E+00 0.22483661E+04</pdfrwt>
<pdfrwt beam="2">  1       -2 0.22992472E+00 0.22483661E+04</pdfrwt>
<totfact> 0.24900258E+00</totfact>
</mgrwt>
</event>
<event>
 6    1  0.2334675E-005  0.3186856E+04  0.7818608E-02  0.8192297E-01
         -1   -1    0    0    0  501 -0.00000000000E+00  0.00000000000E+00  0.10545647740E+04  0.10545647740E+04  0.00000000000E+00 0.  1.
          1   -1    0    0  501    0  0.00000000000E+00 -0.00000000000E+00 -0.24076403579E+04  0.24076403579E+04  0.00000000000E+00 0. -1.
         23    2    1    2    0    0 -0.36333752953E+03  0.15027324889E+03  0.99876444320E+03  0.10777245338E+04  0.96765428218E+02 0.  0.
         11    1    3    3    0    0 -0.56814379825E+02 -0.63806350201E+00  0.22173049316E+03  0.22889450076E+03  0.00000000000E+00 0.  1.
        -11    1    3    3    0    0 -0.30652314971E+03  0.15091131239E+03  0.77703395004E+03  0.84883003306E+03  0.00000000000E+00 0. -1.
         22    1    1    2    0    0  0.36333752953E+03 -0.15027324889E+03 -0.23518400271E+04  0.23844805981E+04  0.00000000000E+00 0. -1.
<mgrwt>
<rscale>  0 0.31868559E+04</rscale>
<asrwt>0</asrwt>
<pdfrwt beam="1">  1        1 0.37040620E+00 0.31868559E+04</pdfrwt>
<pdfrwt beam="2">  1       -1 0.16224074E+00 0.31868559E+04</pdfrwt>
<totfact> 0.36940543E-01</totfact>
</mgrwt>
</event>
<event>
 6    1  0.1588846E-005  0.2735454E+04  0.7818608E-02  0.8323592E-01
         -2   -1    0    0    0  501 -0.00000000000E+00  0.00000000000E+00  0.10904670192E+04  0.10904670192E+04  0.00000000000E+00 0.  1.
          2   -1    0    0  501    0  0.00000000000E+00 -0.00000000000E+00 -0.17154820078E+04  0.17154820078E+04  0.00000000000E+00 0. -1.
         23    2    1    2    0    0  0.33014855745E+03  0.64758303593E+03  0.87371334830E+03  0.11402514295E+04  0.91850144973E+02 0.  0.
         11    1    3    3    0    0  0.19683159715E+03  0.40463988721E+03  0.60734332448E+03  0.75587170191E+03  0.00000000000E+00 0.  1.
        -11    1    3    3    0    0  0.13331696031E+03  0.24294314872E+03  0.26637002382E+03  0.38437972762E+03  0.00000000000E+00 0. -1.
         22    1    1    2    0    0 -0.33014855745E+03 -0.64758303593E+03 -0.14987283369E+04  0.16656975974E+04  0.00000000000E+00 0. -1.
<mgrwt>
<rscale>  0 0.27354536E+04</rscale>
<asrwt>0</asrwt>
<pdfrwt beam="1">  1        2 0.26392031E+00 0.27354536E+04</pdfrwt>
<pdfrwt beam="2">  1       -2 0.16776416E+00 0.27354536E+04</pdfrwt>
<totfact> 0.18599893E+00</totfact>
</mgrwt>
</event>
<event>
 6    1  0.1588846E-005  0.3135896E+04  0.7818608E-02  0.8205955E-01
          1   -1    0    0  501    0  0.00000000000E+00  0.00000000000E+00  0.35528531517E+04  0.35528531517E+04  0.00000000000E+00 0. -1.
         -1   -1    0    0    0  501 -0.00000000000E+00 -0.00000000000E+00 -0.69196805495E+03  0.69196805495E+03  0.00000000000E+00 0.  1.
         23    2    1    2    0    0  0.11201198542E+04 -0.68069761447E+03  0.25932069937E+04  0.29070359858E+04  0.90099838219E+02 0.  0.
         13    1    3    3    0    0  0.61944154963E+03 -0.33258109941E+03  0.13337256573E+04  0.15076943158E+04  0.00000000000E+00 0. -1.
        -13    1    3    3    0    0  0.50067830456E+03 -0.34811651506E+03  0.12594813364E+04  0.13993416700E+04  0.00000000000E+00 0.  1.
         22    1    1    2    0    0 -0.11201198542E+04  0.68069761447E+03  0.26767810305E+03  0.13377852208E+04  0.00000000000E+00 0.  1.
<mgrwt>
<rscale>  0 0.31358960E+04</rscale>
<asrwt>0</asrwt>
<pdfrwt beam="1">  1        1 0.54659278E+00 0.31358960E+04</pdfrwt>
<pdfrwt beam="2">  1       -1 0.10645663E+00 0.31358960E+04</pdfrwt>
<totfact> 0.15717161E-01</totfact>
</mgrwt>
</event>
<event>
 6    1  0.1588846E-005  0.2503552E+04  0.7818608E-02  0.8401721E-01
          1   -1    0    0  501    0  0.00000000000E+00  0.00000000000E+00  0.18354642349E+04  0.18354642349E+04  0.00000000000E+00 0. -1.
         -1   -1    0    0    0  501 -0.00000000000E+00 -0.00000000000E+00 -0.85370410918E+03  0.85370410918E+03  0.00000000000E+00 0.  1.
         23    2    1    2    0    0 -0.40427746501E+03  0.92586617457E+03 -0.29909738950E+03  0.10578301154E+04  0.94217104603E+02 0.  0.
         11    1    3    3    0    0 -0.38577628744E+03  0.83933994201E+03 -0.29314284771E+03  0.96914787900E+03  0.00000000000E+00 0.  1.
        -11    1    3    3    0    0 -0.18501177576E+02  0.86526232560E+02 -0.59545417876E+01  0.88682236443E+02  0.00000000000E+00 0. -1.
         22    1    1    2    0    0  0.40427746501E+03 -0.92586617457E+03  0.12808575152E+04  0.16313382286E+04  0.00000000000E+00 0.  1.
<mgrwt>
<rscale>  0 0.25035522E+04</rscale>
<asrwt>0</asrwt>
<pdfrwt beam="1">  1        1 0.28237911E+00 0.25035522E+04</pdfrwt>
<pdfrwt beam="2">  1       -1 0.13133909E+00 0.25035522E+04</pdfrwt>
<totfact> 0.16912383E+00</totfact>
</mgrwt>
</event>
<event>
 6    1  0.1588846E-005  0.1695409E+04  0.7818608E-02  0.8763987E-01
         -1   -1    0    0    0  501 -0.00000000000E+00  0.00000000000E+00  0.58368439183E+03  0.58368439183E+03  0.00000000000E+00 0.  1.
          1   -1    0    0  501    0  0.00000000000E+00 -0.00000000000E+00 -0.12311504501E+04  0.12311504501E+04  0.00000000000E+00 0. -1.
         23    2    1    2    0    0 -0.14802384850E+03  0.12097363663E+03 -0.12060299279E+04  0.12244626906E+04  0.90857103534E+02 0.  0.
         13    1    3    3    0    0 -0.79207739407E+02  0.11361425375E+03 -0.68544039612E+03  0.69929292952E+03  0.00000000000E+00 0.  1.
        -13    1    3    3    0    0 -0.68816109095E+02  0.73593828829E+01 -0.52058953180E+03  0.52516976113E+03  0.00000000000E+00 0. -1.
         22    1    1    2    0    0  0.14802384850E+03 -0.12097363663E+03  0.55856386967E+03  0.59037215127E+03  0.00000000000E+00 0.  1.
<mgrwt>
<rscale>  0 0.16954095E+04</rscale>
<asrwt>0</asrwt>
<pdfrwt beam="1">  1        1 0.18940776E+00 0.16954095E+04</pdfrwt>
<pdfrwt beam="2">  1       -1 0.89797600E-01 0.16954095E+04</pdfrwt>
<totfact> 0.11720646E+01</totfact>
</mgrwt>
</event>
<event>
 6    1  0.1588846E-005  0.1545913E+04  0.7818608E-02  0.8854482E-01
         -2   -1    0    0    0  501 -0.00000000000E+00  0.00000000000E+00  0.22304736861E+03  0.22304736861E+03  0.00000000000E+00 0.  1.
          2   -1    0    0  501    0  0.00000000000E+00 -0.00000000000E+00 -0.26786326753E+04  0.26786326753E+04  0.00000000000E+00 0. -1.
         23    2    1    2    0    0  0.51956805498E+03  0.56411478614E+03 -0.13598173973E+04  0.15641884488E+04  0.96982955676E+02 0.  0.
         13    1    3    3    0    0  0.18698781204E+03  0.19922215542E+03 -0.39361041661E+03  0.47914827467E+03  0.00000000000E+00 0. -1.
        -13    1    3    3    0    0  0.33258024293E+03  0.36489263072E+03 -0.96620698068E+03  0.10850401741E+04  0.00000000000E+00 0.  1.
         22    1    1    2    0    0 -0.51956805498E+03 -0.56411478614E+03 -0.10957679094E+04  0.13374915951E+04  0.00000000000E+00 0.  1.
<mgrwt>
<rscale>  0 0.15459133E+04</rscale>
<asrwt>0</asrwt>
<pdfrwt beam="1">  1        2 0.41209733E+00 0.15459133E+04</pdfrwt>
<pdfrwt beam="2">  1       -2 0.34314980E-01 0.15459133E+04</pdfrwt>
<totfact> 0.21025492E+01</totfact>
</mgrwt>
</event>
<event>
 6    1  0.1588846E-005  0.1644233E+04  0.7818608E-02  0.8793826E-01
          1   -1    0    0  501    0  0.00000000000E+00  0.00000000000E+00  0.18202831731E+04  0.18202831731E+04  0.00000000000E+00 0. -1.
         -1   -1    0    0    0  501 -0.00000000000E+00 -0.00000000000E+00 -0.37130234901E+03  0.37130234901E+03  0.00000000000E+00 0.  1.
         23    2    1    2    0    0  0.46392970284E+03  0.67551843056E+03  0.77548087794E+03  0.11308508255E+04  0.76792435611E+02 0.  0.
         11    1    3    3    0    0  0.12320132320E+03  0.20020253932E+03  0.17869135025E+03  0.29527990355E+03  0.00000000000E+00 0. -1.
        -11    1    3    3    0    0  0.34072837964E+03  0.47531589124E+03  0.59678952770E+03  0.83557092190E+03  0.00000000000E+00 0.  1.
         22    1    1    2    0    0 -0.46392970284E+03 -0.67551843056E+03  0.67349994611E+03  0.10607346966E+04  0.00000000000E+00 0.  1.
<mgrwt>
<rscale>  0 0.16442329E+04</rscale>
<asrwt>0</asrwt>
<pdfrwt beam="1">  1        1 0.28004356E+00 0.16442329E+04</pdfrwt>
<pdfrwt beam="2">  1       -1 0.57123439E-01 0.16442329E+04</pdfrwt>
<totfact> 0.11709481E+01</totfact>
</mgrwt>
</event>
<event>
 6    1  0.1588846E-005  0.1333367E+04  0.7818608E-02  0.9003516E-01
         -1   -1    0    0    0  501 -0.00000000000E+00  0.00000000000E+00  0.47351225133E+03  0.47351225133E+03  0.00000000000E+00 0.  1.
          1   -1    0    0  501    0  0.00000000000E+00 -0.00000000000E+00 -0.93865915063E+03  0.93865915063E+03  0.00000000000E+00 0. -1.
         23    2    1    2    0    0 -0.23032836494E+03  0.31866157292E+03 -0.79975549474E+03  0.89587762329E+03  0.91605189836E+02 0.  0.
         11    1    3    3    0    0 -0.17857229772E+03  0.29737597152E+03 -0.70792012291E+03  0.78833459544E+03  0.00000000000E+00 0. -1.
        -11    1    3    3    0    0 -0.51756067218E+02  0.21285601403E+02 -0.91835371824E+02  0.10754302785E+03  0.00000000000E+00 0.  1.
         22    1    1    2    0    0  0.23032836494E+03 -0.31866157292E+03  0.33460859543E+03  0.51629377867E+03  0.00000000000E+00 0.  1.
<mgrwt>
<rscale>  0 0.13333666E+04</rscale>
<asrwt>0</asrwt>
<pdfrwt beam="1">  1        1 0.14440910E+00 0.13333666E+04</pdfrwt>
<pdfrwt beam="2">  1       -1 0.72848039E-01 0.13333666E+04</pdfrwt>
<totfact> 0.31524142E+01</totfact>
</mgrwt>
</event>
<event>
 6    1  0.1588846E-005  0.2532895E+04  0.7818608E-02  0.8391359E-01
         -2   -1    0    0    0  501 -0.00000000000E+00  0.00000000000E+00  0.54141494471E+03  0.54141494471E+03  0.00000000000E+00 0.  1.
          2   -1    0    0  501    0  0.00000000000E+00 -0.00000000000E+00 -0.29624026942E+04  0.29624026942E+04  0.00000000000E+00 0. -1.
         23    2    1    2    0    0 -0.11718413199E+04  0.29398570472E+03 -0.17297814729E+04  0.21119103897E+04  0.91552587027E+02 0.  0.
         11    1    3    3    0    0 -0.57101382647E+03  0.17883275392E+03 -0.80292210526E+03  0.10013600007E+04  0.00000000000E+00 0.  1.
        -11    1    3    3    0    0 -0.60082749346E+03  0.11515295081E+03 -0.92685936769E+03  0.11105503890E+04  0.00000000000E+00 0. -1.
         22    1    1    2    0    0  0.11718413199E+04 -0.29398570472E+03 -0.69120627650E+03  0.13919072492E+04  0.00000000000E+00 0. -1.
<mgrwt>
<rscale>  0 0.25328949E+04</rscale>
<asrwt>0</asrwt>
<pdfrwt beam="1">  1        2 0.45575425E+00 0.25328949E+04</pdfrwt>
<pdfrwt beam="2">  1       -2 0.83294609E-01 0.25328949E+04</pdfrwt>
<totfact> 0.20628133E+00</totfact>
</mgrwt>
</event>
<event>
 6    1  0.1588846E-005  0.2112356E+04  0.7818608E-02  0.8555820E-01
         -2   -1    0    0    0  501 -0.00000000000E+00  0.00000000000E+00  0.14080585245E+04  0.14080585245E+04  0.00000000000E+00 0.  1.
          2   -1    0    0  501    0  0.00000000000E+00 -0.00000000000E+00 -0.79223434565E+03  0.79223434565E+03  0.00000000000E+00 0. -1.
         23    2    1    2    0    0 -0.67135490240E+03 -0.51086420122E+03 -0.34988076548E+03  0.91799583881E+03  0.92737117448E+02 0.  0.
         11    1    3    3    0    0 -0.30185819029E+03 -0.21482154302E+03 -0.10572574964E+03  0.38528508475E+03  0.00000000000E+00 0. -1.
        -11    1    3    3    0    0 -0.36949671211E+03 -0.29604265820E+03 -0.24415501584E+03  0.53271075406E+03  0.00000000000E+00 0.  1.
         22    1    1    2    0    0  0.67135490240E+03  0.51086420122E+03  0.96570494432E+03  0.12822970313E+04  0.00000000000E+00 0.  1.
<mgrwt>
<rscale>  0 0.21123563E+04</rscale>
<asrwt>0</asrwt>
<pdfrwt beam="1">  1        2 0.12188221E+00 0.21123563E+04</pdfrwt>
<pdfrwt beam="2">  1       -2 0.21662439E+00 0.21123563E+04</pdfrwt>
<totfact> 0.33345482E+00</totfact>
</mgrwt>
</event>
<event>
 6    1  0.1588846E-005  0.5811521E+04  0.7818608E-02  0.7714220E-01
         -3   -1    0    0    0  501 -0.00000000000E+00  0.00000000000E+00  0.23445879056E+04  0.23445879056E+04  0.00000000000E+00 0.  1.
          3   -1    0    0  501    0  0.00000000000E+00 -0.00000000000E+00 -0.36012487718E+04  0.36012487718E+04  0.00000000000E+00 0. -1.
         23    2    1    2    0    0  0.19990623039E+04  0.18748847255E+04 -0.16139999826E+04  0.31819383304E+04  0.91064626703E+02 0.  0.
         13    1    3    3    0    0  0.75645658031E+03  0.67811680246E+03 -0.64194262374E+03  0.12017317870E+04  0.00000000000E+00 0.  1.
        -13    1    3    3    0    0  0.12426057236E+04  0.11967679230E+04 -0.97205735882E+03  0.19802065434E+04  0.00000000000E+00 0. -1.
         22    1    1    2    0    0 -0.19990623039E+04 -0.18748847255E+04  0.35733911636E+03  0.27638983470E+04  0.00000000000E+00 0.  1.
<mgrwt>
<rscale>  0 0.58115211E+04</rscale>
<asrwt>0</asrwt>
<pdfrwt beam="1">  1        3 0.55403827E+00 0.58115211E+04</pdfrwt>
<pdfrwt beam="2">  1       -3 0.36070583E+00 0.58115211E+04</pdfrwt>
<totfact> 0.57404389E-05</totfact>
</mgrwt>
</event>
<event>
 6    1  0.1588846E-005  0.3266174E+04  0.7818608E-02  0.8171556E-01
          2   -1    0    0  501    0  0.00000000000E+00  0.00000000000E+00  0.78322629166E+03  0.78322629166E+03  0.00000000000E+00 0. -1.
         -2   -1    0    0    0  501 -0.00000000000E+00 -0.00000000000E+00 -0.34051117649E+04  0.34051117649E+04  0.00000000000E+00 0.  1.
         23    2    1    2    0    0 -0.47510613000E+03 -0.85173085445E+03 -0.29896435721E+04  0.31460246189E+04  0.91273934364E+02 0.  0.
         13    1    3    3    0    0 -0.26769017804E+03 -0.42821942948E+03 -0.14235250129E+04  0.15104480704E+04  0.00000000000E+00 0. -1.
        -13    1    3    3    0    0 -0.20741595197E+03 -0.42351142497E+03 -0.15661185593E+04  0.16355765485E+04  0.00000000000E+00 0.  1.
         22    1    1    2    0    0  0.47510613000E+03  0.85173085445E+03  0.36775809884E+03  0.10423134377E+04  0.00000000000E+00 0. -1.
<mgrwt>
<rscale>  0 0.32661739E+04</rscale>
<asrwt>0</asrwt>
<pdfrwt beam="1">  1        2 0.12049636E+00 0.32661739E+04</pdfrwt>
<pdfrwt beam="2">  1       -2 0.52386333E+00 0.32661739E+04</pdfrwt>
<totfact> 0.35077607E-02</totfact>
</mgrwt>
</event>
<event>
 6    1  0.1588846E-005  0.3588172E+03  0.7818608E-02  0.1059053E+00
          2   -1    0    0  501    0  0.00000000000E+00  0.00000000000E+00  0.39367601211E+02  0.39367601211E+02  0.00000000000E+00 0. -1.
         -2   -1    0    0    0  501 -0.00000000000E+00 -0.00000000000E+00 -0.81761275084E+03  0.81761275084E+03  0.00000000000E+00 0.  1.
         23    2    1    2    0    0  0.12852773755E+03 -0.10735280587E+03 -0.43098419962E+03  0.47144932651E+03  0.92049350351E+02 0.  0.
         13    1    3    3    0    0  0.44855721980E+02  0.38567148688E+01 -0.58523629051E+02  0.73837153258E+02  0.00000000000E+00 0. -1.
        -13    1    3    3    0    0  0.83672015573E+02 -0.11120952074E+03 -0.37246057057E+03  0.39761217326E+03  0.00000000000E+00 0.  1.
         22    1    1    2    0    0 -0.12852773755E+03  0.10735280587E+03 -0.34726095001E+03  0.38553102554E+03  0.00000000000E+00 0. -1.
<mgrwt>
<rscale>  0 0.35881724E+03</rscale>
<asrwt>0</asrwt>
<pdfrwt beam="1">  1        2 0.60565534E-02 0.35881724E+03</pdfrwt>
<pdfrwt beam="2">  1       -2 0.12578659E+00 0.35881724E+03</pdfrwt>
<totfact> 0.60673667E+02</totfact>
</mgrwt>
</event>
<event>
 6    1  0.1588846E-005  0.4520959E+04  0.7818608E-02  0.7906978E-01
          2   -1    0    0  501    0  0.00000000000E+00  0.00000000000E+00  0.32488526498E+04  0.32488526498E+04  0.00000000000E+00 0.  1.
         -2   -1    0    0    0  501 -0.00000000000E+00 -0.00000000000E+00 -0.15727916852E+04  0.15727916852E+04  0.00000000000E+00 0. -1.
         23    2    1    2    0    0 -0.19070057351E+03  0.73603321785E+03  0.31076602946E+04  0.32006606065E+04  0.92542987236E+02 0.  0.
         13    1    3    3    0    0 -0.10409617937E+02  0.19654475017E+03  0.75965722995E+03  0.78474027932E+03  0.00000000000E+00 0. -1.
        -13    1    3    3    0    0 -0.18029095557E+03  0.53948846768E+03  0.23480030647E+04  0.24159203272E+04  0.00000000000E+00 0.  1.
         22    1    1    2    0    0  0.19070057351E+03 -0.73603321785E+03 -0.14315993301E+04  0.16209837286E+04  0.00000000000E+00 0. -1.
<mgrwt>
<rscale>  0 0.45209594E+04</rscale>
<asrwt>0</asrwt>
<pdfrwt beam="1">  1        2 0.49982348E+00 0.45209594E+04</pdfrwt>
<pdfrwt beam="2">  1       -2 0.24196795E+00 0.45209594E+04</pdfrwt>
<totfact> 0.65548428E-02</totfact>
</mgrwt>
</event>
<event>
 6    1  0.2717402E-005  0.3263667E+04  0.7818608E-02  0.8172202E-01
          2   -1    0    0  501    0  0.00000000000E+00  0.00000000000E+00  0.27849922055E+04  0.27849922055E+04  0.00000000000E+00 0. -1.
         -2   -1    0    0    0  501 -0.00000000000E+00 -0.00000000000E+00 -0.95615354767E+03  0.95615354767E+03  0.00000000000E+00 0.  1.
         23    2    1    2    0    0  0.59024191191E+02 -0.13384570524E+04 -0.14869032452E+03  0.13525118314E+04  0.11058166726E+03 0.  0.
         11    1    3    3    0    0  0.61067715449E+02 -0.56339558841E+03 -0.10400604071E+03  0.57616066458E+03  0.00000000000E+00 0. -1.
        -11    1    3    3    0    0 -0.20435242580E+01 -0.77506146401E+03 -0.44684283803E+02  0.77635116681E+03  0.00000000000E+00 0.  1.
         22    1    1    2    0    0 -0.59024191191E+02  0.13384570524E+04  0.19775289824E+04  0.23886339218E+04  0.00000000000E+00 0. -1.
<mgrwt>
<rscale>  0 0.32636668E+04</rscale>
<asrwt>0</asrwt>
<pdfrwt beam="1">  1        2 0.42846034E+00 0.32636668E+04</pdfrwt>
<pdfrwt beam="2">  1       -2 0.14710055E+00 0.32636668E+04</pdfrwt>
<totfact> 0.62376076E-01</totfact>
</mgrwt>
</event>
<event>
 6    1  0.1588846E-005  0.5891119E+04  0.7818608E-02  0.7704050E-01
          2   -1    0    0  501    0  0.00000000000E+00  0.00000000000E+00  0.42031543386E+04  0.42031543386E+04  0.00000000000E+00 0. -1.
         -2   -1    0    0    0  501 -0.00000000000E+00 -0.00000000000E+00 -0.20642402493E+04  0.20642402493E+04  0.00000000000E+00 0.  1.
         23    2    1    2    0    0  0.55039391293E+03 -0.77727618031E+03 -0.18948532211E+04  0.21227148133E+04  0.91420618446E+02 0.  0.
         13    1    3    3    0    0  0.31721450975E+03 -0.37810151294E+03 -0.10257518212E+04  0.11383112923E+04  0.00000000000E+00 0. -1.
        -13    1    3    3    0    0  0.23317940318E+03 -0.39917466737E+03 -0.86910139983E+03  0.98440352108E+03  0.00000000000E+00 0.  1.
         22    1    1    2    0    0 -0.55039391293E+03  0.77727618031E+03  0.40337673103E+04  0.41446797746E+04  0.00000000000E+00 0. -1.
<mgrwt>
<rscale>  0 0.58911189E+04</rscale>
<asrwt>0</asrwt>
<pdfrwt beam="1">  1        2 0.64663913E+00 0.58911189E+04</pdfrwt>
<pdfrwt beam="2">  1       -2 0.31757542E+00 0.58911189E+04</pdfrwt>
<totfact> 0.38582763E-03</totfact>
</mgrwt>
</event>
<event>
 6    1  0.1588846E-005  0.1287550E+04  0.7818608E-02  0.9039497E-01
         -2   -1    0    0    0  501 -0.00000000000E+00  0.00000000000E+00  0.13452814719E+03  0.13452814719E+03  0.00000000000E+00 0. -1.
          2   -1    0    0  501    0  0.00000000000E+00 -0.00000000000E+00 -0.30807416283E+04  0.30807416283E+04  0.00000000000E+00 0.  1.
         23    2    1    2    0    0 -0.22014320511E+03 -0.60103462239E+03 -0.14226938374E+04  0.15627511666E+04  0.91803080392E+02 0.  0.
         11    1    3    3    0    0 -0.11543654060E+03 -0.34750786419E+03 -0.91792570214E+03  0.98826864021E+03  0.00000000000E+00 0. -1.
        -11    1    3    3    0    0 -0.10470666451E+03 -0.25352675820E+03 -0.50476813530E+03  0.57448252639E+03  0.00000000000E+00 0.  1.
         22    1    1    2    0    0  0.22014320511E+03  0.60103462239E+03 -0.15235196437E+04  0.16525186089E+04  0.00000000000E+00 0. -1.
<mgrwt>
<rscale>  0 0.12875503E+04</rscale>
<asrwt>0</asrwt>
<pdfrwt beam="1">  1        2 0.47396021E+00 0.12875503E+04</pdfrwt>
<pdfrwt beam="2">  1       -2 0.20696640E-01 0.12875503E+04</pdfrwt>
<totfact> 0.30963078E+01</totfact>
</mgrwt>
</event>
<event>
 6    1  0.1588846E-005  0.1650598E+04  0.7818608E-02  0.8790053E-01
          2   -1    0    0  501    0  0.00000000000E+00  0.00000000000E+00  0.23310237759E+04  0.23310237759E+04  0.00000000000E+00 0. -1.
         -2   -1    0    0    0  501 -0.00000000000E+00 -0.00000000000E+00 -0.29219695205E+03  0.29219695205E+03  0.00000000000E+00 0.  1.
         23    2    1    2    0    0 -0.24599200199E+03 -0.54820376638E+02  0.22672589887E+04  0.22830757697E+04  0.91947319155E+02 0.  0.
         11    1    3    3    0    0 -0.41128350041E+02 -0.38486969582E+02  0.72488322420E+03  0.72706841269E+03  0.00000000000E+00 0. -1.
        -11    1    3    3    0    0 -0.20486365195E+03 -0.16333407056E+02  0.15423757645E+04  0.15560073570E+04  0.00000000000E+00 0.  1.
         22    1    1    2    0    0  0.24599200199E+03  0.54820376638E+02 -0.22843216482E+03  0.34014495831E+03  0.00000000000E+00 0.  1.
<mgrwt>
<rscale>  0 0.16505975E+04</rscale>
<asrwt>0</asrwt>
<pdfrwt beam="1">  1        2 0.35861903E+00 0.16505975E+04</pdfrwt>
<pdfrwt beam="2">  1       -2 0.44953379E-01 0.16505975E+04</pdfrwt>
<totfact> 0.19535510E+01</totfact>
</mgrwt>
</event>
<event>
 6    1  0.1588846E-005  0.1839180E+04  0.7818608E-02  0.8685737E-01
         -3   -1    0    0    0  501 -0.00000000000E+00  0.00000000000E+00  0.87632909532E+03  0.87632909532E+03  0.00000000000E+00 0.  1.
          3   -1    0    0  501    0  0.00000000000E+00 -0.00000000000E+00 -0.96498611875E+03  0.96498611875E+03  0.00000000000E+00 0. -1.
         23    2    1    2    0    0 -0.67936861887E+03  0.50151227249E+03 -0.40375242374E+03  0.94001537991E+03  0.86928792844E+02 0.  0.
         13    1    3    3    0    0 -0.59369057140E+02  0.60460515863E+02 -0.16740711295E+02  0.86373666929E+02  0.00000000000E+00 0.  1.
        -13    1    3    3    0    0 -0.61999956173E+03  0.44105175663E+03 -0.38701171244E+03  0.85364171298E+03  0.00000000000E+00 0. -1.
         22    1    1    2    0    0  0.67936861887E+03 -0.50151227249E+03  0.31509540031E+03  0.90129983416E+03  0.00000000000E+00 0.  1.
<mgrwt>
<rscale>  0 0.18391796E+04</rscale>
<asrwt>0</asrwt>
<pdfrwt beam="1">  1        3 0.14845940E+00 0.18391796E+04</pdfrwt>
<pdfrwt beam="2">  1       -3 0.13481986E+00 0.18391796E+04</pdfrwt>
<totfact> 0.34655589E-01</totfact>
</mgrwt>
</event>
<event>
 6    1  0.1588846E-005  0.4740454E+04  0.7818608E-02  0.7869841E-01
          2   -1    0    0  501    0  0.00000000000E+00  0.00000000000E+00  0.47665778305E+04  0.47665778305E+04  0.00000000000E+00 0. -1.
         -2   -1    0    0    0  501 -0.00000000000E+00 -0.00000000000E+00 -0.11786182831E+04  0.11786182831E+04  0.00000000000E+00 0.  1.
         23    2    1    2    0    0 -0.91641530414E+03  0.62215392277E+03 -0.83252586226E+03  0.13880496633E+04  0.81792683948E+02 0.  0.
         13    1    3    3    0    0 -0.78045734451E+03  0.49541287396E+03 -0.70651739452E+03  0.11634923339E+04  0.00000000000E+00 0. -1.
        -13    1    3    3    0    0 -0.13595795963E+03  0.12674104882E+03 -0.12600846774E+03  0.22455732940E+03  0.00000000000E+00 0.  1.
         22    1    1    2    0    0  0.91641530414E+03 -0.62215392277E+03  0.44204854096E+04  0.45571464503E+04  0.00000000000E+00 0. -1.
<mgrwt>
<rscale>  0 0.47404539E+04</rscale>
<asrwt>0</asrwt>
<pdfrwt beam="1">  1        2 0.73331966E+00 0.47404539E+04</pdfrwt>
<pdfrwt beam="2">  1       -2 0.18132589E+00 0.47404539E+04</pdfrwt>
<totfact> 0.84547331E-03</totfact>
</mgrwt>
</event>
<event>
 6    1  0.1588846E-005  0.7642735E+03  0.7818608E-02  0.9613220E-01
         -4   -1    0    0    0  501 -0.00000000000E+00  0.00000000000E+00  0.10184822019E+04  0.10184822019E+04  0.00000000000E+00 0.  1.
          4   -1    0    0  501    0  0.00000000000E+00 -0.00000000000E+00 -0.14337856198E+03  0.14337856198E+03  0.00000000000E+00 0. -1.
         23    2    1    2    0    0  0.15540812004E+03 -0.32062886587E+03  0.25758406916E+03  0.44891969080E+03  0.90690587708E+02 0.  0.
         11    1    3    3    0    0  0.47952188274E+02 -0.27763019363E+02  0.45503458907E+02  0.71699110015E+02  0.00000000000E+00 0. -1.
        -11    1    3    3    0    0  0.10745593177E+03 -0.29286584651E+03  0.21208061025E+03  0.37722058079E+03  0.00000000000E+00 0.  1.
         22    1    1    2    0    0 -0.15540812004E+03  0.32062886587E+03  0.61751957078E+03  0.71294107309E+03  0.00000000000E+00 0.  1.
<mgrwt>
<rscale>  0 0.76427355E+03</rscale>
<asrwt>0</asrwt>
<pdfrwt beam="1">  1        4 0.22058241E-01 0.76427355E+03</pdfrwt>
<pdfrwt beam="2">  1       -4 0.15668956E+00 0.76427355E+03</pdfrwt>
<totfact> 0.10193580E+01</totfact>
</mgrwt>
</event>
<event>
 6    1  0.1588846E-005  0.1674124E+04  0.7818608E-02  0.8776261E-01
         -4   -1    0    0    0  501 -0.00000000000E+00  0.00000000000E+00  0.58284470235E+03  0.58284470235E+03  0.00000000000E+00 0.  1.
          4   -1    0    0  501    0  0.00000000000E+00 -0.00000000000E+00 -0.12021609046E+04  0.12021609046E+04  0.00000000000E+00 0. -1.
         23    2    1    2    0    0 -0.29406259261E+03  0.78098375204E+03 -0.30324404400E+03  0.89264355122E+03  0.91908269410E+02 0.  0.
         11    1    3    3    0    0 -0.14257856176E+03  0.25461342210E+03 -0.10702538057E+03  0.31082321836E+03  0.00000000000E+00 0.  1.
        -11    1    3    3    0    0 -0.15148403084E+03  0.52637032995E+03 -0.19621866343E+03  0.58182033286E+03  0.00000000000E+00 0. -1.
         22    1    1    2    0    0  0.29406259261E+03 -0.78098375204E+03 -0.31607215827E+03  0.89236205576E+03  0.00000000000E+00 0.  1.
<mgrwt>
<rscale>  0 0.16741244E+04</rscale>
<asrwt>0</asrwt>
<pdfrwt beam="1">  1        4 0.18494783E+00 0.16741244E+04</pdfrwt>
<pdfrwt beam="2">  1       -4 0.89668416E-01 0.16741244E+04</pdfrwt>
<totfact> 0.33829551E-01</totfact>
</mgrwt>
</event>
<event>
 6    1  0.1588846E-005  0.2377631E+04  0.7818608E-02  0.8447926E-01
          2   -1    0    0  501    0  0.00000000000E+00  0.00000000000E+00  0.17029209942E+04  0.17029209942E+04  0.00000000000E+00 0. -1.
         -2   -1    0    0    0  501 -0.00000000000E+00 -0.00000000000E+00 -0.82991685387E+03  0.82991685387E+03  0.00000000000E+00 0.  1.
         23    2    1    2    0    0  0.93620714687E+03  0.52969666041E+03  0.97200272893E+03  0.14526234738E+04  0.90902571945E+02 0.  0.
         13    1    3    3    0    0  0.68495051932E+03  0.38972672665E+03  0.76464083621E+03  0.10980527054E+04  0.00000000000E+00 0. -1.
        -13    1    3    3    0    0  0.25125662754E+03  0.13996993376E+03  0.20736189272E+03  0.35457076838E+03  0.00000000000E+00 0.  1.
         22    1    1    2    0    0 -0.93620714687E+03 -0.52969666041E+03 -0.98998588610E+02  0.10802143743E+04  0.00000000000E+00 0.  1.
<mgrwt>
<rscale>  0 0.23776315E+04</rscale>
<asrwt>0</asrwt>
<pdfrwt beam="1">  1        2 0.26198784E+00 0.23776315E+04</pdfrwt>
<pdfrwt beam="2">  1       -2 0.12767952E+00 0.23776315E+04</pdfrwt>
<totfact> 0.40013446E+00</totfact>
</mgrwt>
</event>
<event>
 6    1  0.1588846E-005  0.1377003E+04  0.7818608E-02  0.8970635E-01
         -1   -1    0    0    0  501 -0.00000000000E+00  0.00000000000E+00  0.16192700986E+04  0.16192700986E+04  0.00000000000E+00 0.  1.
          1   -1    0    0  501    0  0.00000000000E+00 -0.00000000000E+00 -0.29274574318E+03  0.29274574318E+03  0.00000000000E+00 0. -1.
         23    2    1    2    0    0 -0.12009173247E+03  0.67449860298E+03  0.69447740594E+03  0.97989260101E+03  0.92305213911E+02 0.  0.
         13    1    3    3    0    0 -0.11511733020E+03  0.41914070882E+03  0.40892543013E+03  0.59678383097E+03  0.00000000000E+00 0. -1.
        -13    1    3    3    0    0 -0.49744022726E+01  0.25535789416E+03  0.28555197582E+03  0.38310877004E+03  0.00000000000E+00 0.  1.
         22    1    1    2    0    0  0.12009173247E+03 -0.67449860298E+03  0.63204694948E+03  0.93212324077E+03  0.00000000000E+00 0. -1.
<mgrwt>
<rscale>  0 0.13770032E+04</rscale>
<asrwt>0</asrwt>
<pdfrwt beam="1">  1        1 0.45037808E-01 0.13770032E+04</pdfrwt>
<pdfrwt beam="2">  1       -1 0.24911847E+00 0.13770032E+04</pdfrwt>
<totfact> 0.62540371E+00</totfact>
</mgrwt>
</event>
<event>
 6    1  0.1588846E-005  0.2823686E+04  0.7818608E-02  0.8295952E-01
         -1   -1    0    0    0  501 -0.00000000000E+00  0.00000000000E+00  0.12100648063E+04  0.12100648063E+04  0.00000000000E+00 0.  1.
          1   -1    0    0  501    0  0.00000000000E+00 -0.00000000000E+00 -0.16472674803E+04  0.16472674803E+04  0.00000000000E+00 0. -1.
         23    2    1    2    0    0  0.44494236170E+03 -0.10939883044E+04  0.56127374521E+03  0.13108073837E+04  0.91671505046E+02 0.  0.
         11    1    3    3    0    0  0.17596725543E+02 -0.15611609875E+02  0.37765369110E+01  0.23824973111E+02  0.00000000000E+00 0.  1.
        -11    1    3    3    0    0  0.42734563616E+03 -0.10783766945E+04  0.55749720830E+03  0.12869824106E+04  0.00000000000E+00 0. -1.
         22    1    1    2    0    0 -0.44494236170E+03  0.10939883044E+04 -0.99847641920E+03  0.15465249028E+04  0.00000000000E+00 0. -1.
<mgrwt>
<rscale>  0 0.28236858E+04</rscale>
<asrwt>0</asrwt>
<pdfrwt beam="1">  1        1 0.25342576E+00 0.28236858E+04</pdfrwt>
<pdfrwt beam="2">  1       -1 0.18616382E+00 0.28236858E+04</pdfrwt>
<totfact> 0.84146725E-01</totfact>
</mgrwt>
</event>
<event>
 6    1  0.1588846E-005  0.1984980E+04  0.7818608E-02  0.8613675E-01
          2   -1    0    0  501    0  0.00000000000E+00  0.00000000000E+00  0.14293565423E+04  0.14293565423E+04  0.00000000000E+00 0.  1.
         -2   -1    0    0    0  501 -0.00000000000E+00 -0.00000000000E+00 -0.68914666732E+03  0.68914666732E+03  0.00000000000E+00 0. -1.
         23    2    1    2    0    0  0.11955383773E+03 -0.59319986218E+03 -0.46592026775E+03  0.76908514328E+03  0.90725217649E+02 0.  0.
         13    1    3    3    0    0  0.58421768783E+02 -0.20343694263E+03 -0.21397446764E+03  0.30097303118E+03  0.00000000000E+00 0. -1.
        -13    1    3    3    0    0  0.61132068944E+02 -0.38976291954E+03 -0.25194580010E+03  0.46811211210E+03  0.00000000000E+00 0.  1.
         22    1    1    2    0    0 -0.11955383773E+03  0.59319986218E+03  0.12061301428E+04  0.13494180664E+04  0.00000000000E+00 0.  1.
<mgrwt>
<rscale>  0 0.19849799E+04</rscale>
<asrwt>0</asrwt>
<pdfrwt beam="1">  1        2 0.21990101E+00 0.19849799E+04</pdfrwt>
<pdfrwt beam="2">  1       -2 0.10602256E+00 0.19849799E+04</pdfrwt>
<totfact> 0.93014871E+00</totfact>
</mgrwt>
</event>
<event>
 6    1  0.1588846E-005  0.1927723E+04  0.7818608E-02  0.8641179E-01
         -1   -1    0    0    0  501 -0.00000000000E+00  0.00000000000E+00  0.31127903177E+03  0.31127903177E+03  0.00000000000E+00 0.  1.
          1   -1    0    0  501    0  0.00000000000E+00 -0.00000000000E+00 -0.29845532958E+04  0.29845532958E+04  0.00000000000E+00 0. -1.
         23    2    1    2    0    0 -0.74595613806E+03  0.30887179492E+03 -0.44627084580E+03  0.92699367321E+03  0.91144153706E+02 0.  0.
         11    1    3    3    0    0 -0.38871445508E+02  0.38184766590E+02 -0.19512379535E+02  0.57877444920E+02  0.00000000000E+00 0.  1.
        -11    1    3    3    0    0 -0.70708469255E+03  0.27068702832E+03 -0.42675846627E+03  0.86911622829E+03  0.00000000000E+00 0. -1.
         22    1    1    2    0    0  0.74595613806E+03 -0.30887179492E+03 -0.22270034183E+04  0.23688386544E+04  0.00000000000E+00 0.  1.
<mgrwt>
<rscale>  0 0.19277229E+04</rscale>
<asrwt>0</asrwt>
<pdfrwt beam="1">  1        1 0.45916205E+00 0.19277229E+04</pdfrwt>
<pdfrwt beam="2">  1       -1 0.47889081E-01 0.19277229E+04</pdfrwt>
<totfact> 0.25001695E+00</totfact>
</mgrwt>
</event>
<event>
 6    1  0.1588846E-005  0.2877204E+04  0.7818608E-02  0.8279692E-01
          1   -1    0    0  501    0  0.00000000000E+00  0.00000000000E+00  0.15584148541E+04  0.15584148541E+04  0.00000000000E+00 0. -1.
         -1   -1    0    0    0  501 -0.00000000000E+00 -0.00000000000E+00 -0.13280003852E+04  0.13280003852E+04  0.00000000000E+00 0.  1.
         23    2    1    2    0    0  0.48423870303E+03 -0.72889237399E+03 -0.10282749994E+04  0.13534213084E+04  0.92889984164E+02 0.  0.
         11    1    3    3    0    0  0.21116317201E+03 -0.39704414127E+03 -0.50217855959E+03  0.67410477007E+03  0.00000000000E+00 0.  1.
        -11    1    3    3    0    0  0.27307553102E+03 -0.33184823272E+03 -0.52609643985E+03  0.67931653831E+03  0.00000000000E+00 0. -1.
         22    1    1    2    0    0 -0.48423870303E+03  0.72889237399E+03  0.12586894684E+04  0.15329939309E+04  0.00000000000E+00 0. -1.
<mgrwt>
<rscale>  0 0.28772039E+04</rscale>
<asrwt>0</asrwt>
<pdfrwt beam="1">  1        1 0.23975613E+00 0.28772039E+04</pdfrwt>
<pdfrwt beam="2">  1       -1 0.20430775E+00 0.28772039E+04</pdfrwt>
<totfact> 0.72066627E-01</totfact>
</mgrwt>
</event>
<event>
 6    1  0.1588846E-005  0.4274476E+04  0.7818608E-02  0.7951355E-01
          2   -1    0    0  501    0  0.00000000000E+00  0.00000000000E+00  0.18131741613E+04  0.18131741613E+04  0.00000000000E+00 0.  1.
         -2   -1    0    0    0  501 -0.00000000000E+00 -0.00000000000E+00 -0.25192212710E+04  0.25192212710E+04  0.00000000000E+00 0. -1.
         23    2    1    2    0    0  0.18524480045E+04  0.89589530644E+03 -0.93489959674E+03  0.22619931839E+04  0.91563631842E+02 0.  0.
         11    1    3    3    0    0  0.77811002545E+03  0.39982642340E+03 -0.35354778617E+03  0.94356367971E+03  0.00000000000E+00 0. -1.
        -11    1    3    3    0    0  0.10743379790E+04  0.49606888304E+03 -0.58135181057E+03  0.13184295042E+04  0.00000000000E+00 0.  1.
         22    1    1    2    0    0 -0.18524480045E+04 -0.89589530644E+03  0.22885248700E+03  0.20704022484E+04  0.00000000000E+00 0.  1.
<mgrwt>
<rscale>  0 0.42744763E+04</rscale>
<asrwt>0</asrwt>
<pdfrwt beam="1">  1        2 0.27894987E+00 0.42744763E+04</pdfrwt>
<pdfrwt beam="2">  1       -2 0.38757250E+00 0.42744763E+04</pdfrwt>
<totfact> 0.58542911E-02</totfact>
</mgrwt>
</event>
<event>
 6    1  0.1588846E-005  0.2193057E+04  0.7818608E-02  0.8521324E-01
         -2   -1    0    0    0  501 -0.00000000000E+00  0.00000000000E+00  0.62632680169E+03  0.62632680169E+03  0.00000000000E+00 0.  1.
          2   -1    0    0  501    0  0.00000000000E+00 -0.00000000000E+00 -0.19197235616E+04  0.19197235616E+04  0.00000000000E+00 0. -1.
         23    2    1    2    0    0 -0.55864433750E+03 -0.91380073749E+03 -0.38505640733E+03  0.11417008769E+04  0.89984287080E+02 0.  0.
         11    1    3    3    0    0 -0.32613823539E+03 -0.60939403218E+03 -0.22963411164E+03  0.72832620458E+03  0.00000000000E+00 0.  1.
        -11    1    3    3    0    0 -0.23250610211E+03 -0.30440670530E+03 -0.15542229569E+03  0.41337467236E+03  0.00000000000E+00 0. -1.
         22    1    1    2    0    0  0.55864433750E+03  0.91380073749E+03 -0.90834035254E+03  0.14043494863E+04  0.00000000000E+00 0.  1.
<mgrwt>
<rscale>  0 0.21930566E+04</rscale>
<asrwt>0</asrwt>
<pdfrwt beam="1">  1        2 0.29534209E+00 0.21930566E+04</pdfrwt>
<pdfrwt beam="2">  1       -2 0.96357970E-01 0.21930566E+04</pdfrwt>
<totfact> 0.61045493E+00</totfact>
</mgrwt>
</event>
<event>
 6    1  0.1588846E-005  0.2094452E+04  0.7818608E-02  0.8563691E-01
         -1   -1    0    0    0  501 -0.00000000000E+00  0.00000000000E+00  0.65507102731E+03  0.65507102731E+03  0.00000000000E+00 0.  1.
          1   -1    0    0  501    0  0.00000000000E+00 -0.00000000000E+00 -0.16741426358E+04  0.16741426358E+04  0.00000000000E+00 0. -1.
         23    2    1    2    0    0  0.10286600948E+04 -0.11762492281E+03 -0.67014760364E+03  0.12366363549E+04  0.90523204207E+02 0.  0.
         11    1    3    3    0    0  0.54872566212E+03 -0.17263549692E+02 -0.35357887560E+03  0.65300528611E+03  0.00000000000E+00 0. -1.
        -11    1    3    3    0    0  0.47993443272E+03 -0.10036137312E+03 -0.31656872804E+03  0.58363106882E+03  0.00000000000E+00 0.  1.
         22    1    1    2    0    0 -0.10286600948E+04  0.11762492281E+03 -0.34892400485E+03  0.10925773082E+04  0.00000000000E+00 0. -1.
<mgrwt>
<rscale>  0 0.20944520E+04</rscale>
<asrwt>0</asrwt>
<pdfrwt beam="1">  1        1 0.25756040E+00 0.20944520E+04</pdfrwt>
<pdfrwt beam="2">  1       -1 0.10078016E+00 0.20944520E+04</pdfrwt>
<totfact> 0.42758319E+00</totfact>
</mgrwt>
</event>
<event>
 6    1  0.1588846E-005  0.4480040E+04  0.7818608E-02  0.7914141E-01
         -1   -1    0    0    0  501 -0.00000000000E+00  0.00000000000E+00  0.30788308836E+04  0.30788308836E+04  0.00000000000E+00 0.  1.
          1   -1    0    0  501    0  0.00000000000E+00 -0.00000000000E+00 -0.16297383124E+04  0.16297383124E+04  0.00000000000E+00 0. -1.
         23    2    1    2    0    0  0.39456759339E+03  0.83416305699E+03 -0.14194461535E+04  0.16952610460E+04  0.87011723416E+02 0.  0.
         11    1    3    3    0    0  0.29924384994E+03  0.53719290847E+03 -0.93294106184E+03  0.11173639190E+04  0.00000000000E+00 0. -1.
        -11    1    3    3    0    0  0.95323743452E+02  0.29697014852E+03 -0.48650509165E+03  0.57789712699E+03  0.00000000000E+00 0.  1.
         22    1    1    2    0    0 -0.39456759339E+03 -0.83416305699E+03  0.28685387247E+04  0.30133081500E+04  0.00000000000E+00 0.  1.
<mgrwt>
<rscale>  0 0.44800396E+04</rscale>
<asrwt>0</asrwt>
<pdfrwt beam="1">  1        1 0.25072897E+00 0.44800396E+04</pdfrwt>
<pdfrwt beam="2">  1       -1 0.47366629E+00 0.44800396E+04</pdfrwt>
<totfact> 0.89463900E-03</totfact>
</mgrwt>
</event>
<event>
 6    1  0.1588846E-005  0.3280199E+04  0.7818608E-02  0.8167952E-01
         -1   -1    0    0    0  501 -0.00000000000E+00  0.00000000000E+00  0.17016943296E+04  0.17016943296E+04  0.00000000000E+00 0.  1.
          1   -1    0    0  501    0  0.00000000000E+00 -0.00000000000E+00 -0.15807342975E+04  0.15807342975E+04  0.00000000000E+00 0. -1.
         23    2    1    2    0    0 -0.13667707962E+04  0.94660091188E+02  0.96035546460E+03  0.16756904299E+04  0.92913165142E+02 0.  0.
         13    1    3    3    0    0 -0.14923539104E+03 -0.18014492204E+02  0.97869026130E+02  0.17937131918E+03  0.00000000000E+00 0. -1.
        -13    1    3    3    0    0 -0.12175354052E+04  0.11267458339E+03  0.86248643847E+03  0.14963191107E+04  0.00000000000E+00 0.  1.
         22    1    1    2    0    0  0.13667707962E+04 -0.94660091188E+02 -0.83939543254E+03  0.16067381972E+04  0.00000000000E+00 0. -1.
<mgrwt>
<rscale>  0 0.32801991E+04</rscale>
<asrwt>0</asrwt>
<pdfrwt beam="1">  1        1 0.24318989E+00 0.32801991E+04</pdfrwt>
<pdfrwt beam="2">  1       -1 0.26179913E+00 0.32801991E+04</pdfrwt>
<totfact> 0.27922864E-01</totfact>
</mgrwt>
</event>
<event>
 6    1  0.1588846E-005  0.2334464E+04  0.7818608E-02  0.8464455E-01
         -2   -1    0    0    0  501 -0.00000000000E+00  0.00000000000E+00  0.15413720388E+04  0.15413720388E+04  0.00000000000E+00 0.  1.
          2   -1    0    0  501    0  0.00000000000E+00 -0.00000000000E+00 -0.88390759873E+03  0.88390759873E+03  0.00000000000E+00 0. -1.
         23    2    1    2    0    0 -0.62834355238E+03 -0.53301411677E+03  0.11854890165E+04  0.14466430237E+04  0.92044345368E+02 0.  0.
         11    1    3    3    0    0 -0.55789616414E+03 -0.44382169969E+03  0.10589015280E+04  0.12765180285E+04  0.00000000000E+00 0.  1.
        -11    1    3    3    0    0 -0.70447388248E+02 -0.89192417083E+02  0.12658748848E+03  0.17012499527E+03  0.00000000000E+00 0. -1.
         22    1    1    2    0    0  0.62834355238E+03  0.53301411677E+03 -0.52802457640E+03  0.97863661376E+03  0.00000000000E+00 0. -1.
<mgrwt>
<rscale>  0 0.23344639E+04</rscale>
<asrwt>0</asrwt>
<pdfrwt beam="1">  1        2 0.13598578E+00 0.23344639E+04</pdfrwt>
<pdfrwt beam="2">  1       -2 0.23713416E+00 0.23344639E+04</pdfrwt>
<totfact> 0.20974946E+00</totfact>
</mgrwt>
</event>
<event>
 6    1  0.1588846E-005  0.2840822E+04  0.7818608E-02  0.8290706E-01
         -1   -1    0    0    0  501 -0.00000000000E+00  0.00000000000E+00  0.14289790791E+04  0.14289790791E+04  0.00000000000E+00 0.  1.
          1   -1    0    0  501    0  0.00000000000E+00 -0.00000000000E+00 -0.14118941179E+04  0.14118941179E+04  0.00000000000E+00 0. -1.
         23    2    1    2    0    0  0.74018579817E+03  0.52020533740E+02 -0.12010039077E+04  0.14145767186E+04  0.89642371719E+02 0.  0.
         11    1    3    3    0    0  0.62452855631E+03  0.42022051418E+02 -0.94526749693E+03  0.11337250157E+04  0.00000000000E+00 0.  1.
        -11    1    3    3    0    0  0.11565724186E+03  0.99984823220E+01 -0.25573641080E+03  0.28085170295E+03  0.00000000000E+00 0. -1.
         22    1    1    2    0    0 -0.74018579817E+03 -0.52020533740E+02  0.12180888689E+04  0.14262964784E+04  0.00000000000E+00 0.  1.
<mgrwt>
<rscale>  0 0.28408218E+04</rscale>
<asrwt>0</asrwt>
<pdfrwt beam="1">  1        1 0.21721448E+00 0.28408218E+04</pdfrwt>
<pdfrwt beam="2">  1       -1 0.21984293E+00 0.28408218E+04</pdfrwt>
<totfact> 0.71727982E-01</totfact>
</mgrwt>
</event>
<event>
 6    1  0.1725366E-005  0.2577255E+04  0.7818608E-02  0.8375969E-01
         -1   -1    0    0    0  501 -0.00000000000E+00  0.00000000000E+00  0.73021114725E+03  0.73021114725E+03  0.00000000000E+00 0.  1.
          1   -1    0    0  501    0  0.00000000000E+00 -0.00000000000E+00 -0.22740823331E+04  0.22740823331E+04  0.00000000000E+00 0. -1.
         23    2    1    2    0    0 -0.36095000599E+03  0.51425082030E+03  0.53621495915E+03  0.83139284212E+03  0.94597899091E+02 0.  0.
         13    1    3    3    0    0 -0.19347387449E+03  0.35311525600E+03  0.32734032345E+03  0.51891638198E+03  0.00000000000E+00 0. -1.
        -13    1    3    3    0    0 -0.16747613150E+03  0.16113556430E+03  0.20887463570E+03  0.31247646014E+03  0.00000000000E+00 0.  1.
         22    1    1    2    0    0  0.36095000599E+03 -0.51425082030E+03 -0.20800861450E+04  0.21729006383E+04  0.00000000000E+00 0. -1.
<mgrwt>
<rscale>  0 0.25772546E+04</rscale>
<asrwt>0</asrwt>
<pdfrwt beam="1">  1        1 0.34985882E+00 0.25772546E+04</pdfrwt>
<pdfrwt beam="2">  1       -1 0.11234018E+00 0.25772546E+04</pdfrwt>
<totfact> 0.12416810E+00</totfact>
</mgrwt>
</event>
<event>
 6    1  0.1588846E-005  0.1175920E+04  0.7818608E-02  0.9134199E-01
         -2   -1    0    0    0  501 -0.00000000000E+00  0.00000000000E+00  0.68211926930E+03  0.68211926930E+03  0.00000000000E+00 0. -1.
          2   -1    0    0  501    0  0.00000000000E+00 -0.00000000000E+00 -0.50679829745E+03  0.50679829745E+03  0.00000000000E+00 0.  1.
         23    2    1    2    0    0 -0.11980145508E+03 -0.55287194983E+03 -0.60263056786E+02  0.57612101315E+03  0.90906568641E+02 0.  0.
         11    1    3    3    0    0  0.14609515031E+02 -0.81439177052E+02 -0.81920028189E+01  0.83143769451E+02  0.00000000000E+00 0.  1.
        -11    1    3    3    0    0 -0.13441097011E+03 -0.47143277278E+03 -0.52071053967E+02  0.49297724369E+03  0.00000000000E+00 0. -1.
         22    1    1    2    0    0  0.11980145508E+03  0.55287194983E+03  0.23558402864E+03  0.61279655360E+03  0.00000000000E+00 0. -1.
<mgrwt>
<rscale>  0 0.11759199E+04</rscale>
<asrwt>0</asrwt>
<pdfrwt beam="1">  1        2 0.77968969E-01 0.11759199E+04</pdfrwt>
<pdfrwt beam="2">  1       -2 0.10494143E+00 0.11759199E+04</pdfrwt>
<totfact> 0.44100048E+01</totfact>
</mgrwt>
</event>
<event>
 6    1  0.1588846E-005  0.8311588E+03  0.7818608E-02  0.9515980E-01
          2   -1    0    0  501    0  0.00000000000E+00  0.00000000000E+00  0.95844071466E+03  0.95844071466E+03  0.00000000000E+00 0. -1.
         -2   -1    0    0    0  501 -0.00000000000E+00 -0.00000000000E+00 -0.18019503387E+03  0.18019503387E+03  0.00000000000E+00 0.  1.
         23    2    1    2    0    0  0.97337775901E+02  0.32585932366E+03  0.70937185829E+03  0.79164505001E+03  0.88512769901E+02 0.  0.
         11    1    3    3    0    0 -0.16656508171E+02  0.55327719804E+02  0.11097825420E+03  0.12511901833E+03  0.00000000000E+00 0. -1.
        -11    1    3    3    0    0  0.11399428407E+03  0.27053160385E+03  0.59839360409E+03  0.66652603168E+03  0.00000000000E+00 0.  1.
         22    1    1    2    0    0 -0.97337775901E+02 -0.32585932366E+03  0.68873822500E+02  0.34699069852E+03  0.00000000000E+00 0.  1.
<mgrwt>
<rscale>  0 0.83115885E+03</rscale>
<asrwt>0</asrwt>
<pdfrwt beam="1">  1        2 0.14745241E+00 0.83115885E+03</pdfrwt>
<pdfrwt beam="2">  1       -2 0.27722313E-01 0.83115885E+03</pdfrwt>
<totfact> 0.31928326E+02</totfact>
</mgrwt>
</event>
<event>
 6    1  0.1588846E-005  0.2142683E+04  0.7818608E-02  0.8542671E-01
          2   -1    0    0  501    0  0.00000000000E+00  0.00000000000E+00  0.15979663285E+04  0.15979663285E+04  0.00000000000E+00 0. -1.
         -2   -1    0    0    0  501 -0.00000000000E+00 -0.00000000000E+00 -0.71827115385E+03  0.71827115385E+03  0.00000000000E+00 0.  1.
         23    2    1    2    0    0 -0.43409673300E+03 -0.23401296087E+03 -0.58601540326E+03  0.76978685667E+03  0.77173262165E+02 0.  0.
         11    1    3    3    0    0 -0.25716818951E+03 -0.16508225545E+03 -0.31504287024E+03  0.43890732376E+03  0.00000000000E+00 0. -1.
        -11    1    3    3    0    0 -0.17692854350E+03 -0.68930705420E+02 -0.27097253301E+03  0.33087953291E+03  0.00000000000E+00 0.  1.
         22    1    1    2    0    0  0.43409673300E+03  0.23401296087E+03  0.14657105779E+04  0.15464506256E+04  0.00000000000E+00 0. -1.
<mgrwt>
<rscale>  0 0.21426835E+04</rscale>
<asrwt>0</asrwt>
<pdfrwt beam="1">  1        2 0.24584097E+00 0.21426835E+04</pdfrwt>
<pdfrwt beam="2">  1       -2 0.11050326E+00 0.21426835E+04</pdfrwt>
<totfact> 0.66728964E+00</totfact>
</mgrwt>
</event>
<event>
 6    1  0.1588846E-005  0.2483685E+04  0.7818608E-02  0.8408821E-01
          1   -1    0    0  501    0  0.00000000000E+00  0.00000000000E+00  0.21891861924E+04  0.21891861924E+04  0.00000000000E+00 0. -1.
         -1   -1    0    0    0  501 -0.00000000000E+00 -0.00000000000E+00 -0.70445018460E+03  0.70445018460E+03  0.00000000000E+00 0.  1.
         23    2    1    2    0    0 -0.88440558850E+03  0.82193140994E+03  0.41199065104E+03  0.12785428540E+04  0.84800031316E+02 0.  0.
         11    1    3    3    0    0 -0.26472212330E+03  0.19840222640E+03  0.97387486166E+02  0.34485586622E+03  0.00000000000E+00 0. -1.
        -11    1    3    3    0    0 -0.61968346520E+03  0.62352918354E+03  0.31460316487E+03  0.93368698776E+03  0.00000000000E+00 0.  1.
         22    1    1    2    0    0  0.88440558850E+03 -0.82193140994E+03  0.10727453567E+04  0.16150935230E+04  0.00000000000E+00 0. -1.
<mgrwt>
<rscale>  0 0.24836849E+04</rscale>
<asrwt>0</asrwt>
<pdfrwt beam="1">  1        1 0.33679787E+00 0.24836849E+04</pdfrwt>
<pdfrwt beam="2">  1       -1 0.10837695E+00 0.24836849E+04</pdfrwt>
<totfact> 0.15578602E+00</totfact>
</mgrwt>
</event>
<event>
 6    1  0.1588846E-005  0.2839435E+04  0.7818608E-02  0.8291129E-01
         -2   -1    0    0    0  501 -0.00000000000E+00  0.00000000000E+00  0.13745550261E+04  0.13745550261E+04  0.00000000000E+00 0.  1.
          2   -1    0    0  501    0  0.00000000000E+00 -0.00000000000E+00 -0.14663641370E+04  0.14663641370E+04  0.00000000000E+00 0. -1.
         23    2    1    2    0    0  0.71961488094E+03  0.95446091993E+03 -0.80977453506E+03  0.14465319949E+04  0.88762548599E+02 0.  0.
         13    1    3    3    0    0  0.30021051857E+03  0.35189190841E+03 -0.35316168144E+03  0.58196000197E+03  0.00000000000E+00 0. -1.
        -13    1    3    3    0    0  0.41940436237E+03  0.60256901152E+03 -0.45661285362E+03  0.86457199290E+03  0.00000000000E+00 0.  1.
         22    1    1    2    0    0 -0.71961488094E+03 -0.95446091993E+03  0.71796542413E+03  0.13943871682E+04  0.00000000000E+00 0.  1.
<mgrwt>
<rscale>  0 0.28394353E+04</rscale>
<asrwt>0</asrwt>
<pdfrwt beam="1">  1        2 0.22559448E+00 0.28394353E+04</pdfrwt>
<pdfrwt beam="2">  1       -2 0.21147000E+00 0.28394353E+04</pdfrwt>
<totfact> 0.12889958E+00</totfact>
</mgrwt>
</event>
<event>
 6    1  0.1588846E-005  0.2172821E+04  0.7818608E-02  0.8529826E-01
         -1   -1    0    0    0  501 -0.00000000000E+00  0.00000000000E+00  0.17829457230E+04  0.17829457230E+04  0.00000000000E+00 0.  1.
          1   -1    0    0  501    0  0.00000000000E+00 -0.00000000000E+00 -0.66198761225E+03  0.66198761225E+03  0.00000000000E+00 0. -1.
         23    2    1    2    0    0 -0.23308557184E+03  0.79613837988E+03  0.13477275507E+04  0.15849393919E+04  0.86591694068E+02 0.  0.
         13    1    3    3    0    0 -0.18980297321E+03  0.50461836608E+03  0.88849824043E+03  0.10392757032E+04  0.00000000000E+00 0. -1.
        -13    1    3    3    0    0 -0.43282598629E+02  0.29152001380E+03  0.45922931026E+03  0.54566368872E+03  0.00000000000E+00 0.  1.
         22    1    1    2    0    0  0.23308557184E+03 -0.79613837988E+03 -0.22676943991E+03  0.85999394335E+03  0.00000000000E+00 0.  1.
<mgrwt>
<rscale>  0 0.21728212E+04</rscale>
<asrwt>0</asrwt>
<pdfrwt beam="1">  1        1 0.10184425E+00 0.21728212E+04</pdfrwt>
<pdfrwt beam="2">  1       -1 0.27429934E+00 0.21728212E+04</pdfrwt>
<totfact> 0.13126625E+00</totfact>
</mgrwt>
</event>
<event>
 6    1  0.1588846E-005  0.1791840E+04  0.7818608E-02  0.8710651E-01
         -1   -1    0    0    0  501 -0.00000000000E+00  0.00000000000E+00  0.29249822536E+03  0.29249822536E+03  0.00000000000E+00 0.  1.
          1   -1    0    0  501    0  0.00000000000E+00 -0.00000000000E+00 -0.27441954715E+04  0.27441954715E+04  0.00000000000E+00 0. -1.
         23    2    1    2    0    0 -0.70831317592E+03 -0.27179762040E+03 -0.42899157640E+03  0.87638822585E+03  0.91875177067E+02 0.  0.
         11    1    3    3    0    0 -0.50854707328E+03 -0.16637629205E+03 -0.26389944214E+03  0.59661051941E+03  0.00000000000E+00 0. -1.
        -11    1    3    3    0    0 -0.19976610263E+03 -0.10542132835E+03 -0.16509213425E+03  0.27977770645E+03  0.00000000000E+00 0.  1.
         22    1    1    2    0    0  0.70831317592E+03  0.27179762040E+03 -0.20227056698E+04  0.21603054710E+04  0.00000000000E+00 0.  1.
<mgrwt>
<rscale>  0 0.17918396E+04</rscale>
<asrwt>0</asrwt>
<pdfrwt beam="1">  1        1 0.42218393E+00 0.17918396E+04</pdfrwt>
<pdfrwt beam="2">  1       -1 0.44999726E-01 0.17918396E+04</pdfrwt>
<totfact> 0.42314337E+00</totfact>
</mgrwt>
</event>
<event>
 6    1  0.1588846E-005  0.2691032E+04  0.7818608E-02  0.8337921E-01
          2   -1    0    0  501    0  0.00000000000E+00  0.00000000000E+00  0.13976853082E+04  0.13976853082E+04  0.00000000000E+00 0. -1.
         -2   -1    0    0    0  501 -0.00000000000E+00 -0.00000000000E+00 -0.12952938836E+04  0.12952938836E+04  0.00000000000E+00 0.  1.
         23    2    1    2    0    0  0.93296478446E+03  0.23374631938E+03  0.99086901764E+03  0.13836079442E+04  0.86538443540E+02 0.  0.
         11    1    3    3    0    0  0.15294763900E+03  0.38125097507E+02  0.21111479982E+03  0.26346909124E+03  0.00000000000E+00 0. -1.
        -11    1    3    3    0    0  0.78001714545E+03  0.19562122187E+03  0.77975421782E+03  0.11201388529E+04  0.00000000000E+00 0.  1.
         22    1    1    2    0    0 -0.93296478446E+03 -0.23374631938E+03 -0.88847759297E+03  0.13093712476E+04  0.00000000000E+00 0.  1.
<mgrwt>
<rscale>  0 0.26910319E+04</rscale>
<asrwt>0</asrwt>
<pdfrwt beam="1">  1        2 0.21502851E+00 0.26910319E+04</pdfrwt>
<pdfrwt beam="2">  1       -2 0.19927598E+00 0.26910319E+04</pdfrwt>
<totfact> 0.17136812E+00</totfact>
</mgrwt>
</event>
<event>
 6    1  0.1588846E-005  0.9345257E+03  0.7818608E-02  0.9383423E-01
          2   -1    0    0  501    0  0.00000000000E+00  0.00000000000E+00  0.84836427696E+03  0.84836427696E+03  0.00000000000E+00 0. -1.
         -2   -1    0    0    0  501 -0.00000000000E+00 -0.00000000000E+00 -0.25735946903E+03  0.25735946903E+03  0.00000000000E+00 0.  1.
         23    2    1    2    0    0  0.16777926856E+03 -0.40127704312E+02  0.80644936159E+03  0.82972289216E+03  0.91210686633E+02 0.  0.
         13    1    3    3    0    0  0.10352197706E+03  0.94763944793E+00  0.29542902390E+03  0.31304313747E+03  0.00000000000E+00 0.  1.
        -13    1    3    3    0    0  0.64257291508E+02 -0.41075343760E+02  0.51102033769E+03  0.51667975469E+03  0.00000000000E+00 0. -1.
         22    1    1    2    0    0 -0.16777926856E+03  0.40127704312E+02 -0.21544455366E+03  0.27600085383E+03  0.00000000000E+00 0.  1.
<mgrwt>
<rscale>  0 0.93452572E+03</rscale>
<asrwt>0</asrwt>
<pdfrwt beam="1">  1        2 0.13051758E+00 0.93452572E+03</pdfrwt>
<pdfrwt beam="2">  1       -2 0.39593765E-01 0.93452572E+03</pdfrwt>
<totfact> 0.19213884E+02</totfact>
</mgrwt>
</event>
<event>
 6    1  0.1588846E-005  0.6933421E+04  0.7818608E-02  0.7584341E-01
          1   -1    0    0  501    0  0.00000000000E+00  0.00000000000E+00  0.30827830811E+04  0.30827830811E+04  0.00000000000E+00 0. -1.
         -1   -1    0    0    0  501 -0.00000000000E+00 -0.00000000000E+00 -0.38984521454E+04  0.38984521454E+04  0.00000000000E+00 0.  1.
         23    2    1    2    0    0  0.19613072263E+03  0.29566814663E+04 -0.22184869009E+04  0.37027705803E+04  0.91614884891E+02 0.  0.
         13    1    3    3    0    0  0.17843134039E+03  0.20936646107E+04 -0.15559424888E+04  0.26146178064E+04  0.00000000000E+00 0. -1.
        -13    1    3    3    0    0  0.17699382243E+02  0.86301685567E+03 -0.66254441202E+03  0.10881527738E+04  0.00000000000E+00 0.  1.
         22    1    1    2    0    0 -0.19613072263E+03 -0.29566814663E+04  0.14028178366E+04  0.32784646462E+04  0.00000000000E+00 0. -1.
<mgrwt>
<rscale>  0 0.69334212E+04</rscale>
<asrwt>0</asrwt>
<pdfrwt beam="1">  1        1 0.47427432E+00 0.69334212E+04</pdfrwt>
<pdfrwt beam="2">  1       -1 0.59976187E+00 0.69334212E+04</pdfrwt>
<totfact> 0.14714224E-04</totfact>
</mgrwt>
</event>
<event>
 6    1  0.1588846E-005  0.3843938E+04  0.7818608E-02  0.8036791E-01
         -1   -1    0    0    0  501 -0.00000000000E+00  0.00000000000E+00  0.85692742540E+03  0.85692742540E+03  0.00000000000E+00 0.  1.
          1   -1    0    0  501    0  0.00000000000E+00 -0.00000000000E+00 -0.43107092902E+04  0.43107092902E+04  0.00000000000E+00 0. -1.
         23    2    1    2    0    0 -0.16115393455E+04  0.22796901160E+03 -0.30993809457E+04  0.35019149669E+04  0.90649085193E+02 0.  0.
         13    1    3    3    0    0 -0.75690178447E+03  0.81046036446E+02 -0.15289267301E+04  0.17079478087E+04  0.00000000000E+00 0. -1.
        -13    1    3    3    0    0 -0.85463756106E+03  0.14692297515E+03 -0.15704542156E+04  0.17939671582E+04  0.00000000000E+00 0.  1.
         22    1    1    2    0    0  0.16115393455E+04 -0.22796901160E+03 -0.35440091907E+03  0.16657217486E+04  0.00000000000E+00 0.  1.
<mgrwt>
<rscale>  0 0.38439381E+04</rscale>
<asrwt>0</asrwt>
<pdfrwt beam="1">  1        1 0.66318605E+00 0.38439381E+04</pdfrwt>
<pdfrwt beam="2">  1       -1 0.13183499E+00 0.38439381E+04</pdfrwt>
<totfact> 0.19193120E-02</totfact>
</mgrwt>
</event>
<event>
 6    1  0.1588846E-005  0.3115137E+03  0.7818608E-02  0.1079623E+00
         -2   -1    0    0    0  501 -0.00000000000E+00  0.00000000000E+00  0.91323490732E+02  0.91323490732E+02  0.00000000000E+00 0.  1.
          2   -1    0    0  501    0  0.00000000000E+00 -0.00000000000E+00 -0.26565117533E+03  0.26565117533E+03  0.00000000000E+00 0. -1.
         23    2    1    2    0    0  0.12622133040E+03  0.68862529476E+02 -0.95886120676E+02  0.19318531609E+03  0.86328129830E+02 0.  0.
         13    1    3    3    0    0  0.12177678087E+03  0.86585565762E+02 -0.84587585228E+02  0.17170237079E+03  0.00000000000E+00 0. -1.
        -13    1    3    3    0    0  0.44445495265E+01 -0.17723036285E+02 -0.11298535448E+02  0.21482945304E+02  0.00000000000E+00 0.  1.
         22    1    1    2    0    0 -0.12622133040E+03 -0.68862529476E+02 -0.78441563921E+02  0.16378934997E+03  0.00000000000E+00 0.  1.
<mgrwt>
<rscale>  0 0.31151368E+03</rscale>
<asrwt>0</asrwt>
<pdfrwt beam="1">  1        2 0.40869411E-01 0.31151368E+03</pdfrwt>
<pdfrwt beam="2">  1       -2 0.14049768E-01 0.31151368E+03</pdfrwt>
<totfact> 0.47591196E+03</totfact>
</mgrwt>
</event>
<event>
 6    1  0.1588846E-005  0.5538937E+03  0.7818608E-02  0.1000597E+00
          1   -1    0    0  501    0  0.00000000000E+00  0.00000000000E+00  0.89789982906E+03  0.89789982906E+03  0.00000000000E+00 0. -1.
         -1   -1    0    0    0  501 -0.00000000000E+00 -0.00000000000E+00 -0.85421053726E+02  0.85421053726E+02  0.00000000000E+00 0.  1.
         23    2    1    2    0    0 -0.13677859714E+03  0.16589724197E+03  0.70051563857E+03  0.74090383816E+03  0.10948085678E+03 0.  0.
         11    1    3    3    0    0 -0.51002086393E+02  0.14205352091E+03  0.40222713528E+03  0.42961271394E+03  0.00000000000E+00 0. -1.
        -11    1    3    3    0    0 -0.85776510751E+02  0.23843721056E+02  0.29828850328E+03  0.31129112422E+03  0.00000000000E+00 0.  1.
         22    1    1    2    0    0  0.13677859714E+03 -0.16589724197E+03  0.11196313677E+03  0.24241704462E+03  0.00000000000E+00 0.  1.
<mgrwt>
<rscale>  0 0.55389367E+03</rscale>
<asrwt>0</asrwt>
<pdfrwt beam="1">  1        1 0.13813843E+00 0.55389367E+03</pdfrwt>
<pdfrwt beam="2">  1       -1 0.13141701E-01 0.55389367E+03</pdfrwt>
<totfact> 0.75413735E+02</totfact>
</mgrwt>
</event>
<event>
 6    1  0.1588846E-005  0.2052403E+04  0.7818608E-02  0.8582505E-01
         -2   -1    0    0    0  501 -0.00000000000E+00  0.00000000000E+00  0.47447784594E+03  0.47447784594E+03  0.00000000000E+00 0. -1.
          2   -1    0    0  501    0  0.00000000000E+00 -0.00000000000E+00 -0.22194711739E+04  0.22194711739E+04  0.00000000000E+00 0.  1.
         23    2    1    2    0    0  0.67256550916E+03  0.31821933306E+03  0.49865992787E+02  0.75098018599E+03  0.88750856185E+02 0.  0.
         13    1    3    3    0    0  0.29420776965E+03  0.11850200192E+03 -0.18514545952E+02  0.31771642166E+03  0.00000000000E+00 0.  1.
        -13    1    3    3    0    0  0.37835773951E+03  0.19971733114E+03  0.68380538739E+02  0.43326376433E+03  0.00000000000E+00 0. -1.
         22    1    1    2    0    0 -0.67256550916E+03 -0.31821933306E+03 -0.17948593208E+04  0.19429688339E+04  0.00000000000E+00 0.  1.
<mgrwt>
<rscale>  0 0.20524034E+04</rscale>
<asrwt>0</asrwt>
<pdfrwt beam="1">  1        2 0.34145710E+00 0.20524034E+04</pdfrwt>
<pdfrwt beam="2">  1       -2 0.72996593E-01 0.20524034E+04</pdfrwt>
<totfact> 0.78972117E+00</totfact>
</mgrwt>
</event>
<event>
 6    1  0.1588846E-005  0.1697401E+04  0.7818608E-02  0.8762848E-01
         -3   -1    0    0    0  501 -0.00000000000E+00  0.00000000000E+00  0.54046321402E+03  0.54046321402E+03  0.00000000000E+00 0.  1.
          3   -1    0    0  501    0  0.00000000000E+00 -0.00000000000E+00 -0.13327318189E+04  0.13327318189E+04  0.00000000000E+00 0. -1.
         23    2    1    2    0    0 -0.71076865982E+03 -0.37274461486E+03 -0.69361926706E+03  0.10645774919E+04  0.89927264829E+02 0.  0.
         11    1    3    3    0    0 -0.36622901752E+03 -0.14494532109E+03 -0.31654211295E+03  0.50530362026E+03  0.00000000000E+00 0. -1.
        -11    1    3    3    0    0 -0.34453964231E+03 -0.22779929378E+03 -0.37707715411E+03  0.55927387166E+03  0.00000000000E+00 0.  1.
         22    1    1    2    0    0  0.71076865982E+03  0.37274461486E+03 -0.98649337771E+02  0.80861754095E+03  0.00000000000E+00 0.  1.
<mgrwt>
<rscale>  0 0.16974010E+04</rscale>
<asrwt>0</asrwt>
<pdfrwt beam="1">  1        3 0.20503566E+00 0.16974010E+04</pdfrwt>
<pdfrwt beam="2">  1       -3 0.83148187E-01 0.16974010E+04</pdfrwt>
<totfact> 0.45513782E-01</totfact>
</mgrwt>
</event>
<event>
 6    1  0.1804098E-005  0.4336826E+04  0.7818608E-02  0.7939843E-01
         -1   -1    0    0    0  501 -0.00000000000E+00  0.00000000000E+00  0.19952856541E+04  0.19952856541E+04  0.00000000000E+00 0.  1.
          1   -1    0    0  501    0  0.00000000000E+00 -0.00000000000E+00 -0.23565626730E+04  0.23565626730E+04  0.00000000000E+00 0. -1.
         23    2    1    2    0    0 -0.10368312622E+04  0.17441497343E+04 -0.94539945189E+03  0.22403852375E+04  0.92024599418E+02 0.  0.
         11    1    3    3    0    0 -0.39851405646E+03  0.74688185976E+03 -0.41957445901E+03  0.94482204265E+03  0.00000000000E+00 0. -1.
        -11    1    3    3    0    0 -0.63831720571E+03  0.99726787454E+03 -0.52582499288E+03  0.12955631948E+04  0.00000000000E+00 0.  1.
         22    1    1    2    0    0  0.10368312622E+04 -0.17441497343E+04  0.58412243304E+03  0.21114630896E+04  0.00000000000E+00 0.  1.
<mgrwt>
<rscale>  0 0.43368263E+04</rscale>
<asrwt>0</asrwt>
<pdfrwt beam="1">  1        1 0.36254810E+00 0.43368263E+04</pdfrwt>
<pdfrwt beam="2">  1       -1 0.30696703E+00 0.43368263E+04</pdfrwt>
<totfact> 0.38567098E-02</totfact>
</mgrwt>
</event>
<event>
 6    1  0.1588846E-005  0.3041064E+04  0.7818608E-02  0.8232101E-01
          2   -1    0    0  501    0  0.00000000000E+00  0.00000000000E+00  0.30023943663E+04  0.30023943663E+04  0.00000000000E+00 0. -1.
         -2   -1    0    0    0  501 -0.00000000000E+00 -0.00000000000E+00 -0.77005795421E+03  0.77005795421E+03  0.00000000000E+00 0.  1.
         23    2    1    2    0    0 -0.21471842903E+03  0.14466659549E+04  0.16274681641E+04  0.21897925383E+04  0.87134074499E+02 0.  0.
         11    1    3    3    0    0 -0.38287646661E+02  0.35360560778E+03  0.44876104921E+03  0.57261623189E+03  0.00000000000E+00 0. -1.
        -11    1    3    3    0    0 -0.17643078237E+03  0.10930603471E+04  0.11787071149E+04  0.16171763064E+04  0.00000000000E+00 0.  1.
         22    1    1    2    0    0  0.21471842903E+03 -0.14466659549E+04  0.60486824794E+03  0.15826597822E+04  0.00000000000E+00 0.  1.
<mgrwt>
<rscale>  0 0.30410641E+04</rscale>
<asrwt>0</asrwt>
<pdfrwt beam="1">  1        2 0.46190682E+00 0.30410641E+04</pdfrwt>
<pdfrwt beam="2">  1       -2 0.11847046E+00 0.30410641E+04</pdfrwt>
<totfact> 0.81099433E-01</totfact>
</mgrwt>
</event>
<event>
 6    1  0.1588846E-005  0.1358925E+04  0.7818608E-02  0.8984099E-01
         -2   -1    0    0    0  501 -0.00000000000E+00  0.00000000000E+00  0.30764092251E+03  0.30764092251E+03  0.00000000000E+00 0.  1.
          2   -1    0    0  501    0  0.00000000000E+00 -0.00000000000E+00 -0.15006768919E+04  0.15006768919E+04  0.00000000000E+00 0. -1.
         23    2    1    2    0    0  0.39438773714E+03  0.18049965019E+01  0.13179775235E+03  0.42602647916E+03  0.92644310137E+02 0.  0.
         11    1    3    3    0    0  0.27727729441E+03  0.41476719460E+02  0.76741957917E+02  0.29067566867E+03  0.00000000000E+00 0. -1.
        -11    1    3    3    0    0  0.11711044273E+03 -0.39671722958E+02  0.55055794435E+02  0.13535081049E+03  0.00000000000E+00 0.  1.
         22    1    1    2    0    0 -0.39438773714E+03 -0.18049965019E+01 -0.13248337217E+04  0.13822913352E+04  0.00000000000E+00 0. -1.
<mgrwt>
<rscale>  0 0.13589255E+04</rscale>
<asrwt>0</asrwt>
<pdfrwt beam="1">  1        2 0.23087337E+00 0.13589255E+04</pdfrwt>
<pdfrwt beam="2">  1       -2 0.47329372E-01 0.13589255E+04</pdfrwt>
<totfact> 0.52365356E+01</totfact>
</mgrwt>
</event>
<event>
 6    1  0.1588846E-005  0.2582613E+04  0.7818608E-02  0.8374131E-01
          2   -1    0    0  501    0  0.00000000000E+00  0.00000000000E+00  0.21832436114E+04  0.21832436114E+04  0.00000000000E+00 0. -1.
         -2   -1    0    0    0  501 -0.00000000000E+00 -0.00000000000E+00 -0.76375895486E+03  0.76375895486E+03  0.00000000000E+00 0.  1.
         23    2    1    2    0    0  0.57758250350E+03 -0.30294667624E+03 -0.55896165404E+03  0.86382517563E+03  0.91529046601E+02 0.  0.
         11    1    3    3    0    0  0.29925170744E+03 -0.19714697527E+03 -0.26777083126E+03  0.44734744029E+03  0.00000000000E+00 0. -1.
        -11    1    3    3    0    0  0.27833079607E+03 -0.10579970098E+03 -0.29119082278E+03  0.41647773534E+03  0.00000000000E+00 0.  1.
         22    1    1    2    0    0 -0.57758250350E+03  0.30294667624E+03  0.19784463106E+04  0.20831773906E+04  0.00000000000E+00 0. -1.
<mgrwt>
<rscale>  0 0.25826125E+04</rscale>
<asrwt>0</asrwt>
<pdfrwt beam="1">  1        2 0.33588363E+00 0.25826125E+04</pdfrwt>
<pdfrwt beam="2">  1       -2 0.11750138E+00 0.25826125E+04</pdfrwt>
<totfact> 0.26146721E+00</totfact>
</mgrwt>
</event>
<event>
 6    1  0.1588846E-005  0.9382304E+03  0.7818608E-02  0.9379014E-01
          2   -1    0    0  501    0  0.00000000000E+00  0.00000000000E+00  0.18121755216E+04  0.18121755216E+04  0.00000000000E+00 0. -1.
         -2   -1    0    0    0  501 -0.00000000000E+00 -0.00000000000E+00 -0.12143916464E+03  0.12143916464E+03  0.00000000000E+00 0.  1.
         23    2    1    2    0    0 -0.25775602154E+03  0.31128084504E+03  0.13256420445E+04  0.13889792227E+04  0.92749770070E+02 0.  0.
         11    1    3    3    0    0 -0.18886874225E+03  0.18459837995E+03  0.73561084090E+03  0.78158254390E+03  0.00000000000E+00 0. -1.
        -11    1    3    3    0    0 -0.68887279295E+02  0.12668246509E+03  0.59003120363E+03  0.60739667884E+03  0.00000000000E+00 0.  1.
         22    1    1    2    0    0  0.25775602154E+03 -0.31128084504E+03  0.36509431244E+03  0.54463546350E+03  0.00000000000E+00 0.  1.
<mgrwt>
<rscale>  0 0.93823042E+03</rscale>
<asrwt>0</asrwt>
<pdfrwt beam="1">  1        2 0.27879621E+00 0.93823042E+03</pdfrwt>
<pdfrwt beam="2">  1       -2 0.18682950E-01 0.93823042E+03</pdfrwt>
<totfact> 0.20538113E+02</totfact>
</mgrwt>
</event>
<event>
 6    1  0.1588846E-005  0.1363473E+04  0.7818608E-02  0.8980692E-01
          1   -1    0    0  501    0  0.00000000000E+00  0.00000000000E+00  0.61922146496E+03  0.61922146496E+03  0.00000000000E+00 0. -1.
         -1   -1    0    0    0  501 -0.00000000000E+00 -0.00000000000E+00 -0.75056244005E+03  0.75056244005E+03  0.00000000000E+00 0.  1.
         23    2    1    2    0    0  0.53935799249E+03 -0.41035669555E+03 -0.29117767067E+02  0.68440135060E+03  0.90871902641E+02 0.  0.
         11    1    3    3    0    0  0.31862597356E+03 -0.22659858413E+03  0.26396654265E+02  0.39187525146E+03  0.00000000000E+00 0.  1.
        -11    1    3    3    0    0  0.22073201893E+03 -0.18375811143E+03 -0.55514421332E+02  0.29252609913E+03  0.00000000000E+00 0. -1.
         22    1    1    2    0    0 -0.53935799249E+03  0.41035669555E+03 -0.10222320802E+03  0.68538255442E+03  0.00000000000E+00 0. -1.
<mgrwt>
<rscale>  0 0.13634726E+04</rscale>
<asrwt>0</asrwt>
<pdfrwt beam="1">  1        1 0.95264841E-01 0.13634726E+04</pdfrwt>
<pdfrwt beam="2">  1       -1 0.11547114E+00 0.13634726E+04</pdfrwt>
<totfact> 0.21749953E+01</totfact>
</mgrwt>
</event>
<event>
 6    1  0.1588846E-005  0.2053075E+04  0.7818608E-02  0.8582201E-01
          1   -1    0    0  501    0  0.00000000000E+00  0.00000000000E+00  0.21017502576E+04  0.21017502576E+04  0.00000000000E+00 0. -1.
         -1   -1    0    0    0  501 -0.00000000000E+00 -0.00000000000E+00 -0.50138182412E+03  0.50138182412E+03  0.00000000000E+00 0.  1.
         23    2    1    2    0    0 -0.20081675013E+03 -0.82510628897E+03  0.75385469603E+02  0.85765197719E+03  0.93574514304E+02 0.  0.
         13    1    3    3    0    0 -0.10606894216E+03 -0.61004852470E+03  0.48029821030E+02  0.62106093638E+03  0.00000000000E+00 0. -1.
        -13    1    3    3    0    0 -0.94747807971E+02 -0.21505776426E+03  0.27355648573E+02  0.23659104081E+03  0.00000000000E+00 0.  1.
         22    1    1    2    0    0  0.20081675013E+03  0.82510628897E+03  0.15249829639E+04  0.17454801046E+04  0.00000000000E+00 0. -1.
<mgrwt>
<rscale>  0 0.20530751E+04</rscale>
<asrwt>0</asrwt>
<pdfrwt beam="1">  1        1 0.32334619E+00 0.20530751E+04</pdfrwt>
<pdfrwt beam="2">  1       -1 0.77135666E-01 0.20530751E+04</pdfrwt>
<totfact> 0.39550886E+00</totfact>
</mgrwt>
</event>
<event>
 6    1  0.1588846E-005  0.1739671E+04  0.7818608E-02  0.8739056E-01
          2   -1    0    0  501    0  0.00000000000E+00  0.00000000000E+00  0.23906279621E+04  0.23906279621E+04  0.00000000000E+00 0. -1.
         -2   -1    0    0    0  501 -0.00000000000E+00 -0.00000000000E+00 -0.31649163381E+03  0.31649163381E+03  0.00000000000E+00 0.  1.
         23    2    1    2    0    0 -0.14358061494E+02 -0.17250503381E+03  0.23626532095E+04  0.23706584074E+04  0.89033452561E+02 0.  0.
         13    1    3    3    0    0  0.27186582045E+02 -0.17965331831E+02  0.54553006725E+03  0.54650244068E+03  0.00000000000E+00 0. -1.
        -13    1    3    3    0    0 -0.41544643539E+02 -0.15453970198E+03  0.18171231422E+04  0.18241559667E+04  0.00000000000E+00 0.  1.
         22    1    1    2    0    0  0.14358061494E+02  0.17250503381E+03 -0.28851688121E+03  0.33646118849E+03  0.00000000000E+00 0.  1.
<mgrwt>
<rscale>  0 0.17396709E+04</rscale>
<asrwt>0</asrwt>
<pdfrwt beam="1">  1        2 0.36778890E+00 0.17396709E+04</pdfrwt>
<pdfrwt beam="2">  1       -2 0.48691022E-01 0.17396709E+04</pdfrwt>
<totfact> 0.15266536E+01</totfact>
</mgrwt>
</event>
<event>
 6    1  0.1588846E-005  0.5791962E+03  0.7818608E-02  0.9949533E-01
         -1   -1    0    0    0  501 -0.00000000000E+00  0.00000000000E+00  0.39095244572E+02  0.39095244572E+02  0.00000000000E+00 0.  1.
          1   -1    0    0  501    0  0.00000000000E+00 -0.00000000000E+00 -0.21451987237E+04  0.21451987237E+04  0.00000000000E+00 0. -1.
         23    2    1    2    0    0  0.15714292462E+03  0.23482256389E+03 -0.10713782330E+04  0.11116841276E+04  0.90303633360E+02 0.  0.
         13    1    3    3    0    0  0.11861810924E+03  0.17447697416E+03 -0.62622283091E+03  0.66080822052E+03  0.00000000000E+00 0.  1.
        -13    1    3    3    0    0  0.38524815383E+02  0.60345589731E+02 -0.44515540208E+03  0.45087590709E+03  0.00000000000E+00 0. -1.
         22    1    1    2    0    0 -0.15714292462E+03 -0.23482256389E+03 -0.10347252461E+04  0.10726098406E+04  0.00000000000E+00 0. -1.
<mgrwt>
<rscale>  0 0.57919623E+03</rscale>
<asrwt>0</asrwt>
<pdfrwt beam="1">  1        1 0.33003067E+00 0.57919623E+03</pdfrwt>
<pdfrwt beam="2">  1       -1 0.60146512E-02 0.57919623E+03</pdfrwt>
<totfact> 0.34753763E+02</totfact>
</mgrwt>
</event>
<event>
 6    1  0.1588846E-005  0.1510579E+04  0.7818608E-02  0.8877449E-01
          2   -1    0    0  501    0  0.00000000000E+00  0.00000000000E+00  0.14337651446E+04  0.14337651446E+04  0.00000000000E+00 0. -1.
         -2   -1    0    0    0  501 -0.00000000000E+00 -0.00000000000E+00 -0.39787686414E+03  0.39787686414E+03  0.00000000000E+00 0.  1.
         23    2    1    2    0    0  0.14857933948E+03  0.18497329070E+03  0.13857821761E+04  0.14088930565E+04  0.91084942526E+02 0.  0.
         13    1    3    3    0    0  0.45496903009E+02  0.58122459995E+02  0.22852711618E+03  0.24015168409E+03  0.00000000000E+00 0. -1.
        -13    1    3    3    0    0  0.10308243647E+03  0.12685083071E+03  0.11572550599E+04  0.11687413724E+04  0.00000000000E+00 0.  1.
         22    1    1    2    0    0 -0.14857933948E+03 -0.18497329070E+03 -0.34989389564E+03  0.42274895221E+03  0.00000000000E+00 0.  1.
<mgrwt>
<rscale>  0 0.15105787E+04</rscale>
<asrwt>0</asrwt>
<pdfrwt beam="1">  1        2 0.22057925E+00 0.15105787E+04</pdfrwt>
<pdfrwt beam="2">  1       -2 0.61211826E-01 0.15105787E+04</pdfrwt>
<totfact> 0.33168697E+01</totfact>
</mgrwt>
</event>
<event>
 6    1  0.1588846E-005  0.2082774E+04  0.7818608E-02  0.8568870E-01
          1   -1    0    0  501    0  0.00000000000E+00  0.00000000000E+00  0.10484822366E+04  0.10484822366E+04  0.00000000000E+00 0. -1.
         -1   -1    0    0    0  501 -0.00000000000E+00 -0.00000000000E+00 -0.10343393154E+04  0.10343393154E+04  0.00000000000E+00 0.  1.
         23    2    1    2    0    0  0.10307295070E+04  0.12617025142E+03  0.51690869575E+02  0.10437199702E+04  0.91417619857E+02 0.  0.
         13    1    3    3    0    0  0.91729663294E+03  0.14010361556E+03  0.39321052387E+02  0.92876707578E+03  0.00000000000E+00 0. -1.
        -13    1    3    3    0    0  0.11343287406E+03 -0.13933364147E+02  0.12369817188E+02  0.11495289441E+03  0.00000000000E+00 0.  1.
         22    1    1    2    0    0 -0.10307295070E+04 -0.12617025142E+03 -0.37547948335E+02  0.10391015818E+04  0.00000000000E+00 0.  1.
<mgrwt>
<rscale>  0 0.20827735E+04</rscale>
<asrwt>0</asrwt>
<pdfrwt beam="1">  1        1 0.16130496E+00 0.20827735E+04</pdfrwt>
<pdfrwt beam="2">  1       -1 0.15912913E+00 0.20827735E+04</pdfrwt>
<totfact> 0.37926440E+00</totfact>
</mgrwt>
</event>
<event>
 6    1  0.1588846E-005  0.4537907E+04  0.7818608E-02  0.7904034E-01
         -2   -1    0    0    0  501 -0.00000000000E+00  0.00000000000E+00  0.22386685158E+04  0.22386685158E+04  0.00000000000E+00 0.  1.
          2   -1    0    0  501    0  0.00000000000E+00 -0.00000000000E+00 -0.22996484790E+04  0.22996484790E+04  0.00000000000E+00 0. -1.
         23    2    1    2    0    0  0.12384864935E+03  0.21065599755E+04 -0.86197316699E+03  0.22812118730E+04  0.89422875689E+02 0.  0.
         13    1    3    3    0    0  0.97007271329E+02  0.10892565743E+04 -0.47911264137E+03  0.11939175928E+04  0.00000000000E+00 0. -1.
        -13    1    3    3    0    0  0.26841378017E+02  0.10173034012E+04 -0.38286052562E+03  0.10872942802E+04  0.00000000000E+00 0.  1.
         22    1    1    2    0    0 -0.12384864935E+03 -0.21065599755E+04  0.80099320377E+03  0.22571051218E+04  0.00000000000E+00 0.  1.
<mgrwt>
<rscale>  0 0.45379073E+04</rscale>
<asrwt>0</asrwt>
<pdfrwt beam="1">  1        2 0.35379207E+00 0.45379073E+04</pdfrwt>
<pdfrwt beam="2">  1       -2 0.34441054E+00 0.45379073E+04</pdfrwt>
<totfact> 0.57804482E-02</totfact>
</mgrwt>
</event>
<event>
 6    1  0.1588846E-005  0.1234064E+04  0.7818608E-02  0.9083552E-01
         -2   -1    0    0    0  501 -0.00000000000E+00  0.00000000000E+00  0.82104359033E+03  0.82104359033E+03  0.00000000000E+00 0.  1.
          2   -1    0    0  501    0  0.00000000000E+00 -0.00000000000E+00 -0.46371267369E+03  0.46371267369E+03  0.00000000000E+00 0. -1.
         23    2    1    2    0    0  0.23854117973E+03  0.50695163358E+02  0.76589170175E+03  0.80894767946E+03  0.91292690168E+02 0.  0.
         13    1    3    3    0    0  0.15290323082E+03  0.33481009795E+02  0.61489936223E+03  0.63450894532E+03  0.00000000000E+00 0. -1.
        -13    1    3    3    0    0  0.85637948910E+02  0.17214153563E+02  0.15099233951E+03  0.17443873414E+03  0.00000000000E+00 0.  1.
         22    1    1    2    0    0 -0.23854117973E+03 -0.50695163358E+02 -0.40856078510E+03  0.47580858456E+03  0.00000000000E+00 0. -1.
<mgrwt>
<rscale>  0 0.12340637E+04</rscale>
<asrwt>0</asrwt>
<pdfrwt beam="1">  1        2 0.71340411E-01 0.12340637E+04</pdfrwt>
<pdfrwt beam="2">  1       -2 0.12631440E+00 0.12340637E+04</pdfrwt>
<totfact> 0.30880697E+01</totfact>
</mgrwt>
</event>
<event>
 6    1  0.1588846E-005  0.5189848E+03  0.7818608E-02  0.1008939E+00
          1   -1    0    0  501    0  0.00000000000E+00  0.00000000000E+00  0.10024647401E+03  0.10024647401E+03  0.00000000000E+00 0. -1.
         -1   -1    0    0    0  501 -0.00000000000E+00 -0.00000000000E+00 -0.67170750054E+03  0.67170750054E+03  0.00000000000E+00 0.  1.
         23    2    1    2    0    0  0.23771643836E+03  0.68355443305E+02 -0.36141352125E+03  0.44745200819E+03  0.91716926446E+02 0.  0.
         11    1    3    3    0    0  0.18387645467E+03  0.29604898524E+02 -0.20183384867E+03  0.27463412582E+03  0.00000000000E+00 0. -1.
        -11    1    3    3    0    0  0.53839983689E+02  0.38750544782E+02 -0.15957967259E+03  0.17281788237E+03  0.00000000000E+00 0.  1.
         22    1    1    2    0    0 -0.23771643836E+03 -0.68355443305E+02 -0.21004750528E+03  0.32450196635E+03  0.00000000000E+00 0. -1.
<mgrwt>
<rscale>  0 0.51898481E+03</rscale>
<asrwt>0</asrwt>
<pdfrwt beam="1">  1        1 0.15422534E-01 0.51898481E+03</pdfrwt>
<pdfrwt beam="2">  1       -1 0.10333962E+00 0.51898481E+03</pdfrwt>
<totfact> 0.33409141E+02</totfact>
</mgrwt>
</event>
<event>
 6    1  0.1588846E-005  0.2032467E+04  0.7818608E-02  0.8591590E-01
         -2   -1    0    0    0  501 -0.00000000000E+00  0.00000000000E+00  0.10335269787E+04  0.10335269787E+04  0.00000000000E+00 0.  1.
          2   -1    0    0  501    0  0.00000000000E+00 -0.00000000000E+00 -0.99922967737E+03  0.99922967737E+03  0.00000000000E+00 0. -1.
         23    2    1    2    0    0 -0.22469376445E+03 -0.35376792367E+03 -0.90647384677E+03  0.10028589016E+04  0.91608460261E+02 0.  0.
         13    1    3    3    0    0 -0.89786128071E+02 -0.81235321940E+02 -0.32191571633E+03  0.34393379413E+03  0.00000000000E+00 0. -1.
        -13    1    3    3    0    0 -0.13490763638E+03 -0.27253260173E+03 -0.58455813045E+03  0.65892510745E+03  0.00000000000E+00 0.  1.
         22    1    1    2    0    0  0.22469376445E+03  0.35376792367E+03  0.94077114812E+03  0.10298977545E+04  0.00000000000E+00 0.  1.
<mgrwt>
<rscale>  0 0.20324673E+04</rscale>
<asrwt>0</asrwt>
<pdfrwt beam="1">  1        2 0.15372764E+00 0.20324673E+04</pdfrwt>
<pdfrwt beam="2">  1       -2 0.15900415E+00 0.20324673E+04</pdfrwt>
<totfact> 0.59859397E+00</totfact>
</mgrwt>
</event>
<event>
 6    1  0.1588846E-005  0.2303804E+04  0.7818608E-02  0.8476423E-01
          1   -1    0    0  501    0  0.00000000000E+00  0.00000000000E+00  0.58763025940E+03  0.58763025940E+03  0.00000000000E+00 0. -1.
         -1   -1    0    0    0  501 -0.00000000000E+00 -0.00000000000E+00 -0.22580147805E+04  0.22580147805E+04  0.00000000000E+00 0.  1.
         23    2    1    2    0    0  0.36234915813E+02  0.29557543770E+03 -0.22086594066E+04  0.22304884250E+04  0.90688649198E+02 0.  0.
         13    1    3    3    0    0 -0.17534514791E+02  0.20643729625E+03 -0.14787898369E+04  0.14932324662E+04  0.00000000000E+00 0.  1.
        -13    1    3    3    0    0  0.53769430604E+02  0.89138141448E+02 -0.72986956979E+03  0.73725595883E+03  0.00000000000E+00 0. -1.
         22    1    1    2    0    0 -0.36234915813E+02 -0.29557543770E+03  0.53827488551E+03  0.61515661491E+03  0.00000000000E+00 0. -1.
<mgrwt>
<rscale>  0 0.23038036E+04</rscale>
<asrwt>0</asrwt>
<pdfrwt beam="1">  1        1 0.90404654E-01 0.23038036E+04</pdfrwt>
<pdfrwt beam="2">  1       -1 0.34738689E+00 0.23038036E+04</pdfrwt>
<totfact> 0.51601626E-01</totfact>
</mgrwt>
</event>
<event>
 6    1  0.1588846E-005  0.2585912E+04  0.7818608E-02  0.8373002E-01
         -2   -1    0    0    0  501 -0.00000000000E+00  0.00000000000E+00  0.62358211455E+03  0.62358211455E+03  0.00000000000E+00 0.  1.
          2   -1    0    0  501    0  0.00000000000E+00 -0.00000000000E+00 -0.26808580023E+04  0.26808580023E+04  0.00000000000E+00 0. -1.
         23    2    1    2    0    0  0.61922456924E+03 -0.90288034950E+03 -0.15391126375E+03  0.11086648814E+04  0.82566031178E+02 0.  0.
         11    1    3    3    0    0  0.41202551265E+03 -0.58549400380E+03 -0.13921051348E+03  0.72934752939E+03  0.00000000000E+00 0.  1.
        -11    1    3    3    0    0  0.20719905659E+03 -0.31738634570E+03 -0.14700750266E+02  0.37931735202E+03  0.00000000000E+00 0. -1.
         22    1    1    2    0    0 -0.61922456924E+03  0.90288034950E+03 -0.19033646240E+04  0.21957752354E+04  0.00000000000E+00 0. -1.
<mgrwt>
<rscale>  0 0.25859119E+04</rscale>
<asrwt>0</asrwt>
<pdfrwt beam="1">  1        2 0.41243969E+00 0.25859119E+04</pdfrwt>
<pdfrwt beam="2">  1       -2 0.95935710E-01 0.25859119E+04</pdfrwt>
<totfact> 0.21985429E+00</totfact>
</mgrwt>
</event>
<event>
 6    1  0.1588846E-005  0.6280563E+03  0.7818608E-02  0.9848849E-01
         -2   -1    0    0    0  501 -0.00000000000E+00  0.00000000000E+00  0.57832744035E+02  0.57832744035E+02  0.00000000000E+00 0.  1.
          2   -1    0    0  501    0  0.00000000000E+00 -0.00000000000E+00 -0.17051531478E+04  0.17051531478E+04  0.00000000000E+00 0. -1.
         23    2    1    2    0    0  0.16635908176E+03  0.20413471529E+03 -0.12870371911E+04  0.13167232792E+04  0.89157931310E+02 0.  0.
         11    1    3    3    0    0  0.13252873819E+03  0.12812633872E+03 -0.70195577152E+03  0.72575624715E+03  0.00000000000E+00 0.  1.
        -11    1    3    3    0    0  0.33830343576E+02  0.76008376567E+02 -0.58508141960E+03  0.59096703209E+03  0.00000000000E+00 0. -1.
         22    1    1    2    0    0 -0.16635908176E+03 -0.20413471529E+03 -0.36028321260E+03  0.44626261255E+03  0.00000000000E+00 0.  1.
<mgrwt>
<rscale>  0 0.62805632E+03</rscale>
<asrwt>0</asrwt>
<pdfrwt beam="1">  1        2 0.26233125E+00 0.62805632E+03</pdfrwt>
<pdfrwt beam="2">  1       -2 0.88973453E-02 0.62805632E+03</pdfrwt>
<totfact> 0.82680957E+02</totfact>
</mgrwt>
</event>
<event>
 6    1  0.1588846E-005  0.1159056E+04  0.7818608E-02  0.9149469E-01
          2   -1    0    0  501    0  0.00000000000E+00  0.00000000000E+00  0.70867533883E+03  0.70867533883E+03  0.00000000000E+00 0. -1.
         -2   -1    0    0    0  501 -0.00000000000E+00 -0.00000000000E+00 -0.47391618454E+03  0.47391618454E+03  0.00000000000E+00 0.  1.
         23    2    1    2    0    0 -0.19361444330E+03  0.24311285164E+03  0.61282270065E+03  0.69318120843E+03  0.91422721469E+02 0.  0.
         11    1    3    3    0    0 -0.14151621261E+03  0.22542880080E+03  0.47009843579E+03  0.54021988301E+03  0.00000000000E+00 0.  1.
        -11    1    3    3    0    0 -0.52098230699E+02  0.17684050834E+02  0.14272426486E+03  0.15296132543E+03  0.00000000000E+00 0. -1.
         22    1    1    2    0    0  0.19361444330E+03 -0.24311285164E+03 -0.37806354635E+03  0.48941031494E+03  0.00000000000E+00 0.  1.
<mgrwt>
<rscale>  0 0.11590560E+04</rscale>
<asrwt>0</asrwt>
<pdfrwt beam="1">  1        2 0.10902697E+00 0.11590560E+04</pdfrwt>
<pdfrwt beam="2">  1       -2 0.72910182E-01 0.11590560E+04</pdfrwt>
<totfact> 0.67870128E+01</totfact>
</mgrwt>
</event>
<event>
 6    1  0.1588846E-005  0.6855759E+04  0.7818608E-02  0.7592497E-01
          1   -1    0    0  501    0  0.00000000000E+00  0.00000000000E+00  0.31695768911E+04  0.31695768911E+04  0.00000000000E+00 0. -1.
         -1   -1    0    0    0  501 -0.00000000000E+00 -0.00000000000E+00 -0.37072327231E+04  0.37072327231E+04  0.00000000000E+00 0.  1.
         23    2    1    2    0    0 -0.32731270671E+04 -0.93857317047E+02 -0.12839035514E+04  0.35183790802E+04  0.91722568195E+02 0.  0.
         13    1    3    3    0    0 -0.13999468598E+04 -0.84372171380E+02 -0.53868846571E+03  0.15023831524E+04  0.00000000000E+00 0. -1.
        -13    1    3    3    0    0 -0.18731802073E+04 -0.94851456671E+01 -0.74521508571E+03  0.20159959278E+04  0.00000000000E+00 0.  1.
         22    1    1    2    0    0  0.32731270671E+04  0.93857317047E+02  0.74624771938E+03  0.33584305340E+04  0.00000000000E+00 0. -1.
<mgrwt>
<rscale>  0 0.68557594E+04</rscale>
<asrwt>0</asrwt>
<pdfrwt beam="1">  1        1 0.48762721E+00 0.68557594E+04</pdfrwt>
<pdfrwt beam="2">  1       -1 0.57034350E+00 0.68557594E+04</pdfrwt>
<totfact> 0.17065096E-04</totfact>
</mgrwt>
</event>
<event>
 6    1  0.1588846E-005  0.4109764E+04  0.7818608E-02  0.7982762E-01
         -1   -1    0    0    0  501 -0.00000000000E+00  0.00000000000E+00  0.12381091584E+04  0.12381091584E+04  0.00000000000E+00 0.  1.
          1   -1    0    0  501    0  0.00000000000E+00 -0.00000000000E+00 -0.34104746312E+04  0.34104746312E+04  0.00000000000E+00 0. -1.
         23    2    1    2    0    0 -0.43399478911E+03 -0.11161692404E+04 -0.29741270470E+04  0.32074013335E+04  0.88353677622E+02 0.  0.
         13    1    3    3    0    0 -0.38361016615E+03 -0.10148182005E+04 -0.27513064176E+04  0.29574819937E+04  0.00000000000E+00 0. -1.
        -13    1    3    3    0    0 -0.50384622965E+02 -0.10135103986E+03 -0.22282062940E+03  0.24991933978E+03  0.00000000000E+00 0.  1.
         22    1    1    2    0    0  0.43399478911E+03  0.11161692404E+04  0.80176157411E+03  0.14411824561E+04  0.00000000000E+00 0.  1.
<mgrwt>
<rscale>  0 0.41097639E+04</rscale>
<asrwt>0</asrwt>
<pdfrwt beam="1">  1        1 0.52468841E+00 0.41097639E+04</pdfrwt>
<pdfrwt beam="2">  1       -1 0.19047833E+00 0.41097639E+04</pdfrwt>
<totfact> 0.39885799E-02</totfact>
</mgrwt>
</event>
<event>
 6    1  0.1588846E-005  0.1131008E+04  0.7818608E-02  0.9175486E-01
          2   -1    0    0  501    0  0.00000000000E+00  0.00000000000E+00  0.15191746005E+04  0.15191746005E+04  0.00000000000E+00 0. -1.
         -2   -1    0    0    0  501 -0.00000000000E+00 -0.00000000000E+00 -0.21050553427E+03  0.21050553427E+03  0.00000000000E+00 0.  1.
         23    2    1    2    0    0  0.32843913045E+03  0.86061585872E+02 -0.26187551841E+02  0.35231996046E+03  0.90358772080E+02 0.  0.
         11    1    3    3    0    0  0.24059187937E+03  0.97321767328E+02 -0.40287452579E+02  0.26263864462E+03  0.00000000000E+00 0.  1.
        -11    1    3    3    0    0  0.87847251088E+02 -0.11260181455E+02  0.14099900739E+02  0.89681315841E+02  0.00000000000E+00 0. -1.
         22    1    1    2    0    0 -0.32843913045E+03 -0.86061585872E+02  0.13348566181E+04  0.13773601743E+04  0.00000000000E+00 0. -1.
<mgrwt>
<rscale>  0 0.11310078E+04</rscale>
<asrwt>0</asrwt>
<pdfrwt beam="1">  1        2 0.23371916E+00 0.11310078E+04</pdfrwt>
<pdfrwt beam="2">  1       -2 0.32385468E-01 0.11310078E+04</pdfrwt>
<totfact> 0.10889600E+02</totfact>
</mgrwt>
</event>
<event>
 6    1  0.1588846E-005  0.3607081E+04  0.7818608E-02  0.8088872E-01
          1   -1    0    0  501    0  0.00000000000E+00  0.00000000000E+00  0.15968167808E+04  0.15968167808E+04  0.00000000000E+00 0. -1.
         -1   -1    0    0    0  501 -0.00000000000E+00 -0.00000000000E+00 -0.20370270468E+04  0.20370270468E+04  0.00000000000E+00 0.  1.
         23    2    1    2    0    0  0.16574886264E+04 -0.64961745195E+02 -0.93045369839E+03  0.19041539138E+04  0.92571420768E+02 0.  0.
         11    1    3    3    0    0  0.11953199705E+04 -0.88358352182E+02 -0.67061843503E+03  0.13734358797E+04  0.00000000000E+00 0. -1.
        -11    1    3    3    0    0  0.46216865582E+03  0.23396606987E+02 -0.25983526337E+03  0.53071803411E+03  0.00000000000E+00 0.  1.
         22    1    1    2    0    0 -0.16574886264E+04  0.64961745195E+02  0.49024343243E+03  0.17296899138E+04  0.00000000000E+00 0. -1.
<mgrwt>
<rscale>  0 0.36070814E+04</rscale>
<asrwt>0</asrwt>
<pdfrwt beam="1">  1        1 0.24566412E+00 0.36070814E+04</pdfrwt>
<pdfrwt beam="2">  1       -1 0.31338878E+00 0.36070814E+04</pdfrwt>
<totfact> 0.12254411E-01</totfact>
</mgrwt>
</event>
<event>
 6    1  0.1588846E-005  0.1186788E+04  0.7818608E-02  0.9124500E-01
         -1   -1    0    0    0  501 -0.00000000000E+00  0.00000000000E+00  0.32310952034E+03  0.32310952034E+03  0.00000000000E+00 0.  1.
          1   -1    0    0  501    0  0.00000000000E+00 -0.00000000000E+00 -0.10897748489E+04  0.10897748489E+04  0.00000000000E+00 0. -1.
         23    2    1    2    0    0  0.10178829603E+03 -0.14866799854E+03  0.28289617801E+03  0.34797010647E+03  0.92681802243E+02 0.  0.
         13    1    3    3    0    0  0.16752657467E+02 -0.10267874719E+03  0.17031757241E+03  0.19957868656E+03  0.00000000000E+00 0.  1.
        -13    1    3    3    0    0  0.85035638559E+02 -0.45989251348E+02  0.11257860560E+03  0.14839141991E+03  0.00000000000E+00 0. -1.
         22    1    1    2    0    0 -0.10178829603E+03  0.14866799854E+03 -0.10495615066E+04  0.10649142628E+04  0.00000000000E+00 0. -1.
<mgrwt>
<rscale>  0 0.11867883E+04</rscale>
<asrwt>0</asrwt>
<pdfrwt beam="1">  1        1 0.16765767E+00 0.11867883E+04</pdfrwt>
<pdfrwt beam="2">  1       -1 0.49709157E-01 0.11867883E+04</pdfrwt>
<totfact> 0.51877200E+01</totfact>
</mgrwt>
</event>
<event>
 6    1  0.1588846E-005  0.3401323E+04  0.7818608E-02  0.8137582E-01
          1   -1    0    0  501    0  0.00000000000E+00  0.00000000000E+00  0.26622130562E+04  0.26622130562E+04  0.00000000000E+00 0. -1.
         -1   -1    0    0    0  501 -0.00000000000E+00 -0.00000000000E+00 -0.10864081300E+04  0.10864081300E+04  0.00000000000E+00 0.  1.
         23    2    1    2    0    0 -0.13990407861E+04 -0.69841937398E+03  0.15215959232E+04  0.21839987528E+04  0.97425128791E+02 0.  0.
         13    1    3    3    0    0 -0.70604653966E+03 -0.39766155640E+03  0.82522677656E+03  0.11565620011E+04  0.00000000000E+00 0. -1.
        -13    1    3    3    0    0 -0.69299424641E+03 -0.30075781758E+03  0.69636914665E+03  0.10274367517E+04  0.00000000000E+00 0.  1.
         22    1    1    2    0    0  0.13990407861E+04  0.69841937398E+03  0.54209003051E+02  0.15646224334E+04  0.00000000000E+00 0. -1.
<mgrwt>
<rscale>  0 0.34013232E+04</rscale>
<asrwt>0</asrwt>
<pdfrwt beam="1">  1        1 0.40957124E+00 0.34013232E+04</pdfrwt>
<pdfrwt beam="2">  1       -1 0.16713971E+00 0.34013232E+04</pdfrwt>
<totfact> 0.22166140E-01</totfact>
</mgrwt>
</event>
<event>
 6    1  0.1588846E-005  0.2213761E+04  0.7818608E-02  0.8512722E-01
         -1   -1    0    0    0  501 -0.00000000000E+00  0.00000000000E+00  0.23293200323E+04  0.23293200323E+04  0.00000000000E+00 0.  1.
          1   -1    0    0  501    0  0.00000000000E+00 -0.00000000000E+00 -0.52598371414E+03  0.52598371414E+03  0.00000000000E+00 0. -1.
         23    2    1    2    0    0 -0.34517887875E+03 -0.64708202703E+03  0.19691824181E+04  0.21033938204E+04  0.93394647451E+02 0.  0.
         13    1    3    3    0    0 -0.20723894478E+03 -0.34573793581E+03  0.11986168664E+04  0.12645809950E+04  0.00000000000E+00 0. -1.
        -13    1    3    3    0    0 -0.13793993397E+03 -0.30134409122E+03  0.77056555164E+03  0.83881282541E+03  0.00000000000E+00 0.  1.
         22    1    1    2    0    0  0.34517887875E+03  0.64708202703E+03 -0.16584609987E+03  0.75190992605E+03  0.00000000000E+00 0. -1.
<mgrwt>
<rscale>  0 0.22137610E+04</rscale>
<asrwt>0</asrwt>
<pdfrwt beam="1">  1        1 0.80920572E-01 0.22137610E+04</pdfrwt>
<pdfrwt beam="2">  1       -1 0.35835692E+00 0.22137610E+04</pdfrwt>
<totfact> 0.51472598E-01</totfact>
</mgrwt>
</event>
<event>
 6    1  0.1588846E-005  0.4201525E+04  0.7818608E-02  0.7965082E-01
          2   -1    0    0  501    0  0.00000000000E+00  0.00000000000E+00  0.21837970442E+04  0.21837970442E+04  0.00000000000E+00 0. -1.
         -2   -1    0    0    0  501 -0.00000000000E+00 -0.00000000000E+00 -0.20208852734E+04  0.20208852734E+04  0.00000000000E+00 0.  1.
         23    2    1    2    0    0 -0.85138075784E+03 -0.13363795307E+04  0.14601047091E+04  0.21568861940E+04  0.97431244429E+02 0.  0.
         13    1    3    3    0    0 -0.74408106091E+02 -0.97063260160E+02  0.14697538062E+03  0.19120566213E+03  0.00000000000E+00 0.  1.
        -13    1    3    3    0    0 -0.77697265175E+03 -0.12393162705E+04  0.13131293285E+04  0.19656805318E+04  0.00000000000E+00 0. -1.
         22    1    1    2    0    0  0.85138075784E+03  0.13363795307E+04 -0.12971929383E+04  0.20477961236E+04  0.00000000000E+00 0.  1.
<mgrwt>
<rscale>  0 0.42015251E+04</rscale>
<asrwt>0</asrwt>
<pdfrwt beam="1">  1        2 0.33596878E+00 0.42015251E+04</pdfrwt>
<pdfrwt beam="2">  1       -2 0.31090542E+00 0.42015251E+04</pdfrwt>
<totfact> 0.11150989E-01</totfact>
</mgrwt>
</event>
<event>
 6    1  0.1588846E-005  0.2353824E+04  0.7818608E-02  0.8456996E-01
          1   -1    0    0  501    0  0.00000000000E+00  0.00000000000E+00  0.14807350312E+04  0.14807350312E+04  0.00000000000E+00 0. -1.
         -1   -1    0    0    0  501 -0.00000000000E+00 -0.00000000000E+00 -0.93542858380E+03  0.93542858380E+03  0.00000000000E+00 0.  1.
         23    2    1    2    0    0  0.69746617535E+03 -0.62739281635E+03  0.99947588361E+03  0.13738821326E+04  0.92299840217E+02 0.  0.
         11    1    3    3    0    0  0.31625552975E+03 -0.32124384541E+03  0.53371431810E+03  0.69861730701E+03  0.00000000000E+00 0.  1.
        -11    1    3    3    0    0  0.38121064560E+03 -0.30614897094E+03  0.46576156551E+03  0.67526482555E+03  0.00000000000E+00 0. -1.
         22    1    1    2    0    0 -0.69746617535E+03  0.62739281635E+03 -0.45416943624E+03  0.10422814824E+04  0.00000000000E+00 0.  1.
<mgrwt>
<rscale>  0 0.23538240E+04</rscale>
<asrwt>0</asrwt>
<pdfrwt beam="1">  1        1 0.22780539E+00 0.23538240E+04</pdfrwt>
<pdfrwt beam="2">  1       -1 0.14391209E+00 0.23538240E+04</pdfrwt>
<totfact> 0.23660604E+00</totfact>
</mgrwt>
</event>
<event>
 6    1  0.1588846E-005  0.8483771E+03  0.7818608E-02  0.9492518E-01
         -1   -1    0    0    0  501 -0.00000000000E+00  0.00000000000E+00  0.93040783145E+03  0.93040783145E+03  0.00000000000E+00 0.  1.
          1   -1    0    0  501    0  0.00000000000E+00 -0.00000000000E+00 -0.19339468607E+03  0.19339468607E+03  0.00000000000E+00 0. -1.
         23    2    1    2    0    0  0.15806088078E+03  0.26631518403E+03 -0.16700474923E+01  0.32282818664E+03  0.91149491244E+02 0.  0.
         13    1    3    3    0    0  0.44992035499E+02  0.22193240679E+02  0.17444977308E+02  0.53114502949E+02  0.00000000000E+00 0.  1.
        -13    1    3    3    0    0  0.11306884528E+03  0.24412194335E+03 -0.19115024800E+02  0.26971368369E+03  0.00000000000E+00 0. -1.
         22    1    1    2    0    0 -0.15806088078E+03 -0.26631518403E+03  0.73868319288E+03  0.80097433087E+03  0.00000000000E+00 0. -1.
<mgrwt>
<rscale>  0 0.84837711E+03</rscale>
<asrwt>0</asrwt>
<pdfrwt beam="1">  1        1 0.29753029E-01 0.84837711E+03</pdfrwt>
<pdfrwt beam="2">  1       -1 0.14313966E+00 0.84837711E+03</pdfrwt>
<totfact> 0.62171588E+01</totfact>
</mgrwt>
</event>
<event>
 6    1  0.1588846E-005  0.2607296E+04  0.7818608E-02  0.8365727E-01
         -1   -1    0    0    0  501 -0.00000000000E+00  0.00000000000E+00  0.14127134283E+04  0.14127134283E+04  0.00000000000E+00 0.  1.
          1   -1    0    0  501    0  0.00000000000E+00 -0.00000000000E+00 -0.12030031025E+04  0.12030031025E+04  0.00000000000E+00 0. -1.
         23    2    1    2    0    0 -0.44870401962E+03  0.33076175932E+02  0.13307957370E+04  0.14077174290E+04  0.90673787687E+02 0.  0.
         13    1    3    3    0    0 -0.45319819168E+03  0.33195971815E+02  0.13153543207E+04  0.13916348524E+04  0.00000000000E+00 0. -1.
        -13    1    3    3    0    0  0.44941720529E+01 -0.11979588372E+00  0.15441416334E+02  0.16082576656E+02  0.00000000000E+00 0.  1.
         22    1    1    2    0    0  0.44870401962E+03 -0.33076175932E+02 -0.11210854112E+04  0.12079991018E+04  0.00000000000E+00 0. -1.
<mgrwt>
<rscale>  0 0.26072964E+04</rscale>
<asrwt>0</asrwt>
<pdfrwt beam="1">  1        1 0.18507740E+00 0.26072964E+04</pdfrwt>
<pdfrwt beam="2">  1       -1 0.21734053E+00 0.26072964E+04</pdfrwt>
<totfact> 0.10730843E+00</totfact>
</mgrwt>
</event>
<event>
 6    1  0.1588846E-005  0.1314947E+04  0.7818608E-02  0.9017796E-01
         -1   -1    0    0    0  501 -0.00000000000E+00  0.00000000000E+00  0.11004701636E+04  0.11004701636E+04  0.00000000000E+00 0.  1.
          1   -1    0    0  501    0  0.00000000000E+00 -0.00000000000E+00 -0.39280595801E+03  0.39280595801E+03  0.00000000000E+00 0. -1.
         23    2    1    2    0    0 -0.42182980241E+03 -0.12930412924E+03  0.90423697926E+03  0.10102639112E+04  0.91261797017E+02 0.  0.
         11    1    3    3    0    0 -0.17610444227E+03 -0.32824735226E+02  0.45802548869E+03  0.49181051851E+03  0.00000000000E+00 0.  1.
        -11    1    3    3    0    0 -0.24572536013E+03 -0.96479394010E+02  0.44621149058E+03  0.51845339270E+03  0.00000000000E+00 0. -1.
         22    1    1    2    0    0  0.42182980241E+03  0.12930412924E+03 -0.19657277367E+03  0.48301221039E+03  0.00000000000E+00 0. -1.
<mgrwt>
<rscale>  0 0.13149467E+04</rscale>
<asrwt>0</asrwt>
<pdfrwt beam="1">  1        1 0.60431686E-01 0.13149467E+04</pdfrwt>
<pdfrwt beam="2">  1       -1 0.16930310E+00 0.13149467E+04</pdfrwt>
<totfact> 0.15019281E+01</totfact>
</mgrwt>
</event>
<event>
 6    1  0.1588846E-005  0.1915276E+04  0.7818608E-02  0.8647290E-01
          1   -1    0    0  501    0  0.00000000000E+00  0.00000000000E+00  0.11966139515E+04  0.11966139515E+04  0.00000000000E+00 0. -1.
         -1   -1    0    0    0  501 -0.00000000000E+00 -0.00000000000E+00 -0.76638757403E+03  0.76638757403E+03  0.00000000000E+00 0.  1.
         23    2    1    2    0    0 -0.82781053240E+03 -0.24070758624E+03 -0.20649684654E+03  0.89126140611E+03  0.92171181842E+02 0.  0.
         13    1    3    3    0    0 -0.66946122726E+03 -0.18623471543E+03 -0.12905667119E+03  0.70676539843E+03  0.00000000000E+00 0. -1.
        -13    1    3    3    0    0 -0.15834930514E+03 -0.54472870807E+02 -0.77440175343E+02  0.18449600768E+03  0.00000000000E+00 0.  1.
         22    1    1    2    0    0  0.82781053240E+03  0.24070758624E+03  0.63672322406E+03  0.10717401195E+04  0.00000000000E+00 0. -1.
<mgrwt>
<rscale>  0 0.19152755E+04</rscale>
<asrwt>0</asrwt>
<pdfrwt beam="1">  1        1 0.18409446E+00 0.19152755E+04</pdfrwt>
<pdfrwt beam="2">  1       -1 0.11790578E+00 0.19152755E+04</pdfrwt>
<totfact> 0.64906233E+00</totfact>
</mgrwt>
</event>
<event>
 6    1  0.1588846E-005  0.4800652E+04  0.7818608E-02  0.7860016E-01
         -1   -1    0    0    0  501 -0.00000000000E+00  0.00000000000E+00  0.17093762473E+04  0.17093762473E+04  0.00000000000E+00 0.  1.
          1   -1    0    0  501    0  0.00000000000E+00 -0.00000000000E+00 -0.33705657477E+04  0.33705657477E+04  0.00000000000E+00 0. -1.
         23    2    1    2    0    0 -0.40453715167E+03 -0.11654269500E+04 -0.30087118675E+04  0.32530082763E+04  0.88574607508E+02 0.  0.
         13    1    3    3    0    0 -0.15021362305E+03 -0.31934411905E+03 -0.82059481011E+03  0.89326403784E+03  0.00000000000E+00 0. -1.
        -13    1    3    3    0    0 -0.25432352861E+03 -0.84608283091E+03 -0.21881170574E+04  0.23597442384E+04  0.00000000000E+00 0.  1.
         22    1    1    2    0    0  0.40453715167E+03  0.11654269500E+04  0.13475223671E+04  0.18269337187E+04  0.00000000000E+00 0.  1.
<mgrwt>
<rscale>  0 0.48006521E+04</rscale>
<asrwt>0</asrwt>
<pdfrwt beam="1">  1        1 0.51854858E+00 0.48006521E+04</pdfrwt>
<pdfrwt beam="2">  1       -1 0.26298096E+00 0.48006521E+04</pdfrwt>
<totfact> 0.13258822E-02</totfact>
</mgrwt>
</event>
<event>
 6    1  0.1588846E-005  0.1557250E+04  0.7818608E-02  0.8847250E-01
          2   -1    0    0  501    0  0.00000000000E+00  0.00000000000E+00  0.23639188983E+04  0.23639188983E+04  0.00000000000E+00 0. -1.
         -2   -1    0    0    0  501 -0.00000000000E+00 -0.00000000000E+00 -0.25646251629E+03  0.25646251629E+03  0.00000000000E+00 0.  1.
         23    2    1    2    0    0  0.22172103963E+03 -0.58795856875E+03  0.18235672844E+04  0.19308536648E+04  0.89122029393E+02 0.  0.
         13    1    3    3    0    0  0.16532506580E+03 -0.45860293193E+03  0.12931626224E+04  0.13819980443E+04  0.00000000000E+00 0. -1.
        -13    1    3    3    0    0  0.56395973830E+02 -0.12935563682E+03  0.53040466203E+03  0.54885562049E+03  0.00000000000E+00 0.  1.
         22    1    1    2    0    0 -0.22172103963E+03  0.58795856875E+03  0.28388909758E+03  0.68952774977E+03  0.00000000000E+00 0.  1.
<mgrwt>
<rscale>  0 0.15572496E+04</rscale>
<asrwt>0</asrwt>
<pdfrwt beam="1">  1        2 0.36367982E+00 0.15572496E+04</pdfrwt>
<pdfrwt beam="2">  1       -2 0.39455773E-01 0.15572496E+04</pdfrwt>
<totfact> 0.24406031E+01</totfact>
</mgrwt>
</event>
<event>
 6    1  0.1588846E-005  0.3339432E+04  0.7818608E-02  0.8152934E-01
         -2   -1    0    0    0  501 -0.00000000000E+00  0.00000000000E+00  0.11569386583E+04  0.11569386583E+04  0.00000000000E+00 0.  1.
          2   -1    0    0  501    0  0.00000000000E+00 -0.00000000000E+00 -0.24097665314E+04  0.24097665314E+04  0.00000000000E+00 0. -1.
         23    2    1    2    0    0 -0.13535040672E+04  0.84707605888E+03 -0.11440973010E+04  0.19662885418E+04  0.88435773338E+02 0.  0.
         13    1    3    3    0    0 -0.12214168073E+04  0.75069573778E+03 -0.99607828072E+03  0.17457305202E+04  0.00000000000E+00 0.  1.
        -13    1    3    3    0    0 -0.13208725993E+03  0.96380321094E+02 -0.14801902029E+03  0.22055802162E+03  0.00000000000E+00 0. -1.
         22    1    1    2    0    0  0.13535040672E+04 -0.84707605888E+03 -0.10873057206E+03  0.16004166479E+04  0.00000000000E+00 0.  1.
<mgrwt>
<rscale>  0 0.33394323E+04</rscale>
<asrwt>0</asrwt>
<pdfrwt beam="1">  1        2 0.37073331E+00 0.33394323E+04</pdfrwt>
<pdfrwt beam="2">  1       -2 0.17799056E+00 0.33394323E+04</pdfrwt>
<totfact> 0.61171975E-01</totfact>
</mgrwt>
</event>
<event>
 6    1  0.1588846E-005  0.2706410E+04  0.7818608E-02  0.8332928E-01
          1   -1    0    0  501    0  0.00000000000E+00  0.00000000000E+00  0.28965427977E+04  0.28965427977E+04  0.00000000000E+00 0. -1.
         -1   -1    0    0    0  501 -0.00000000000E+00 -0.00000000000E+00 -0.63218959056E+03  0.63218959056E+03  0.00000000000E+00 0.  1.
         23    2    1    2    0    0 -0.53105543264E+03 -0.98563478420E+03  0.21216736348E+04  0.24000813081E+04  0.73453879161E+02 0.  0.
         11    1    3    3    0    0 -0.26553374861E+03 -0.56316957202E+03  0.12093791855E+04  0.13602448871E+04  0.00000000000E+00 0. -1.
        -11    1    3    3    0    0 -0.26552168403E+03 -0.42246521219E+03  0.91229444936E+03  0.10398364211E+04  0.00000000000E+00 0.  1.
         22    1    1    2    0    0  0.53105543264E+03  0.98563478420E+03  0.14267957230E+03  0.11286510802E+04  0.00000000000E+00 0.  1.
<mgrwt>
<rscale>  0 0.27064103E+04</rscale>
<asrwt>0</asrwt>
<pdfrwt beam="1">  1        1 0.44562196E+00 0.27064103E+04</pdfrwt>
<pdfrwt beam="2">  1       -1 0.97259938E-01 0.27064103E+04</pdfrwt>
<totfact> 0.62931809E-01</totfact>
</mgrwt>
</event>
<event>
 6    1  0.1588846E-005  0.2323545E+04  0.7818608E-02  0.8468695E-01
          2   -1    0    0  501    0  0.00000000000E+00  0.00000000000E+00  0.20951293024E+04  0.20951293024E+04  0.00000000000E+00 0. -1.
         -2   -1    0    0    0  501 -0.00000000000E+00 -0.00000000000E+00 -0.64421563295E+03  0.64421563295E+03  0.00000000000E+00 0.  1.
         23    2    1    2    0    0  0.80793528378E+03 -0.12439037985E+03  0.16968516926E+04  0.18856951825E+04  0.91149686242E+02 0.  0.
         13    1    3    3    0    0  0.11327057635E+03  0.13922453574E+02  0.22556990237E+03  0.25279604236E+03  0.00000000000E+00 0. -1.
        -13    1    3    3    0    0  0.69466470744E+03 -0.13831283342E+03  0.14712817902E+04  0.16328991401E+04  0.00000000000E+00 0.  1.
         22    1    1    2    0    0 -0.80793528378E+03  0.12439037985E+03 -0.24593802311E+03  0.85364975288E+03  0.00000000000E+00 0.  1.
<mgrwt>
<rscale>  0 0.23235447E+04</rscale>
<asrwt>0</asrwt>
<pdfrwt beam="1">  1        2 0.32232758E+00 0.23235447E+04</pdfrwt>
<pdfrwt beam="2">  1       -2 0.99110098E-01 0.23235447E+04</pdfrwt>
<totfact> 0.45135046E+00</totfact>
</mgrwt>
</event>
<event>
 6    1  0.1588846E-005  0.4119505E+04  0.7818608E-02  0.7980863E-01
          1   -1    0    0  501    0  0.00000000000E+00  0.00000000000E+00  0.28662374854E+04  0.28662374854E+04  0.00000000000E+00 0. -1.
         -1   -1    0    0    0  501 -0.00000000000E+00 -0.00000000000E+00 -0.14801918433E+04  0.14801918433E+04  0.00000000000E+00 0.  1.
         23    2    1    2    0    0 -0.46707839468E+03 -0.17569182493E+04  0.17128563206E+04  0.24993426548E+04  0.88954873530E+02 0.  0.
         13    1    3    3    0    0 -0.17648764520E+03 -0.65732218221E+03  0.58269577335E+03  0.89596579422E+03  0.00000000000E+00 0. -1.
        -13    1    3    3    0    0 -0.29059074948E+03 -0.10995960671E+04  0.11301605472E+04  0.16033768606E+04  0.00000000000E+00 0.  1.
         22    1    1    2    0    0  0.46707839468E+03  0.17569182493E+04 -0.32681067847E+03  0.18470866739E+04  0.00000000000E+00 0.  1.
<mgrwt>
<rscale>  0 0.41195055E+04</rscale>
<asrwt>0</asrwt>
<pdfrwt beam="1">  1        1 0.44095961E+00 0.41195055E+04</pdfrwt>
<pdfrwt beam="2">  1       -1 0.22772182E+00 0.41195055E+04</pdfrwt>
<totfact> 0.56584904E-02</totfact>
</mgrwt>
</event>
<event>
 6    1  0.1588846E-005  0.4835315E+04  0.7818608E-02  0.7854426E-01
         -2   -1    0    0    0  501 -0.00000000000E+00  0.00000000000E+00  0.20281410729E+04  0.20281410729E+04  0.00000000000E+00 0.  1.
          2   -1    0    0  501    0  0.00000000000E+00 -0.00000000000E+00 -0.28819832264E+04  0.28819832264E+04  0.00000000000E+00 0. -1.
         23    2    1    2    0    0  0.12011997299E+04  0.20177397341E+04  0.15343965490E+03  0.23549783020E+04  0.90689852174E+02 0.  0.
         13    1    3    3    0    0  0.54644679290E+03  0.10023605017E+04  0.60803132855E+02  0.11432531189E+04  0.00000000000E+00 0.  1.
        -13    1    3    3    0    0  0.65475293700E+03  0.10153792324E+04  0.92636522041E+02  0.12117251831E+04  0.00000000000E+00 0. -1.
         22    1    1    2    0    0 -0.12011997299E+04 -0.20177397341E+04 -0.10072818084E+04  0.25551459973E+04  0.00000000000E+00 0. -1.
<mgrwt>
<rscale>  0 0.48353153E+04</rscale>
<asrwt>0</asrwt>
<pdfrwt beam="1">  1        2 0.44338204E+00 0.48353153E+04</pdfrwt>
<pdfrwt beam="2">  1       -2 0.31202170E+00 0.48353153E+04</pdfrwt>
<totfact> 0.40752709E-02</totfact>
</mgrwt>
</event>
<event>
 6    1  0.1588846E-005  0.3955868E+04  0.7818608E-02  0.8013509E-01
          2   -1    0    0  501    0  0.00000000000E+00  0.00000000000E+00  0.26037852232E+04  0.26037852232E+04  0.00000000000E+00 0. -1.
         -2   -1    0    0    0  501 -0.00000000000E+00 -0.00000000000E+00 -0.15025133743E+04  0.15025133743E+04  0.00000000000E+00 0.  1.
         23    2    1    2    0    0  0.97739363799E+03  0.10687755282E+04 -0.84559221065E+03  0.16798074850E+04  0.95642807105E+02 0.  0.
         11    1    3    3    0    0  0.57700661416E+03  0.67290162948E+03 -0.47399509999E+03  0.10051888333E+04  0.00000000000E+00 0. -1.
        -11    1    3    3    0    0  0.40038702383E+03  0.39587389872E+03 -0.37159711066E+03  0.67461865168E+03  0.00000000000E+00 0.  1.
         22    1    1    2    0    0 -0.97739363799E+03 -0.10687755282E+04  0.19468640595E+04  0.24264911126E+04  0.00000000000E+00 0. -1.
<mgrwt>
<rscale>  0 0.39558676E+04</rscale>
<asrwt>0</asrwt>
<pdfrwt beam="1">  1        2 0.40058234E+00 0.39558676E+04</pdfrwt>
<pdfrwt beam="2">  1       -2 0.23115590E+00 0.39558676E+04</pdfrwt>
<totfact> 0.20153884E-01</totfact>
</mgrwt>
</event>
<event>
 6    1  0.1588846E-005  0.5117853E+03  0.7818608E-02  0.1010748E+00
          1   -1    0    0  501    0  0.00000000000E+00  0.00000000000E+00  0.38818597926E+03  0.38818597926E+03  0.00000000000E+00 0. -1.
         -1   -1    0    0    0  501 -0.00000000000E+00 -0.00000000000E+00 -0.16868473178E+03  0.16868473178E+03  0.00000000000E+00 0.  1.
         23    2    1    2    0    0  0.10188103193E+03 -0.89449100662E+02  0.33966709547E+03  0.37570582123E+03  0.86024659737E+02 0.  0.
         13    1    3    3    0    0  0.20623644928E+02  0.44670460525E+01  0.98602679258E+01  0.23291932383E+02  0.00000000000E+00 0.  1.
        -13    1    3    3    0    0  0.81257387003E+02 -0.93916146714E+02  0.32980682754E+03  0.35241388884E+03  0.00000000000E+00 0. -1.
         22    1    1    2    0    0 -0.10188103193E+03  0.89449100662E+02 -0.12016584799E+03  0.18116488981E+03  0.00000000000E+00 0.  1.
<mgrwt>
<rscale>  0 0.51178530E+03</rscale>
<asrwt>0</asrwt>
<pdfrwt beam="1">  1        1 0.59720920E-01 0.51178530E+03</pdfrwt>
<pdfrwt beam="2">  1       -1 0.25951497E-01 0.51178530E+03</pdfrwt>
<totfact> 0.82451137E+02</totfact>
</mgrwt>
</event>
<event>
 6    1  0.1588846E-005  0.2964248E+04  0.7818608E-02  0.8254014E-01
          3   -1    0    0  501    0  0.00000000000E+00  0.00000000000E+00  0.13440771404E+04  0.13440771404E+04  0.00000000000E+00 0.  1.
         -3   -1    0    0    0  501 -0.00000000000E+00 -0.00000000000E+00 -0.16343494249E+04  0.16343494249E+04  0.00000000000E+00 0. -1.
         23    2    1    2    0    0 -0.95179641956E+03 -0.16011623208E+03 -0.12737340314E+04  0.16004749552E+04  0.86994640503E+02 0.  0.
         11    1    3    3    0    0 -0.89256143457E+03 -0.16725357325E+03 -0.12138807690E+04  0.15159637837E+04  0.00000000000E+00 0.  1.
        -11    1    3    3    0    0 -0.59234984993E+02  0.71373411633E+01 -0.59853262381E+02  0.84511171472E+02  0.00000000000E+00 0. -1.
         22    1    1    2    0    0  0.95179641956E+03  0.16011623208E+03  0.98346174691E+03  0.13779516101E+04  0.00000000000E+00 0.  1.
<mgrwt>
<rscale>  0 0.29642481E+04</rscale>
<asrwt>0</asrwt>
<pdfrwt beam="1">  1        3 0.20678110E+00 0.29642481E+04</pdfrwt>
<pdfrwt beam="2">  1       -3 0.25143837E+00 0.29642481E+04</pdfrwt>
<totfact> 0.21342530E-02</totfact>
</mgrwt>
</event>
<event>
 6    1  0.1588846E-005  0.2809997E+04  0.7818608E-02  0.8300171E-01
         -4   -1    0    0    0  501 -0.00000000000E+00  0.00000000000E+00  0.10338460192E+04  0.10338460192E+04  0.00000000000E+00 0.  1.
          4   -1    0    0  501    0  0.00000000000E+00 -0.00000000000E+00 -0.19093957995E+04  0.19093957995E+04  0.00000000000E+00 0. -1.
         23    2    1    2    0    0  0.23508582907E+03  0.93755876153E+03 -0.15041847505E+04  0.17902180964E+04  0.89595148859E+02 0.  0.
         13    1    3    3    0    0  0.16450228162E+03  0.58069579823E+03 -0.86464401343E+03  0.10544562014E+04  0.00000000000E+00 0.  1.
        -13    1    3    3    0    0  0.70583547449E+02  0.35686296330E+03 -0.63954073705E+03  0.73576189497E+03  0.00000000000E+00 0. -1.
         22    1    1    2    0    0 -0.23508582907E+03 -0.93755876153E+03  0.62863497023E+03  0.11530237223E+04  0.00000000000E+00 0.  1.
<mgrwt>
<rscale>  0 0.28099973E+04</rscale>
<asrwt>0</asrwt>
<pdfrwt beam="1">  1        4 0.29375320E+00 0.28099973E+04</pdfrwt>
<pdfrwt beam="2">  1       -4 0.15905324E+00 0.28099973E+04</pdfrwt>
<totfact> 0.14859098E-02</totfact>
</mgrwt>
</event>
<event>
 6    1  0.1588846E-005  0.2614864E+04  0.7818608E-02  0.8363170E-01
          1   -1    0    0  501    0  0.00000000000E+00  0.00000000000E+00  0.12552349166E+04  0.12552349166E+04  0.00000000000E+00 0. -1.
         -1   -1    0    0    0  501 -0.00000000000E+00 -0.00000000000E+00 -0.13617999470E+04  0.13617999470E+04  0.00000000000E+00 0.  1.
         23    2    1    2    0    0  0.15531658408E+03 -0.91794184117E+03 -0.96964784296E+03  0.13475261373E+04  0.94176887956E+02 0.  0.
         13    1    3    3    0    0  0.12778564434E+03 -0.77533352182E+03 -0.76584316952E+03  0.10972634147E+04  0.00000000000E+00 0.  1.
        -13    1    3    3    0    0  0.27530939737E+02 -0.14260831935E+03 -0.20380467345E+03  0.25026272257E+03  0.00000000000E+00 0. -1.
         22    1    1    2    0    0 -0.15531658408E+03  0.91794184117E+03  0.86308281253E+03  0.12695087264E+04  0.00000000000E+00 0. -1.
<mgrwt>
<rscale>  0 0.26148643E+04</rscale>
<asrwt>0</asrwt>
<pdfrwt beam="1">  1        1 0.19311306E+00 0.26148643E+04</pdfrwt>
<pdfrwt beam="2">  1       -1 0.20950769E+00 0.26148643E+04</pdfrwt>
<totfact> 0.11101331E+00</totfact>
</mgrwt>
</event>
<event>
 6    1  0.1588846E-005  0.2148112E+04  0.7818608E-02  0.8540341E-01
          1   -1    0    0  501    0  0.00000000000E+00  0.00000000000E+00  0.99358262190E+03  0.99358262190E+03  0.00000000000E+00 0. -1.
         -1   -1    0    0    0  501 -0.00000000000E+00 -0.00000000000E+00 -0.11610467052E+04  0.11610467052E+04  0.00000000000E+00 0.  1.
         23    2    1    2    0    0 -0.67682458381E+03  0.33338833466E+03 -0.84772694704E+03  0.11387568632E+04  0.94270450914E+02 0.  0.
         11    1    3    3    0    0 -0.45519148013E+03  0.26523769302E+03 -0.62239787403E+03  0.81543205173E+03  0.00000000000E+00 0. -1.
        -11    1    3    3    0    0 -0.22163310367E+03  0.68150641639E+02 -0.22532907301E+03  0.32332481152E+03  0.00000000000E+00 0.  1.
         22    1    1    2    0    0  0.67682458381E+03 -0.33338833466E+03  0.68026286377E+03  0.10158724638E+04  0.00000000000E+00 0. -1.
<mgrwt>
<rscale>  0 0.21481116E+04</rscale>
<asrwt>0</asrwt>
<pdfrwt beam="1">  1        1 0.15285886E+00 0.21481116E+04</pdfrwt>
<pdfrwt beam="2">  1       -1 0.17862257E+00 0.21481116E+04</pdfrwt>
<totfact> 0.29849814E+00</totfact>
</mgrwt>
</event>
<event>
 6    1  0.1588846E-005  0.1207898E+04  0.7818608E-02  0.9105971E-01
         -2   -1    0    0    0  501 -0.00000000000E+00  0.00000000000E+00  0.99325332953E+03  0.99325332953E+03  0.00000000000E+00 0.  1.
          2   -1    0    0  501    0  0.00000000000E+00 -0.00000000000E+00 -0.36723222691E+03  0.36723222691E+03  0.00000000000E+00 0. -1.
         23    2    1    2    0    0  0.50697977171E+02 -0.50010242422E+03 -0.55312656033E+02  0.51379292609E+03  0.90834802685E+02 0.  0.
         13    1    3    3    0    0  0.41036432255E+02 -0.42835604647E+03 -0.79230095113E+02  0.43755033915E+03  0.00000000000E+00 0. -1.
        -13    1    3    3    0    0  0.96615449157E+01 -0.71746377752E+02  0.23917439080E+02  0.76242586937E+02  0.00000000000E+00 0.  1.
         22    1    1    2    0    0 -0.50697977171E+02  0.50010242422E+03  0.68133375865E+03  0.84669263035E+03  0.00000000000E+00 0.  1.
<mgrwt>
<rscale>  0 0.12078984E+04</rscale>
<asrwt>0</asrwt>
<pdfrwt beam="1">  1        2 0.56497266E-01 0.12078984E+04</pdfrwt>
<pdfrwt beam="2">  1       -2 0.15280820E+00 0.12078984E+04</pdfrwt>
<totfact> 0.24598730E+01</totfact>
</mgrwt>
</event>
<event>
 6    1  0.1588846E-005  0.2576825E+04  0.7818608E-02  0.8376116E-01
         -2   -1    0    0    0  501 -0.00000000000E+00  0.00000000000E+00  0.15689302376E+04  0.15689302376E+04  0.00000000000E+00 0.  1.
          2   -1    0    0  501    0  0.00000000000E+00 -0.00000000000E+00 -0.10580502130E+04  0.10580502130E+04  0.00000000000E+00 0. -1.
         23    2    1    2    0    0  0.11153264165E+04  0.19086650215E+03 -0.36880326359E+03  0.11937234169E+04  0.92610539470E+02 0.  0.
         13    1    3    3    0    0  0.77048093098E+03  0.88236729330E+02 -0.24923834269E+03  0.81458353585E+03  0.00000000000E+00 0.  1.
        -13    1    3    3    0    0  0.34484548548E+03  0.10262977282E+03 -0.11956492091E+03  0.37913988110E+03  0.00000000000E+00 0. -1.
         22    1    1    2    0    0 -0.11153264165E+04 -0.19086650215E+03  0.87968328825E+03  0.14332570337E+04  0.00000000000E+00 0.  1.
<mgrwt>
<rscale>  0 0.25768252E+04</rscale>
<asrwt>0</asrwt>
<pdfrwt beam="1">  1        2 0.16277695E+00 0.25768252E+04</pdfrwt>
<pdfrwt beam="2">  1       -2 0.24137388E+00 0.25768252E+04</pdfrwt>
<totfact> 0.14893318E+00</totfact>
</mgrwt>
</event>
<event>
 6    1  0.1588846E-005  0.4163419E+04  0.7818608E-02  0.7972367E-01
          1   -1    0    0  501    0  0.00000000000E+00  0.00000000000E+00  0.27994289822E+04  0.27994289822E+04  0.00000000000E+00 0. -1.
         -1   -1    0    0    0  501 -0.00000000000E+00 -0.00000000000E+00 -0.15479997489E+04  0.15479997489E+04  0.00000000000E+00 0.  1.
         23    2    1    2    0    0  0.68920607028E+03  0.12652665303E+04  0.21935006932E+04  0.26259749746E+04  0.91623558253E+02 0.  0.
         11    1    3    3    0    0  0.33627330481E+03  0.53732110443E+03  0.91914562884E+03  0.11165224547E+04  0.00000000000E+00 0.  1.
        -11    1    3    3    0    0  0.35293276547E+03  0.72794542588E+03  0.12743550643E+04  0.15094525199E+04  0.00000000000E+00 0. -1.
         22    1    1    2    0    0 -0.68920607028E+03 -0.12652665303E+04 -0.94207145983E+03  0.17214537564E+04  0.00000000000E+00 0.  1.
<mgrwt>
<rscale>  0 0.41634194E+04</rscale>
<asrwt>0</asrwt>
<pdfrwt beam="1">  1        1 0.43068138E+00 0.41634194E+04</pdfrwt>
<pdfrwt beam="2">  1       -1 0.23815381E+00 0.41634194E+04</pdfrwt>
<totfact> 0.53702351E-02</totfact>
</mgrwt>
</event>
<event>
 6    1  0.1588846E-005  0.1742585E+04  0.7818608E-02  0.8737443E-01
          1   -1    0    0  501    0  0.00000000000E+00  0.00000000000E+00  0.13974222167E+04  0.13974222167E+04  0.00000000000E+00 0. -1.
         -1   -1    0    0    0  501 -0.00000000000E+00 -0.00000000000E+00 -0.54325064094E+03  0.54325064094E+03  0.00000000000E+00 0.  1.
         23    2    1    2    0    0 -0.58545071440E+03  0.12957593790E+03  0.11286017263E+04  0.12812379707E+04  0.91029765852E+02 0.  0.
         11    1    3    3    0    0 -0.33160972600E+03  0.10385449070E+03  0.57839829501E+03  0.67475577306E+03  0.00000000000E+00 0. -1.
        -11    1    3    3    0    0 -0.25384098840E+03  0.25721447194E+02  0.55020343125E+03  0.60648219759E+03  0.00000000000E+00 0.  1.
         22    1    1    2    0    0  0.58545071440E+03 -0.12957593790E+03 -0.27443015049E+03  0.65943488698E+03  0.00000000000E+00 0.  1.
<mgrwt>
<rscale>  0 0.17425849E+04</rscale>
<asrwt>0</asrwt>
<pdfrwt beam="1">  1        1 0.21498803E+00 0.17425849E+04</pdfrwt>
<pdfrwt beam="2">  1       -1 0.83577022E-01 0.17425849E+04</pdfrwt>
<totfact> 0.10388579E+01</totfact>
</mgrwt>
</event>
<event>
 6    1  0.1588846E-005  0.2127096E+04  0.7818608E-02  0.8549400E-01
          2   -1    0    0  501    0  0.00000000000E+00  0.00000000000E+00  0.55113900332E+03  0.55113900332E+03  0.00000000000E+00 0. -1.
         -2   -1    0    0    0  501 -0.00000000000E+00 -0.00000000000E+00 -0.20523584100E+04  0.20523584100E+04  0.00000000000E+00 0.  1.
         23    2    1    2    0    0  0.44035600820E+02 -0.99862337959E+03 -0.31466022359E+03  0.10520108734E+04  0.92347350363E+02 0.  0.
         13    1    3    3    0    0 -0.22142112631E+02 -0.45305265406E+03 -0.12292572181E+03  0.46995501230E+03  0.00000000000E+00 0.  1.
        -13    1    3    3    0    0  0.66177713451E+02 -0.54557072553E+03 -0.19173450179E+03  0.58205586114E+03  0.00000000000E+00 0. -1.
         22    1    1    2    0    0 -0.44035600820E+02  0.99862337959E+03 -0.11865591830E+04  0.15514865398E+04  0.00000000000E+00 0.  1.
<mgrwt>
<rscale>  0 0.21270964E+04</rscale>
<asrwt>0</asrwt>
<pdfrwt beam="1">  1        2 0.84790616E-01 0.21270964E+04</pdfrwt>
<pdfrwt beam="2">  1       -2 0.31574745E+00 0.21270964E+04</pdfrwt>
<totfact> 0.12857881E+00</totfact>
</mgrwt>
</event>
<event>
 6    1  0.1588846E-005  0.1862395E+04  0.7818608E-02  0.8673804E-01
         -2   -1    0    0    0  501 -0.00000000000E+00  0.00000000000E+00  0.13181210415E+04  0.13181210415E+04  0.00000000000E+00 0.  1.
          2   -1    0    0  501    0  0.00000000000E+00 -0.00000000000E+00 -0.65785248992E+03  0.65785248992E+03  0.00000000000E+00 0. -1.
         23    2    1    2    0    0  0.90467239691E+03 -0.20519970905E+03  0.27227060143E+03  0.97044805903E+03  0.84256089034E+02 0.  0.
         11    1    3    3    0    0  0.56956894526E+03 -0.17038630016E+03  0.17887543706E+03  0.62083548278E+03  0.00000000000E+00 0. -1.
        -11    1    3    3    0    0  0.33510345165E+03 -0.34813408887E+02  0.93395164366E+02  0.34961257625E+03  0.00000000000E+00 0.  1.
         22    1    1    2    0    0 -0.90467239691E+03  0.20519970905E+03  0.38799795019E+03  0.10055254724E+04  0.00000000000E+00 0.  1.
<mgrwt>
<rscale>  0 0.18623955E+04</rscale>
<asrwt>0</asrwt>
<pdfrwt beam="1">  1        2 0.10120808E+00 0.18623955E+04</pdfrwt>
<pdfrwt beam="2">  1       -2 0.20278785E+00 0.18623955E+04</pdfrwt>
<totfact> 0.53025145E+00</totfact>
</mgrwt>
</event>
<event>
 6    1  0.1588846E-005  0.5708359E+03  0.7818608E-02  0.9967831E-01
          2   -1    0    0  501    0  0.00000000000E+00  0.00000000000E+00  0.52090589139E+03  0.52090589139E+03  0.00000000000E+00 0. -1.
         -2   -1    0    0    0  501 -0.00000000000E+00 -0.00000000000E+00 -0.15638797374E+03  0.15638797374E+03  0.00000000000E+00 0.  1.
         23    2    1    2    0    0  0.85522399327E+01 -0.15007898954E+03 -0.90308643518E+02  0.19826981077E+03  0.92511744451E+02 0.  0.
         11    1    3    3    0    0  0.26391579990E+02 -0.14004600387E+02  0.61759483614E+01  0.30508796511E+02  0.00000000000E+00 0. -1.
        -11    1    3    3    0    0 -0.17839340057E+02 -0.13607438915E+03 -0.96484591879E+02  0.16776101426E+03  0.00000000000E+00 0.  1.
         22    1    1    2    0    0 -0.85522399327E+01  0.15007898954E+03  0.45482656117E+03  0.47902405436E+03  0.00000000000E+00 0. -1.
<mgrwt>
<rscale>  0 0.57083594E+03</rscale>
<asrwt>0</asrwt>
<pdfrwt beam="1">  1        2 0.80139367E-01 0.57083594E+03</pdfrwt>
<pdfrwt beam="2">  1       -2 0.24059688E-01 0.57083594E+03</pdfrwt>
<totfact> 0.90514512E+02</totfact>
</mgrwt>
</event>
<event>
 6    1  0.1588846E-005  0.3845714E+04  0.7818608E-02  0.8036415E-01
         -2   -1    0    0    0  501 -0.00000000000E+00  0.00000000000E+00  0.13658831807E+04  0.13658831807E+04  0.00000000000E+00 0.  1.
          2   -1    0    0  501    0  0.00000000000E+00 -0.00000000000E+00 -0.27069514024E+04  0.27069514024E+04  0.00000000000E+00 0. -1.
         23    2    1    2    0    0  0.77521399050E+03 -0.26255833951E+03  0.11698498792E+04  0.14318871542E+04  0.10889660117E+03 0.  0.
         13    1    3    3    0    0  0.99961893435E+02 -0.60633734379E+02  0.12121272505E+03  0.16840829729E+03  0.00000000000E+00 0. -1.
        -13    1    3    3    0    0  0.67525209706E+03 -0.20192460513E+03  0.10486371541E+04  0.12634788569E+04  0.00000000000E+00 0.  1.
         22    1    1    2    0    0 -0.77521399050E+03  0.26255833951E+03 -0.25109181009E+04  0.26409474289E+04  0.00000000000E+00 0. -1.
<mgrwt>
<rscale>  0 0.38457142E+04</rscale>
<asrwt>0</asrwt>
<pdfrwt beam="1">  1        2 0.41645406E+00 0.38457142E+04</pdfrwt>
<pdfrwt beam="2">  1       -2 0.21013587E+00 0.38457142E+04</pdfrwt>
<totfact> 0.24006460E-01</totfact>
</mgrwt>
</event>
<event>
 6    1  0.1588846E-005  0.2895281E+04  0.7818608E-02  0.8274283E-01
         -2   -1    0    0    0  501 -0.00000000000E+00  0.00000000000E+00  0.71648101047E+03  0.71648101047E+03  0.00000000000E+00 0.  1.
          2   -1    0    0  501    0  0.00000000000E+00 -0.00000000000E+00 -0.29249390494E+04  0.29249390494E+04  0.00000000000E+00 0. -1.
         23    2    1    2    0    0 -0.11551041914E+04 -0.82659030578E+03 -0.76364760962E+03  0.16153414821E+04  0.93022607662E+02 0.  0.
         13    1    3    3    0    0 -0.43335435925E+03 -0.26045243823E+03 -0.29269460126E+03  0.58421023859E+03  0.00000000000E+00 0. -1.
        -13    1    3    3    0    0 -0.72174983216E+03 -0.56613786755E+03 -0.47095300836E+03  0.10311312435E+04  0.00000000000E+00 0.  1.
         22    1    1    2    0    0  0.11551041914E+04  0.82659030578E+03 -0.14448104293E+04  0.20260785778E+04  0.00000000000E+00 0. -1.
<mgrwt>
<rscale>  0 0.28952812E+04</rscale>
<asrwt>0</asrwt>
<pdfrwt beam="1">  1        2 0.44999062E+00 0.28952812E+04</pdfrwt>
<pdfrwt beam="2">  1       -2 0.11022785E+00 0.28952812E+04</pdfrwt>
<totfact> 0.10939443E+00</totfact>
</mgrwt>
</event>
<event>
 6    1  0.1588846E-005  0.4624261E+04  0.7818608E-02  0.7889236E-01
          1   -1    0    0  501    0  0.00000000000E+00  0.00000000000E+00  0.45491245112E+04  0.45491245112E+04  0.00000000000E+00 0. -1.
         -1   -1    0    0    0  501 -0.00000000000E+00 -0.00000000000E+00 -0.11751597491E+04  0.11751597491E+04  0.00000000000E+00 0.  1.
         23    2    1    2    0    0  0.10025611304E+04 -0.11913676414E+04 -0.42666905103E+03  0.16170585473E+04  0.91357479022E+02 0.  0.
         13    1    3    3    0    0  0.49867907619E+03 -0.54912499716E+03 -0.16579083404E+03  0.76006952589E+03  0.00000000000E+00 0.  1.
        -13    1    3    3    0    0  0.50388205421E+03 -0.64224264424E+03 -0.26087821699E+03  0.85698902136E+03  0.00000000000E+00 0. -1.
         22    1    1    2    0    0 -0.10025611304E+04  0.11913676414E+04  0.38006338131E+04  0.41072257131E+04  0.00000000000E+00 0. -1.
<mgrwt>
<rscale>  0 0.46242612E+04</rscale>
<asrwt>0</asrwt>
<pdfrwt beam="1">  1        1 0.69986530E+00 0.46242612E+04</pdfrwt>
<pdfrwt beam="2">  1       -1 0.18079381E+00 0.46242612E+04</pdfrwt>
<totfact> 0.43438273E-03</totfact>
</mgrwt>
</event>
<event>
 6    1  0.1588846E-005  0.2786276E+04  0.7818608E-02  0.8307542E-01
         -2   -1    0    0    0  501 -0.00000000000E+00  0.00000000000E+00  0.19159631154E+04  0.19159631154E+04  0.00000000000E+00 0.  1.
          2   -1    0    0  501    0  0.00000000000E+00 -0.00000000000E+00 -0.10129807759E+04  0.10129807759E+04  0.00000000000E+00 0. -1.
         23    2    1    2    0    0 -0.11964406522E+04  0.68874078463E+03  0.26731877221E+03  0.14091076260E+04  0.91054229966E+02 0.  0.
         13    1    3    3    0    0 -0.45362874870E+03  0.30099893356E+03  0.13387465011E+03  0.56062627623E+03  0.00000000000E+00 0. -1.
        -13    1    3    3    0    0 -0.74281190354E+03  0.38774185107E+03  0.13344412210E+03  0.84848134973E+03  0.00000000000E+00 0.  1.
         22    1    1    2    0    0  0.11964406522E+04 -0.68874078463E+03  0.63566356734E+03  0.15198362654E+04  0.00000000000E+00 0.  1.
<mgrwt>
<rscale>  0 0.27862762E+04</rscale>
<asrwt>0</asrwt>
<pdfrwt beam="1">  1        2 0.15584320E+00 0.27862762E+04</pdfrwt>
<pdfrwt beam="2">  1       -2 0.29476356E+00 0.27862762E+04</pdfrwt>
<totfact> 0.73653469E-01</totfact>
</mgrwt>
</event>
<event>
 6    1  0.1588846E-005  0.2287387E+04  0.7818608E-02  0.8482911E-01
         -2   -1    0    0    0  501 -0.00000000000E+00  0.00000000000E+00  0.54691071364E+03  0.54691071364E+03  0.00000000000E+00 0. -1.
          2   -1    0    0  501    0  0.00000000000E+00 -0.00000000000E+00 -0.23916785899E+04  0.23916785899E+04  0.00000000000E+00 0.  1.
         23    2    1    2    0    0 -0.75362909528E+03 -0.73872761491E+03 -0.14840932918E+04  0.18233487653E+04  0.91610691973E+02 0.  0.
         11    1    3    3    0    0 -0.19247720471E+03 -0.13644321305E+03 -0.34377236661E+03  0.41694563766E+03  0.00000000000E+00 0.  1.
        -11    1    3    3    0    0 -0.56115189056E+03 -0.60228440186E+03 -0.11403209252E+04  0.14064031277E+04  0.00000000000E+00 0. -1.
         22    1    1    2    0    0  0.75362909528E+03  0.73872761491E+03 -0.36067458448E+03  0.11152405383E+04  0.00000000000E+00 0. -1.
<mgrwt>
<rscale>  0 0.22873868E+04</rscale>
<asrwt>0</asrwt>
<pdfrwt beam="1">  1        2 0.36795055E+00 0.22873868E+04</pdfrwt>
<pdfrwt beam="2">  1       -2 0.84140109E-01 0.22873868E+04</pdfrwt>
<totfact> 0.44978077E+00</totfact>
</mgrwt>
</event>
<event>
 6    1  0.1588846E-005  0.3511057E+03  0.7818608E-02  0.1062162E+00
         -2   -1    0    0    0  501 -0.00000000000E+00  0.00000000000E+00  0.19512275205E+02  0.19512275205E+02  0.00000000000E+00 0.  1.
          2   -1    0    0  501    0  0.00000000000E+00 -0.00000000000E+00 -0.15794569349E+04  0.15794569349E+04  0.00000000000E+00 0. -1.
         23    2    1    2    0    0 -0.15484909592E+03 -0.51508158458E+02 -0.84663235247E+03  0.86722760234E+03  0.93091573821E+02 0.  0.
         11    1    3    3    0    0 -0.86718463790E+02  0.19301662966E+02 -0.36296721248E+03  0.37368147331E+03  0.00000000000E+00 0. -1.
        -11    1    3    3    0    0 -0.68130632129E+02 -0.70809821424E+02 -0.48366513998E+03  0.49354612903E+03  0.00000000000E+00 0.  1.
         22    1    1    2    0    0  0.15484909592E+03  0.51508158458E+02 -0.71331230719E+03  0.73174160773E+03  0.00000000000E+00 0.  1.
<mgrwt>
<rscale>  0 0.35110567E+03</rscale>
<asrwt>0</asrwt>
<pdfrwt beam="1">  1        2 0.24299343E+00 0.35110567E+03</pdfrwt>
<pdfrwt beam="2">  1       -2 0.30018878E-02 0.35110567E+03</pdfrwt>
<totfact> 0.52467980E+03</totfact>
</mgrwt>
</event>
<event>
 6    1  0.1588846E-005  0.2667251E+04  0.7818608E-02  0.8345710E-01
         -1   -1    0    0    0  501 -0.00000000000E+00  0.00000000000E+00  0.13364410761E+04  0.13364410761E+04  0.00000000000E+00 0.  1.
          1   -1    0    0  501    0  0.00000000000E+00 -0.00000000000E+00 -0.13308161866E+04  0.13308161866E+04  0.00000000000E+00 0. -1.
         23    2    1    2    0    0 -0.69854709050E+03  0.11338720217E+04 -0.24097432727E+02  0.13351472014E+04  0.91670954735E+02 0.  0.
         13    1    3    3    0    0 -0.15902052852E+03  0.25780590049E+03 -0.43982760978E+02  0.30608151542E+03  0.00000000000E+00 0.  1.
        -13    1    3    3    0    0 -0.53952656198E+03  0.87606612116E+03  0.19885328251E+02  0.10290656860E+04  0.00000000000E+00 0. -1.
         22    1    1    2    0    0  0.69854709050E+03 -0.11338720217E+04  0.29722322265E+02  0.13321100614E+04  0.00000000000E+00 0.  1.
<mgrwt>
<rscale>  0 0.26672513E+04</rscale>
<asrwt>0</asrwt>
<pdfrwt beam="1">  1        1 0.20474095E+00 0.26672513E+04</pdfrwt>
<pdfrwt beam="2">  1       -1 0.20560632E+00 0.26672513E+04</pdfrwt>
<totfact> 0.10370833E+00</totfact>
</mgrwt>
</event>
<event>
 6    1  0.1588846E-005  0.2398293E+04  0.7818608E-02  0.8440143E-01
          2   -1    0    0  501    0  0.00000000000E+00  0.00000000000E+00  0.23788427895E+04  0.23788427895E+04  0.00000000000E+00 0. -1.
         -2   -1    0    0    0  501 -0.00000000000E+00 -0.00000000000E+00 -0.60447547466E+03  0.60447547466E+03  0.00000000000E+00 0.  1.
         23    2    1    2    0    0 -0.55794806176E+02 -0.63567354811E+03 -0.37183783781E+03  0.74425808690E+03  0.91993489595E+02 0.  0.
         11    1    3    3    0    0 -0.23609884219E+02 -0.57896677764E+03 -0.33106799655E+03  0.66735745638E+03  0.00000000000E+00 0.  1.
        -11    1    3    3    0    0 -0.32184921957E+02 -0.56706770468E+02 -0.40769841254E+02  0.76900630518E+02  0.00000000000E+00 0. -1.
         22    1    1    2    0    0  0.55794806176E+02  0.63567354811E+03  0.21462051527E+04  0.22390601773E+04  0.00000000000E+00 0. -1.
<mgrwt>
<rscale>  0 0.23982928E+04</rscale>
<asrwt>0</asrwt>
<pdfrwt beam="1">  1        2 0.36597581E+00 0.23982928E+04</pdfrwt>
<pdfrwt beam="2">  1       -2 0.92996228E-01 0.23982928E+04</pdfrwt>
<totfact> 0.36008243E+00</totfact>
</mgrwt>
</event>
<event>
 6    1  0.1588846E-005  0.1035540E+04  0.7818608E-02  0.9270401E-01
          2   -1    0    0  501    0  0.00000000000E+00  0.00000000000E+00  0.20864235284E+04  0.20864235284E+04  0.00000000000E+00 0. -1.
         -2   -1    0    0    0  501 -0.00000000000E+00 -0.00000000000E+00 -0.12849070082E+03  0.12849070082E+03  0.00000000000E+00 0.  1.
         23    2    1    2    0    0  0.33558531812E+03  0.31587485292E+03  0.50039470226E+03  0.68625082114E+03  0.90282351630E+02 0.  0.
         13    1    3    3    0    0  0.21645816658E+03  0.21348976901E+03  0.38884921848E+03  0.49359470628E+03  0.00000000000E+00 0.  1.
        -13    1    3    3    0    0  0.11912715154E+03  0.10238508392E+03  0.11154548378E+03  0.19265611486E+03  0.00000000000E+00 0. -1.
         22    1    1    2    0    0 -0.33558531812E+03 -0.31587485292E+03  0.14575381253E+04  0.15286634080E+04  0.00000000000E+00 0. -1.
<mgrwt>
<rscale>  0 0.10355405E+04</rscale>
<asrwt>0</asrwt>
<pdfrwt beam="1">  1        2 0.32098821E+00 0.10355405E+04</pdfrwt>
<pdfrwt beam="2">  1       -2 0.19767802E-01 0.10355405E+04</pdfrwt>
<totfact> 0.13054198E+02</totfact>
</mgrwt>
</event>
<event>
 6    1  0.1588846E-005  0.1368093E+04  0.7818608E-02  0.8977243E-01
         -1   -1    0    0    0  501 -0.00000000000E+00  0.00000000000E+00  0.28392529930E+03  0.28392529930E+03  0.00000000000E+00 0.  1.
          1   -1    0    0  501    0  0.00000000000E+00 -0.00000000000E+00 -0.16480389063E+04  0.16480389063E+04  0.00000000000E+00 0. -1.
         23    2    1    2    0    0  0.57325083897E+03 -0.36737148959E+03 -0.67453193137E+03  0.96289185376E+03  0.92677180874E+02 0.  0.
         11    1    3    3    0    0  0.32361209478E+03 -0.24150484206E+03 -0.34832705765E+03  0.53327395935E+03  0.00000000000E+00 0. -1.
        -11    1    3    3    0    0  0.24963874420E+03 -0.12586664753E+03 -0.32620487372E+03  0.42961789442E+03  0.00000000000E+00 0.  1.
         22    1    1    2    0    0 -0.57325083897E+03  0.36737148959E+03 -0.68958167565E+03  0.96907235186E+03  0.00000000000E+00 0. -1.
<mgrwt>
<rscale>  0 0.13680935E+04</rscale>
<asrwt>0</asrwt>
<pdfrwt beam="1">  1        1 0.25354444E+00 0.13680935E+04</pdfrwt>
<pdfrwt beam="2">  1       -1 0.43680817E-01 0.13680935E+04</pdfrwt>
<totfact> 0.26175306E+01</totfact>
</mgrwt>
</event>
<event>
 6    1  0.1588846E-005  0.1189801E+04  0.7818608E-02  0.9121831E-01
         -2   -1    0    0    0  501 -0.00000000000E+00  0.00000000000E+00  0.39153435076E+03  0.39153435076E+03  0.00000000000E+00 0. -1.
          2   -1    0    0  501    0  0.00000000000E+00 -0.00000000000E+00 -0.90389609836E+03  0.90389609836E+03  0.00000000000E+00 0.  1.
         23    2    1    2    0    0 -0.49617877514E+03  0.30339457311E+03 -0.37835962332E+03  0.69860701358E+03  0.81572734255E+02 0.  0.
         11    1    3    3    0    0 -0.34558321031E+03  0.24988025216E+03 -0.25679559635E+03  0.49780706501E+03  0.00000000000E+00 0.  1.
        -11    1    3    3    0    0 -0.15059556483E+03  0.53514320948E+02 -0.12156402698E+03  0.20079994857E+03  0.00000000000E+00 0. -1.
         22    1    1    2    0    0  0.49617877514E+03 -0.30339457311E+03 -0.13400212428E+03  0.59682343553E+03  0.00000000000E+00 0. -1.
<mgrwt>
<rscale>  0 0.11898006E+04</rscale>
<asrwt>0</asrwt>
<pdfrwt beam="1">  1        2 0.13906094E+00 0.11898006E+04</pdfrwt>
<pdfrwt beam="2">  1       -2 0.60236055E-01 0.11898006E+04</pdfrwt>
<totfact> 0.73928287E+01</totfact>
</mgrwt>
</event>
<event>
 6    1  0.1588846E-005  0.3415108E+04  0.7818608E-02  0.8134208E-01
         -2   -1    0    0    0  501 -0.00000000000E+00  0.00000000000E+00  0.21461647407E+04  0.21461647407E+04  0.00000000000E+00 0.  1.
          2   -1    0    0  501    0  0.00000000000E+00 -0.00000000000E+00 -0.13585818399E+04  0.13585818399E+04  0.00000000000E+00 0. -1.
         23    2    1    2    0    0 -0.85135278512E+03  0.13326199986E+04 -0.26364987951E+03  0.16058605957E+04  0.92732780164E+02 0.  0.
         13    1    3    3    0    0 -0.48109794623E+03  0.69314494849E+03 -0.10691901644E+03  0.85049211023E+03  0.00000000000E+00 0. -1.
        -13    1    3    3    0    0 -0.37025483888E+03  0.63947505007E+03 -0.15673086307E+03  0.75536848545E+03  0.00000000000E+00 0.  1.
         22    1    1    2    0    0  0.85135278512E+03 -0.13326199986E+04  0.10512327803E+04  0.18988859849E+04  0.00000000000E+00 0.  1.
<mgrwt>
<rscale>  0 0.34151079E+04</rscale>
<asrwt>0</asrwt>
<pdfrwt beam="1">  1        2 0.20901259E+00 0.34151079E+04</pdfrwt>
<pdfrwt beam="2">  1       -2 0.33017919E+00 0.34151079E+04</pdfrwt>
<totfact> 0.26181361E-01</totfact>
</mgrwt>
</event>
<event>
 6    1  0.1588846E-005  0.1313471E+04  0.7818608E-02  0.9018950E-01
         -1   -1    0    0    0  501 -0.00000000000E+00  0.00000000000E+00  0.27131067392E+03  0.27131067392E+03  0.00000000000E+00 0.  1.
          1   -1    0    0  501    0  0.00000000000E+00 -0.00000000000E+00 -0.15896972395E+04  0.15896972395E+04  0.00000000000E+00 0. -1.
         23    2    1    2    0    0 -0.41581548076E+03 -0.45241730249E+03 -0.97874171423E+03  0.11589092347E+04  0.86898454403E+02 0.  0.
         13    1    3    3    0    0 -0.14256260645E+03 -0.11146644407E+03 -0.23931682882E+03  0.30003568032E+03  0.00000000000E+00 0. -1.
        -13    1    3    3    0    0 -0.27325287431E+03 -0.34095085843E+03 -0.73942488541E+03  0.85887355434E+03  0.00000000000E+00 0.  1.
         22    1    1    2    0    0  0.41581548076E+03  0.45241730249E+03 -0.33964485131E+03  0.70209867871E+03  0.00000000000E+00 0.  1.
<mgrwt>
<rscale>  0 0.13134715E+04</rscale>
<asrwt>0</asrwt>
<pdfrwt beam="1">  1        1 0.24456880E+00 0.13134715E+04</pdfrwt>
<pdfrwt beam="2">  1       -1 0.41740104E-01 0.13134715E+04</pdfrwt>
<totfact> 0.31353024E+01</totfact>
</mgrwt>
</event>
<event>
 6    1  0.1588846E-005  0.6916582E+04  0.7818608E-02  0.7586100E-01
         -1   -1    0    0    0  501 -0.00000000000E+00  0.00000000000E+00  0.34138095824E+04  0.34138095824E+04  0.00000000000E+00 0.  1.
          1   -1    0    0  501    0  0.00000000000E+00 -0.00000000000E+00 -0.35033521392E+04  0.35033521392E+04  0.00000000000E+00 0. -1.
         23    2    1    2    0    0  0.58214840127E+02  0.26331767367E+04  0.21956285255E+04  0.34301837220E+04  0.91471581365E+02 0.  0.
         11    1    3    3    0    0  0.21720420106E+02  0.13489160382E+04  0.11831581881E+04  0.17944106422E+04  0.00000000000E+00 0.  1.
        -11    1    3    3    0    0  0.36494420021E+02  0.12842606985E+04  0.10124703374E+04  0.16357730798E+04  0.00000000000E+00 0. -1.
         22    1    1    2    0    0 -0.58214840127E+02 -0.26331767367E+04 -0.22851710823E+04  0.34869779996E+04  0.00000000000E+00 0. -1.
<mgrwt>
<rscale>  0 0.69165821E+04</rscale>
<asrwt>0</asrwt>
<pdfrwt beam="1">  1        1 0.53897726E+00 0.69165821E+04</pdfrwt>
<pdfrwt beam="2">  1       -1 0.52520147E+00 0.69165821E+04</pdfrwt>
<totfact> 0.16347432E-04</totfact>
</mgrwt>
</event>
<event>
 6    1  0.1588846E-005  0.2304739E+04  0.7818608E-02  0.8476055E-01
          2   -1    0    0  501    0  0.00000000000E+00  0.00000000000E+00  0.28028467844E+04  0.28028467844E+04  0.00000000000E+00 0. -1.
         -2   -1    0    0    0  501 -0.00000000000E+00 -0.00000000000E+00 -0.47378802808E+03  0.47378802808E+03  0.00000000000E+00 0.  1.
         23    2    1    2    0    0 -0.10992327983E+04  0.22668610262E+03  0.80713115514E+03  0.13856131423E+04  0.93614872476E+02 0.  0.
         11    1    3    3    0    0 -0.56972344979E+03  0.71821263034E+02  0.42857772749E+03  0.71653469669E+03  0.00000000000E+00 0. -1.
        -11    1    3    3    0    0 -0.52950934855E+03  0.15486483958E+03  0.37855342765E+03  0.66907844557E+03  0.00000000000E+00 0.  1.
         22    1    1    2    0    0  0.10992327983E+04 -0.22668610262E+03  0.15219276012E+04  0.18910216703E+04  0.00000000000E+00 0.  1.
<mgrwt>
<rscale>  0 0.23047388E+04</rscale>
<asrwt>0</asrwt>
<pdfrwt beam="1">  1        2 0.43120719E+00 0.23047388E+04</pdfrwt>
<pdfrwt beam="2">  1       -2 0.72890467E-01 0.23047388E+04</pdfrwt>
<totfact> 0.35515576E+00</totfact>
</mgrwt>
</event>
<event>
 6    1  0.1588846E-005  0.2644052E+04  0.7818608E-02  0.8353390E-01
         -2   -1    0    0    0  501 -0.00000000000E+00  0.00000000000E+00  0.12657770729E+04  0.12657770729E+04  0.00000000000E+00 0.  1.
          2   -1    0    0  501    0  0.00000000000E+00 -0.00000000000E+00 -0.13807746949E+04  0.13807746949E+04  0.00000000000E+00 0. -1.
         23    2    1    2    0    0 -0.10452705503E+04 -0.63126298245E+03  0.44541584895E+03  0.13029942757E+04  0.91188417558E+02 0.  0.
         11    1    3    3    0    0 -0.14648694729E+03 -0.67258600785E+02  0.85921369121E+02  0.18265986635E+03  0.00000000000E+00 0. -1.
        -11    1    3    3    0    0 -0.89878360305E+03 -0.56400438167E+03  0.35949447982E+03  0.11203344093E+04  0.00000000000E+00 0.  1.
         22    1    1    2    0    0  0.10452705503E+04  0.63126298245E+03 -0.56041347096E+03  0.13435574922E+04  0.00000000000E+00 0. -1.
<mgrwt>
<rscale>  0 0.26440522E+04</rscale>
<asrwt>0</asrwt>
<pdfrwt beam="1">  1        2 0.21242687E+00 0.26440522E+04</pdfrwt>
<pdfrwt beam="2">  1       -2 0.19473494E+00 0.26440522E+04</pdfrwt>
<totfact> 0.18852871E+00</totfact>
</mgrwt>
</event>
<event>
 6    1  0.1588846E-005  0.2262128E+04  0.7818608E-02  0.8493005E-01
          1   -1    0    0  501    0  0.00000000000E+00  0.00000000000E+00  0.25500652862E+04  0.25500652862E+04  0.00000000000E+00 0. -1.
         -1   -1    0    0    0  501 -0.00000000000E+00 -0.00000000000E+00 -0.50167570165E+03  0.50167570165E+03  0.00000000000E+00 0.  1.
         23    2    1    2    0    0  0.47902580022E+03  0.96635768701E+03  0.57269281537E+03  0.12239024143E+04  0.81530131493E+02 0.  0.
         11    1    3    3    0    0  0.27210664950E+03  0.59734301457E+03  0.38589436427E+03  0.76142968561E+03  0.00000000000E+00 0.  1.
        -11    1    3    3    0    0  0.20691915073E+03  0.36901467244E+03  0.18679845110E+03  0.46247272865E+03  0.00000000000E+00 0. -1.
         22    1    1    2    0    0 -0.47902580022E+03 -0.96635768701E+03  0.14756967691E+04  0.18278385736E+04  0.00000000000E+00 0. -1.
<mgrwt>
<rscale>  0 0.22621280E+04</rscale>
<asrwt>0</asrwt>
<pdfrwt beam="1">  1        1 0.39231773E+00 0.22621280E+04</pdfrwt>
<pdfrwt beam="2">  1       -1 0.77180879E-01 0.22621280E+04</pdfrwt>
<totfact> 0.19085729E+00</totfact>
</mgrwt>
</event>
<event>
 6    1  0.1588846E-005  0.1445849E+04  0.7818608E-02  0.8921283E-01
          1   -1    0    0  501    0  0.00000000000E+00  0.00000000000E+00  0.18255833047E+04  0.18255833047E+04  0.00000000000E+00 0. -1.
         -1   -1    0    0    0  501 -0.00000000000E+00 -0.00000000000E+00 -0.28627568843E+03  0.28627568843E+03  0.00000000000E+00 0.  1.
         23    2    1    2    0    0 -0.33552245780E+03 -0.18771664853E+03  0.16619582828E+04  0.17083047269E+04  0.91579727518E+02 0.  0.
         13    1    3    3    0    0 -0.22854668150E+03 -0.96503133435E+02  0.90421664453E+03  0.93763222035E+03  0.00000000000E+00 0. -1.
        -13    1    3    3    0    0 -0.10697577631E+03 -0.91213515094E+02  0.75774163824E+03  0.77067250656E+03  0.00000000000E+00 0.  1.
         22    1    1    2    0    0  0.33552245780E+03  0.18771664853E+03 -0.12265066646E+03  0.40355426625E+03  0.00000000000E+00 0.  1.
<mgrwt>
<rscale>  0 0.14458494E+04</rscale>
<asrwt>0</asrwt>
<pdfrwt beam="1">  1        1 0.28085896E+00 0.14458494E+04</pdfrwt>
<pdfrwt beam="2">  1       -1 0.44042415E-01 0.14458494E+04</pdfrwt>
<totfact> 0.19393017E+01</totfact>
</mgrwt>
</event>
<event>
 6    1  0.1588846E-005  0.1336862E+04  0.7818608E-02  0.9000834E-01
         -1   -1    0    0    0  501 -0.00000000000E+00  0.00000000000E+00  0.78199060244E+03  0.78199060244E+03  0.00000000000E+00 0.  1.
          1   -1    0    0  501    0  0.00000000000E+00 -0.00000000000E+00 -0.57136218444E+03  0.57136218444E+03  0.00000000000E+00 0. -1.
         23    2    1    2    0    0 -0.13614950605E+03  0.17453568537E+03 -0.52954086337E+03  0.58079213647E+03  0.88918987522E+02 0.  0.
         11    1    3    3    0    0 -0.23945858970E+02  0.38653150530E+02 -0.21959441601E+03  0.22425248661E+03  0.00000000000E+00 0. -1.
        -11    1    3    3    0    0 -0.11220364708E+03  0.13588253484E+03 -0.30994644737E+03  0.35653964987E+03  0.00000000000E+00 0.  1.
         22    1    1    2    0    0  0.13614950605E+03 -0.17453568537E+03  0.74016928137E+03  0.77256065040E+03  0.00000000000E+00 0.  1.
<mgrwt>
<rscale>  0 0.13368618E+04</rscale>
<asrwt>0</asrwt>
<pdfrwt beam="1">  1        1 0.87901875E-01 0.13368618E+04</pdfrwt>
<pdfrwt beam="2">  1       -1 0.12030625E+00 0.13368618E+04</pdfrwt>
<totfact> 0.22157931E+01</totfact>
</mgrwt>
</event>
<event>
 6    1  0.1588846E-005  0.3364287E+04  0.7818608E-02  0.8146728E-01
          2   -1    0    0  501    0  0.00000000000E+00  0.00000000000E+00  0.24763891355E+04  0.24763891355E+04  0.00000000000E+00 0. -1.
         -2   -1    0    0    0  501 -0.00000000000E+00 -0.00000000000E+00 -0.11426340199E+04  0.11426340199E+04  0.00000000000E+00 0.  1.
         23    2    1    2    0    0 -0.62716135879E+03  0.11622429844E+04 -0.45120043949E+03  0.13986163327E+04  0.91682521511E+02 0.  0.
         11    1    3    3    0    0 -0.34837003665E+03  0.68185676914E+03 -0.21714133812E+03  0.79588987729E+03  0.00000000000E+00 0.  1.
        -11    1    3    3    0    0 -0.27879132214E+03  0.48038621527E+03 -0.23405910137E+03  0.60272645541E+03  0.00000000000E+00 0. -1.
         22    1    1    2    0    0  0.62716135879E+03 -0.11622429844E+04  0.17849555551E+04  0.22204068227E+04  0.00000000000E+00 0. -1.
<mgrwt>
<rscale>  0 0.33642868E+04</rscale>
<asrwt>0</asrwt>
<pdfrwt beam="1">  1        2 0.38098294E+00 0.33642868E+04</pdfrwt>
<pdfrwt beam="2">  1       -2 0.17578985E+00 0.33642868E+04</pdfrwt>
<totfact> 0.57894119E-01</totfact>
</mgrwt>
</event>
<event>
 6    1  0.1588846E-005  0.3131439E+04  0.7818608E-02  0.8207162E-01
          2   -1    0    0  501    0  0.00000000000E+00  0.00000000000E+00  0.10162414856E+04  0.10162414856E+04  0.00000000000E+00 0. -1.
         -2   -1    0    0    0  501 -0.00000000000E+00 -0.00000000000E+00 -0.24122987648E+04  0.24122987648E+04  0.00000000000E+00 0.  1.
         23    2    1    2    0    0  0.16227228708E+03 -0.13180981378E+04 -0.16038069508E+04  0.20843397735E+04  0.92523293067E+02 0.  0.
         13    1    3    3    0    0  0.35455708171E+02 -0.96975059006E+02 -0.13706902024E+03  0.17160765024E+03  0.00000000000E+00 0.  1.
        -13    1    3    3    0    0  0.12681657890E+03 -0.12211230788E+04 -0.14667379306E+04  0.19127321232E+04  0.00000000000E+00 0. -1.
         22    1    1    2    0    0 -0.16227228708E+03  0.13180981378E+04  0.20774967170E+03  0.13442004769E+04  0.00000000000E+00 0. -1.
<mgrwt>
<rscale>  0 0.31314393E+04</rscale>
<asrwt>0</asrwt>
<pdfrwt beam="1">  1        2 0.15634485E+00 0.31314393E+04</pdfrwt>
<pdfrwt beam="2">  1       -2 0.37112288E+00 0.31314393E+04</pdfrwt>
<totfact> 0.23767385E-01</totfact>
</mgrwt>
</event>
<event>
 6    1  0.1588846E-005  0.1491917E+04  0.7818608E-02  0.8889846E-01
         -2   -1    0    0    0  501 -0.00000000000E+00  0.00000000000E+00  0.31422598905E+03  0.31422598905E+03  0.00000000000E+00 0.  1.
          2   -1    0    0  501    0  0.00000000000E+00 -0.00000000000E+00 -0.17708719657E+04  0.17708719657E+04  0.00000000000E+00 0. -1.
         23    2    1    2    0    0 -0.32748454976E+03 -0.22316829793E+03  0.14771153848E+03  0.43252019384E+03  0.90580350753E+02 0.  0.
         11    1    3    3    0    0 -0.70465986120E+02 -0.97245776652E+02  0.50114235114E+02  0.13012929277E+03  0.00000000000E+00 0.  1.
        -11    1    3    3    0    0 -0.25701856364E+03 -0.12592252128E+03  0.97597303362E+02  0.30239090106E+03  0.00000000000E+00 0. -1.
         22    1    1    2    0    0  0.32748454976E+03  0.22316829793E+03 -0.16043575151E+04  0.16525777609E+04  0.00000000000E+00 0. -1.
<mgrwt>
<rscale>  0 0.14919169E+04</rscale>
<asrwt>0</asrwt>
<pdfrwt beam="1">  1        2 0.27244185E+00 0.14919169E+04</pdfrwt>
<pdfrwt beam="2">  1       -2 0.48342459E-01 0.14919169E+04</pdfrwt>
<totfact> 0.35093376E+01</totfact>
</mgrwt>
</event>
<event>
 6    1  0.1588846E-005  0.1018138E+04  0.7818608E-02  0.9288872E-01
         -2   -1    0    0    0  501 -0.00000000000E+00  0.00000000000E+00  0.33716733087E+03  0.33716733087E+03  0.00000000000E+00 0.  1.
          2   -1    0    0  501    0  0.00000000000E+00 -0.00000000000E+00 -0.76861315953E+03  0.76861315953E+03  0.00000000000E+00 0. -1.
         23    2    1    2    0    0 -0.18695639295E+02 -0.23698641564E+03 -0.70146736967E+03  0.74602540602E+03  0.89360772094E+02 0.  0.
         11    1    3    3    0    0  0.25905889121E+02 -0.41147625015E+02 -0.20008549749E+03  0.20590883527E+03  0.00000000000E+00 0. -1.
        -11    1    3    3    0    0 -0.44601528416E+02 -0.19583879062E+03 -0.50138187218E+03  0.54011657075E+03  0.00000000000E+00 0.  1.
         22    1    1    2    0    0  0.18695639295E+02  0.23698641564E+03  0.27002154101E+03  0.35975508438E+03  0.00000000000E+00 0.  1.
<mgrwt>
<rscale>  0 0.10181380E+04</rscale>
<asrwt>0</asrwt>
<pdfrwt beam="1">  1        2 0.11824818E+00 0.10181380E+04</pdfrwt>
<pdfrwt beam="2">  1       -2 0.51871897E-01 0.10181380E+04</pdfrwt>
<totfact> 0.12715086E+02</totfact>
</mgrwt>
</event>
<event>
 6    1  0.1588846E-005  0.6106951E+03  0.7818608E-02  0.9883462E-01
         -2   -1    0    0    0  501 -0.00000000000E+00  0.00000000000E+00  0.86055982487E+03  0.86055982487E+03  0.00000000000E+00 0.  1.
          2   -1    0    0  501    0  0.00000000000E+00 -0.00000000000E+00 -0.10834472510E+03  0.10834472510E+03  0.00000000000E+00 0. -1.
         23    2    1    2    0    0  0.38847693422E+02  0.16157848047E+03  0.77806499850E+03  0.80072320172E+03  0.90309220137E+02 0.  0.
         11    1    3    3    0    0  0.12329689278E+02  0.16197402548E+03  0.65646133518E+03  0.67626111137E+03  0.00000000000E+00 0. -1.
        -11    1    3    3    0    0  0.26518004144E+02 -0.39554501891E+00  0.12160366332E+03  0.12446209035E+03  0.00000000000E+00 0.  1.
         22    1    1    2    0    0 -0.38847693422E+02 -0.16157848047E+03 -0.25849898730E+02  0.16818134825E+03  0.00000000000E+00 0. -1.
<mgrwt>
<rscale>  0 0.61069507E+03</rscale>
<asrwt>0</asrwt>
<pdfrwt beam="1">  1        2 0.16668420E-01 0.61069507E+03</pdfrwt>
<pdfrwt beam="2">  1       -2 0.13239381E+00 0.61069507E+03</pdfrwt>
<totfact> 0.14845915E+02</totfact>
</mgrwt>
</event>
<event>
 6    1  0.1588846E-005  0.8106907E+03  0.7818608E-02  0.9544670E-01
          2   -1    0    0  501    0  0.00000000000E+00  0.00000000000E+00  0.14584357023E+04  0.14584357023E+04  0.00000000000E+00 0. -1.
         -2   -1    0    0    0  501 -0.00000000000E+00 -0.00000000000E+00 -0.11265826432E+03  0.11265826432E+03  0.00000000000E+00 0.  1.
         23    2    1    2    0    0  0.14553868502E+03  0.49769772402E+02  0.13974284400E+04  0.14088399525E+04  0.91461619315E+02 0.  0.
         11    1    3    3    0    0  0.43213196624E+02  0.28934607985E+02  0.84690025100E+03  0.84849550797E+03  0.00000000000E+00 0. -1.
        -11    1    3    3    0    0  0.10232548840E+03  0.20835164417E+02  0.55052818902E+03  0.56034444457E+03  0.00000000000E+00 0.  1.
         22    1    1    2    0    0 -0.14553868502E+03 -0.49769772402E+02 -0.51651002018E+02  0.16225401410E+03  0.00000000000E+00 0.  1.
<mgrwt>
<rscale>  0 0.81069066E+03</rscale>
<asrwt>0</asrwt>
<pdfrwt beam="1">  1        2 0.22437471E+00 0.81069066E+03</pdfrwt>
<pdfrwt beam="2">  1       -2 0.17332042E-01 0.81069066E+03</pdfrwt>
<totfact> 0.36996970E+02</totfact>
</mgrwt>
</event>
<event>
 6    1  0.1588846E-005  0.1463684E+04  0.7818608E-02  0.8908968E-01
         -2   -1    0    0    0  501 -0.00000000000E+00  0.00000000000E+00  0.15745275672E+03  0.15745275672E+03  0.00000000000E+00 0.  1.
          2   -1    0    0  501    0  0.00000000000E+00 -0.00000000000E+00 -0.34016111830E+04  0.34016111830E+04  0.00000000000E+00 0. -1.
         23    2    1    2    0    0  0.43051455175E+03  0.32035508028E+03 -0.42857538507E+03  0.69279842189E+03  0.91228482127E+02 0.  0.
         11    1    3    3    0    0  0.19285245841E+03  0.18687070388E+03 -0.25025014123E+03  0.36706656599E+03  0.00000000000E+00 0.  1.
        -11    1    3    3    0    0  0.23766209334E+03  0.13348437640E+03 -0.17832524383E+03  0.32573185590E+03  0.00000000000E+00 0. -1.
         22    1    1    2    0    0 -0.43051455175E+03 -0.32035508028E+03 -0.28155830412E+04  0.28662655178E+04  0.00000000000E+00 0. -1.
<mgrwt>
<rscale>  0 0.14636845E+04</rscale>
<asrwt>0</asrwt>
<pdfrwt beam="1">  1        2 0.52332476E+00 0.14636845E+04</pdfrwt>
<pdfrwt beam="2">  1       -2 0.24223503E-01 0.14636845E+04</pdfrwt>
<totfact> 0.14186541E+01</totfact>
</mgrwt>
</event>
<event>
 6    1  0.1588846E-005  0.4268493E+04  0.7818608E-02  0.7952470E-01
         -2   -1    0    0    0  501 -0.00000000000E+00  0.00000000000E+00  0.11794340266E+04  0.11794340266E+04  0.00000000000E+00 0.  1.
          2   -1    0    0  501    0  0.00000000000E+00 -0.00000000000E+00 -0.38620284887E+04  0.38620284887E+04  0.00000000000E+00 0. -1.
         23    2    1    2    0    0 -0.11184522797E+04  0.17649062923E+04 -0.18499584177E+04  0.27922154180E+04  0.91055316581E+02 0.  0.
         11    1    3    3    0    0 -0.22036621304E+03  0.28579470205E+03 -0.33149015400E+03  0.49002612356E+03  0.00000000000E+00 0. -1.
        -11    1    3    3    0    0 -0.89808606666E+03  0.14791115902E+04 -0.15184682637E+04  0.23021892944E+04  0.00000000000E+00 0.  1.
         22    1    1    2    0    0  0.11184522797E+04 -0.17649062923E+04 -0.83263604438E+03  0.22492470973E+04  0.00000000000E+00 0.  1.
<mgrwt>
<rscale>  0 0.42684929E+04</rscale>
<asrwt>0</asrwt>
<pdfrwt beam="1">  1        2 0.59415822E+00 0.42684929E+04</pdfrwt>
<pdfrwt beam="2">  1       -2 0.18145139E+00 0.42684929E+04</pdfrwt>
<totfact> 0.60002456E-02</totfact>
</mgrwt>
</event>
<event>
 6    1  0.1588846E-005  0.8584377E+03  0.7818608E-02  0.9479082E-01
         -2   -1    0    0    0  501 -0.00000000000E+00  0.00000000000E+00  0.58680897149E+03  0.58680897149E+03  0.00000000000E+00 0.  1.
          2   -1    0    0  501    0  0.00000000000E+00 -0.00000000000E+00 -0.31395022716E+03  0.31395022716E+03  0.00000000000E+00 0. -1.
         23    2    1    2    0    0 -0.35517079235E+03 -0.18993490939E+03  0.27556708906E+03  0.49798271390E+03  0.99136276033E+02 0.  0.
         13    1    3    3    0    0 -0.11844436029E+03 -0.11180486179E+03  0.81914505542E+02  0.18231670199E+03  0.00000000000E+00 0. -1.
        -13    1    3    3    0    0 -0.23672643205E+03 -0.78130047596E+02  0.19365258352E+03  0.31566601191E+03  0.00000000000E+00 0.  1.
         22    1    1    2    0    0  0.35517079235E+03  0.18993490939E+03 -0.27083447260E+01  0.40277648476E+03  0.00000000000E+00 0. -1.
<mgrwt>
<rscale>  0 0.85843767E+03</rscale>
<asrwt>0</asrwt>
<pdfrwt beam="1">  1        2 0.48300035E-01 0.85843767E+03</pdfrwt>
<pdfrwt beam="2">  1       -2 0.90278303E-01 0.85843767E+03</pdfrwt>
<totfact> 0.11009084E+02</totfact>
</mgrwt>
</event>
<event>
 6    1  0.1588846E-005  0.3561376E+04  0.7818608E-02  0.8099397E-01
         -2   -1    0    0    0  501 -0.00000000000E+00  0.00000000000E+00  0.16643196409E+04  0.16643196409E+04  0.00000000000E+00 0.  1.
          2   -1    0    0  501    0  0.00000000000E+00 -0.00000000000E+00 -0.19051926319E+04  0.19051926319E+04  0.00000000000E+00 0. -1.
         23    2    1    2    0    0 -0.14114544028E+03  0.17631659551E+04 -0.31615189338E+03  0.17991046548E+04  0.90273577272E+02 0.  0.
         11    1    3    3    0    0 -0.14762075867E+03  0.15488664343E+04 -0.29568607328E+03  0.15837327343E+04  0.00000000000E+00 0.  1.
        -11    1    3    3    0    0  0.64753183869E+01  0.21429952083E+03 -0.20465820098E+02  0.21537192056E+03  0.00000000000E+00 0. -1.
         22    1    1    2    0    0  0.14114544028E+03 -0.17631659551E+04  0.75278902296E+02  0.17704076180E+04  0.00000000000E+00 0.  1.
<mgrwt>
<rscale>  0 0.35613759E+04</rscale>
<asrwt>0</asrwt>
<pdfrwt beam="1">  1        2 0.29310656E+00 0.35613759E+04</pdfrwt>
<pdfrwt beam="2">  1       -2 0.25604918E+00 0.35613759E+04</pdfrwt>
<totfact> 0.36383954E-01</totfact>
</mgrwt>
</event>
<event>
 6    1  0.1588846E-005  0.3204048E+04  0.7818608E-02  0.8187749E-01
         -1   -1    0    0    0  501 -0.00000000000E+00  0.00000000000E+00  0.20050765447E+04  0.20050765447E+04  0.00000000000E+00 0.  1.
          1   -1    0    0  501    0  0.00000000000E+00 -0.00000000000E+00 -0.12799914124E+04  0.12799914124E+04  0.00000000000E+00 0. -1.
         23    2    1    2    0    0 -0.12439480069E+04  0.23485660550E+03 -0.64187390161E+03  0.14219680485E+04  0.86178631479E+02 0.  0.
         11    1    3    3    0    0 -0.41035646980E+03  0.10706834081E+03 -0.24687092273E+03  0.49071510512E+03  0.00000000000E+00 0.  1.
        -11    1    3    3    0    0 -0.83359153709E+03  0.12778826469E+03 -0.39500297888E+03  0.93125294342E+03  0.00000000000E+00 0. -1.
         22    1    1    2    0    0  0.12439480069E+04 -0.23485660550E+03  0.13669590339E+04  0.18630999086E+04  0.00000000000E+00 0.  1.
<mgrwt>
<rscale>  0 0.32040479E+04</rscale>
<asrwt>0</asrwt>
<pdfrwt beam="1">  1        1 0.19692176E+00 0.32040479E+04</pdfrwt>
<pdfrwt beam="2">  1       -1 0.30847331E+00 0.32040479E+04</pdfrwt>
<totfact> 0.22746417E-01</totfact>
</mgrwt>
</event>
<event>
 6    1  0.1588846E-005  0.3576049E+04  0.7818608E-02  0.8096000E-01
          1   -1    0    0  501    0  0.00000000000E+00  0.00000000000E+00  0.18520113021E+04  0.18520113021E+04  0.00000000000E+00 0. -1.
         -1   -1    0    0    0  501 -0.00000000000E+00 -0.00000000000E+00 -0.17262481971E+04  0.17262481971E+04  0.00000000000E+00 0.  1.
         23    2    1    2    0    0 -0.17028048259E+02 -0.54151742713E+03  0.17666682636E+04  0.18502256981E+04  0.93205698472E+02 0.  0.
         13    1    3    3    0    0 -0.28899263125E+02 -0.13265985540E+03  0.55561046961E+03  0.57195873853E+03  0.00000000000E+00 0. -1.
        -13    1    3    3    0    0  0.11871214866E+02 -0.40885757173E+03  0.12110577940E+04  0.12782669596E+04  0.00000000000E+00 0.  1.
         22    1    1    2    0    0  0.17028048259E+02  0.54151742713E+03 -0.16409051586E+04  0.17280338011E+04  0.00000000000E+00 0.  1.
<mgrwt>
<rscale>  0 0.35760488E+04</rscale>
<asrwt>0</asrwt>
<pdfrwt beam="1">  1        1 0.28492482E+00 0.35760488E+04</pdfrwt>
<pdfrwt beam="2">  1       -1 0.26557665E+00 0.35760488E+04</pdfrwt>
<totfact> 0.16806535E-01</totfact>
</mgrwt>
</event>
<event>
 6    1  0.1588846E-005  0.2252136E+04  0.7818608E-02  0.8497036E-01
         -1   -1    0    0    0  501 -0.00000000000E+00  0.00000000000E+00  0.67007282521E+03  0.67007282521E+03  0.00000000000E+00 0.  1.
          1   -1    0    0  501    0  0.00000000000E+00 -0.00000000000E+00 -0.18923757803E+04  0.18923757803E+04  0.00000000000E+00 0. -1.
         23    2    1    2    0    0  0.92236402140E+03  0.51329092501E+03 -0.10523524458E+04  0.14932871877E+04  0.90763390685E+02 0.  0.
         13    1    3    3    0    0  0.50015034597E+03  0.32848583889E+03 -0.58007986648E+03  0.83339424430E+03  0.00000000000E+00 0. -1.
        -13    1    3    3    0    0  0.42221367543E+03  0.18480508611E+03 -0.47227257936E+03  0.65989294343E+03  0.00000000000E+00 0.  1.
         22    1    1    2    0    0 -0.92236402140E+03 -0.51329092501E+03 -0.16995050923E+03  0.10691614178E+04  0.00000000000E+00 0.  1.
<mgrwt>
<rscale>  0 0.22521364E+04</rscale>
<asrwt>0</asrwt>
<pdfrwt beam="1">  1        1 0.29113473E+00 0.22521364E+04</pdfrwt>
<pdfrwt beam="2">  1       -1 0.10308813E+00 0.22521364E+04</pdfrwt>
<totfact> 0.28429970E+00</totfact>
</mgrwt>
</event>
<event>
 6    1  0.1588846E-005  0.2362511E+04  0.7818608E-02  0.8453674E-01
         -2   -1    0    0    0  501 -0.00000000000E+00  0.00000000000E+00  0.95072607552E+03  0.95072607552E+03  0.00000000000E+00 0. -1.
          2   -1    0    0  501    0  0.00000000000E+00 -0.00000000000E+00 -0.14676825709E+04  0.14676825709E+04  0.00000000000E+00 0.  1.
         23    2    1    2    0    0 -0.39396596140E+03 -0.24051214325E+03 -0.13699512727E+04  0.14485347577E+04  0.91821483311E+02 0.  0.
         11    1    3    3    0    0 -0.22602792317E+03 -0.98742953263E+02 -0.82004230936E+03  0.85633415324E+03  0.00000000000E+00 0.  1.
        -11    1    3    3    0    0 -0.16793803823E+03 -0.14176918999E+03 -0.54990896334E+03  0.59220060442E+03  0.00000000000E+00 0. -1.
         22    1    1    2    0    0  0.39396596140E+03  0.24051214325E+03  0.85299477737E+03  0.96987388871E+03  0.00000000000E+00 0. -1.
<mgrwt>
<rscale>  0 0.23625106E+04</rscale>
<asrwt>0</asrwt>
<pdfrwt beam="1">  1        2 0.22579732E+00 0.23625106E+04</pdfrwt>
<pdfrwt beam="2">  1       -2 0.14626555E+00 0.23625106E+04</pdfrwt>
<totfact> 0.38255288E+00</totfact>
</mgrwt>
</event>
<event>
 6    1  0.1588846E-005  0.1490564E+04  0.7818608E-02  0.8890752E-01
         -1   -1    0    0    0  501 -0.00000000000E+00  0.00000000000E+00  0.71645102954E+03  0.71645102954E+03  0.00000000000E+00 0.  1.
          1   -1    0    0  501    0  0.00000000000E+00 -0.00000000000E+00 -0.77527349911E+03  0.77527349911E+03  0.00000000000E+00 0. -1.
         23    2    1    2    0    0 -0.72475866622E+03 -0.94055112477E+02 -0.15983085621E+03  0.75394123891E+03  0.93594875299E+02 0.  0.
         13    1    3    3    0    0 -0.56069476564E+03 -0.62318079272E+02 -0.16156610628E+03  0.58682686537E+03  0.00000000000E+00 0.  1.
        -13    1    3    3    0    0 -0.16406390058E+03 -0.31737033205E+02  0.17352500666E+01  0.16711437354E+03  0.00000000000E+00 0. -1.
         22    1    1    2    0    0  0.72475866622E+03  0.94055112477E+02  0.10100838664E+03  0.73778328974E+03  0.00000000000E+00 0.  1.
<mgrwt>
<rscale>  0 0.14905643E+04</rscale>
<asrwt>0</asrwt>
<pdfrwt beam="1">  1        1 0.11927285E+00 0.14905643E+04</pdfrwt>
<pdfrwt beam="2">  1       -1 0.11022324E+00 0.14905643E+04</pdfrwt>
<totfact> 0.17099292E+01</totfact>
</mgrwt>
</event>
<event>
 6    1  0.1588846E-005  0.3063198E+04  0.7818608E-02  0.8225911E-01
          1   -1    0    0  501    0  0.00000000000E+00  0.00000000000E+00  0.30140485488E+04  0.30140485488E+04  0.00000000000E+00 0. -1.
         -1   -1    0    0    0  501 -0.00000000000E+00 -0.00000000000E+00 -0.77828746394E+03  0.77828746394E+03  0.00000000000E+00 0.  1.
         23    2    1    2    0    0 -0.93036181627E+03  0.10882286463E+04  0.17876187500E+04  0.22921206122E+04  0.91768238672E+02 0.  0.
         13    1    3    3    0    0 -0.88824643577E+03  0.10043344604E+04  0.16683681696E+04  0.21403555285E+04  0.00000000000E+00 0. -1.
        -13    1    3    3    0    0 -0.42115380501E+02  0.83894185865E+02  0.11925058045E+03  0.15176508371E+03  0.00000000000E+00 0.  1.
         22    1    1    2    0    0  0.93036181627E+03 -0.10882286463E+04  0.44814233485E+03  0.15002154006E+04  0.00000000000E+00 0.  1.
<mgrwt>
<rscale>  0 0.30631985E+04</rscale>
<asrwt>0</asrwt>
<pdfrwt beam="1">  1        1 0.46369977E+00 0.30631985E+04</pdfrwt>
<pdfrwt beam="2">  1       -1 0.11973653E+00 0.30631985E+04</pdfrwt>
<totfact> 0.30733120E-01</totfact>
</mgrwt>
</event>
<event>
 6    1  0.1588846E-005  0.1168971E+04  0.7818608E-02  0.9140458E-01
         -1   -1    0    0    0  501 -0.00000000000E+00  0.00000000000E+00  0.34010958427E+03  0.34010958427E+03  0.00000000000E+00 0.  1.
          1   -1    0    0  501    0  0.00000000000E+00 -0.00000000000E+00 -0.10044501831E+04  0.10044501831E+04  0.00000000000E+00 0. -1.
         23    2    1    2    0    0  0.24962406221E+03  0.46150871234E+03 -0.47646907239E+02  0.53486008647E+03  0.92209654194E+02 0.  0.
         13    1    3    3    0    0  0.18858893586E+03  0.33409305644E+03 -0.75127280341E+02  0.39093230276E+03  0.00000000000E+00 0.  1.
        -13    1    3    3    0    0  0.61035126354E+02  0.12741565591E+03  0.27480373102E+02  0.14392778371E+03  0.00000000000E+00 0. -1.
         22    1    1    2    0    0 -0.24962406221E+03 -0.46150871234E+03 -0.61669369162E+03  0.80969968092E+03  0.00000000000E+00 0. -1.
<mgrwt>
<rscale>  0 0.11689707E+04</rscale>
<asrwt>0</asrwt>
<pdfrwt beam="1">  1        1 0.15453080E+00 0.11689707E+04</pdfrwt>
<pdfrwt beam="2">  1       -1 0.52324551E-01 0.11689707E+04</pdfrwt>
<totfact> 0.54765758E+01</totfact>
</mgrwt>
</event>
<event>
 6    1  0.1588846E-005  0.6707760E+03  0.7818608E-02  0.9768557E-01
          2   -1    0    0  501    0  0.00000000000E+00  0.00000000000E+00  0.11899918428E+04  0.11899918428E+04  0.00000000000E+00 0. -1.
         -2   -1    0    0    0  501 -0.00000000000E+00 -0.00000000000E+00 -0.94525951856E+02  0.94525951856E+02  0.00000000000E+00 0.  1.
         23    2    1    2    0    0  0.84720322746E+01 -0.32755314261E+03  0.51143080363E+03  0.61484636793E+03  0.95455501108E+02 0.  0.
         11    1    3    3    0    0  0.40999940987E+02 -0.10063509532E+03  0.12589524365E+03  0.16630703517E+03  0.00000000000E+00 0. -1.
        -11    1    3    3    0    0 -0.32527908712E+02 -0.22691804729E+03  0.38553555997E+03  0.44853933276E+03  0.00000000000E+00 0.  1.
         22    1    1    2    0    0 -0.84720322746E+01  0.32755314261E+03  0.58403508735E+03  0.66967142676E+03  0.00000000000E+00 0. -1.
<mgrwt>
<rscale>  0 0.67077600E+03</rscale>
<asrwt>0</asrwt>
<pdfrwt beam="1">  1        2 0.18307566E+00 0.67077600E+03</pdfrwt>
<pdfrwt beam="2">  1       -2 0.14542455E-01 0.67077600E+03</pdfrwt>
<totfact> 0.71618768E+02</totfact>
</mgrwt>
</event>
<event>
 6    1  0.1588846E-005  0.1149035E+04  0.7818608E-02  0.9158674E-01
          1   -1    0    0  501    0  0.00000000000E+00  0.00000000000E+00  0.88299061360E+03  0.88299061360E+03  0.00000000000E+00 0. -1.
         -1   -1    0    0    0  501 -0.00000000000E+00 -0.00000000000E+00 -0.37380982905E+03  0.37380982905E+03  0.00000000000E+00 0.  1.
         23    2    1    2    0    0  0.27479921232E+03 -0.33192889944E+02  0.80209474532E+03  0.85379304390E+03  0.94816698406E+02 0.  0.
         11    1    3    3    0    0  0.13970385941E+03  0.25493569034E+02  0.33012538719E+03  0.35937426406E+03  0.00000000000E+00 0.  1.
        -11    1    3    3    0    0  0.13509535291E+03 -0.58686458979E+02  0.47196935813E+03  0.49441877984E+03  0.00000000000E+00 0. -1.
         22    1    1    2    0    0 -0.27479921232E+03  0.33192889944E+02 -0.29291396077E+03  0.40300739875E+03  0.00000000000E+00 0.  1.
<mgrwt>
<rscale>  0 0.11490354E+04</rscale>
<asrwt>0</asrwt>
<pdfrwt beam="1">  1        1 0.13584471E+00 0.11490354E+04</pdfrwt>
<pdfrwt beam="2">  1       -1 0.57509205E-01 0.11490354E+04</pdfrwt>
<totfact> 0.57162606E+01</totfact>
</mgrwt>
</event>
<event>
 6    1  0.1588846E-005  0.3534749E+04  0.7818608E-02  0.8105604E-01
          1   -1    0    0  501    0  0.00000000000E+00  0.00000000000E+00  0.14065611249E+04  0.14065611249E+04  0.00000000000E+00 0. -1.
         -1   -1    0    0    0  501 -0.00000000000E+00 -0.00000000000E+00 -0.22207444760E+04  0.22207444760E+04  0.00000000000E+00 0.  1.
         23    2    1    2    0    0 -0.18612897441E+03 -0.14124980256E+04  0.66388836320E+03  0.15743831328E+04  0.90220964137E+02 0.  0.
         11    1    3    3    0    0 -0.43971286847E+02 -0.65513335848E+03  0.32317494641E+03  0.73183006050E+03  0.00000000000E+00 0. -1.
        -11    1    3    3    0    0 -0.14215768757E+03 -0.75736466716E+03  0.34071341679E+03  0.84255307226E+03  0.00000000000E+00 0.  1.
         22    1    1    2    0    0  0.18612897441E+03  0.14124980256E+04 -0.14780717143E+04  0.20529224682E+04  0.00000000000E+00 0.  1.
<mgrwt>
<rscale>  0 0.35347491E+04</rscale>
<asrwt>0</asrwt>
<pdfrwt beam="1">  1        1 0.21639402E+00 0.35347491E+04</pdfrwt>
<pdfrwt beam="2">  1       -1 0.34165300E+00 0.35347491E+04</pdfrwt>
<totfact> 0.10907063E-01</totfact>
</mgrwt>
</event>
<event>
 6    1  0.1588846E-005  0.3807714E+04  0.7818608E-02  0.8044502E-01
          2   -1    0    0  501    0  0.00000000000E+00  0.00000000000E+00  0.30508667202E+04  0.30508667202E+04  0.00000000000E+00 0.  1.
         -2   -1    0    0    0  501 -0.00000000000E+00 -0.00000000000E+00 -0.11880790321E+04  0.11880790321E+04  0.00000000000E+00 0. -1.
         23    2    1    2    0    0 -0.13729657166E+03 -0.19081662955E+03  0.30340432283E+04  0.30443324779E+04  0.85326372500E+02 0.  0.
         13    1    3    3    0    0 -0.64912434402E+02 -0.12361199135E+03  0.12994033482E+04  0.13068827835E+04  0.00000000000E+00 0. -1.
        -13    1    3    3    0    0 -0.72384137258E+02 -0.67204638197E+02  0.17346398802E+04  0.17374496944E+04  0.00000000000E+00 0.  1.
         22    1    1    2    0    0  0.13729657166E+03  0.19081662955E+03 -0.11712555403E+04  0.11946132744E+04  0.00000000000E+00 0. -1.
<mgrwt>
<rscale>  0 0.38077136E+04</rscale>
<asrwt>0</asrwt>
<pdfrwt beam="1">  1        2 0.46936411E+00 0.38077136E+04</pdfrwt>
<pdfrwt beam="2">  1       -2 0.18278139E+00 0.38077136E+04</pdfrwt>
<totfact> 0.22467814E-01</totfact>
</mgrwt>
</event>
<event>
 6    1  0.1588846E-005  0.3739771E+04  0.7818608E-02  0.8059205E-01
         -2   -1    0    0    0  501 -0.00000000000E+00  0.00000000000E+00  0.14305734204E+04  0.14305734204E+04  0.00000000000E+00 0.  1.
          2   -1    0    0  501    0  0.00000000000E+00 -0.00000000000E+00 -0.24441046877E+04  0.24441046877E+04  0.00000000000E+00 0. -1.
         23    2    1    2    0    0  0.40589992029E+03 -0.70508741361E+03 -0.22501336717E+04  0.23944455208E+04  0.91459311506E+02 0.  0.
         11    1    3    3    0    0  0.21619674406E+03 -0.31161664671E+03 -0.95087520915E+03  0.10237234148E+04  0.00000000000E+00 0.  1.
        -11    1    3    3    0    0  0.18970317623E+03 -0.39347076691E+03 -0.12992584625E+04  0.13707221060E+04  0.00000000000E+00 0. -1.
         22    1    1    2    0    0 -0.40589992029E+03  0.70508741361E+03  0.12366024044E+04  0.14802325874E+04  0.00000000000E+00 0.  1.
<mgrwt>
<rscale>  0 0.37397707E+04</rscale>
<asrwt>0</asrwt>
<pdfrwt beam="1">  1        2 0.37601610E+00 0.37397707E+04</pdfrwt>
<pdfrwt beam="2">  1       -2 0.22008822E+00 0.37397707E+04</pdfrwt>
<totfact> 0.29825959E-01</totfact>
</mgrwt>
</event>
<event>
 6    1  0.1588846E-005  0.8236166E+03  0.7818608E-02  0.9526448E-01
         -1   -1    0    0    0  501 -0.00000000000E+00  0.00000000000E+00  0.23958910369E+03  0.23958910369E+03  0.00000000000E+00 0.  1.
          1   -1    0    0  501    0  0.00000000000E+00 -0.00000000000E+00 -0.70782049017E+03  0.70782049017E+03  0.00000000000E+00 0. -1.
         23    2    1    2    0    0  0.18008487433E+03  0.35522591143E+03 -0.14023239882E+03  0.43146449405E+03  0.88772032946E+02 0.  0.
         13    1    3    3    0    0  0.15768843177E+03  0.21888021368E+03 -0.88202848956E+02  0.28382024596E+03  0.00000000000E+00 0. -1.
        -13    1    3    3    0    0  0.22396442562E+02  0.13634569775E+03 -0.52029549864E+02  0.14764424809E+03  0.00000000000E+00 0.  1.
         22    1    1    2    0    0 -0.18008487433E+03 -0.35522591143E+03 -0.32799898767E+03  0.51594509981E+03  0.00000000000E+00 0. -1.
<mgrwt>
<rscale>  0 0.82361660E+03</rscale>
<asrwt>0</asrwt>
<pdfrwt beam="1">  1        1 0.10889546E+00 0.82361660E+03</pdfrwt>
<pdfrwt beam="2">  1       -1 0.36859862E-01 0.82361660E+03</pdfrwt>
<totfact> 0.19114174E+02</totfact>
</mgrwt>
</event>
<event>
 6    1  0.1588846E-005  0.4948683E+04  0.7818608E-02  0.7836472E-01
          2   -1    0    0  501    0  0.00000000000E+00  0.00000000000E+00  0.49863420391E+04  0.49863420391E+04  0.00000000000E+00 0.  1.
         -2   -1    0    0    0  501 -0.00000000000E+00 -0.00000000000E+00 -0.12278271532E+04  0.12278271532E+04  0.00000000000E+00 0. -1.
         23    2    1    2    0    0 -0.67281484554E+03 -0.20813083413E+04  0.33302462161E+04  0.39852819629E+04  0.86071112265E+02 0.  0.
         13    1    3    3    0    0 -0.31268323429E+03 -0.93853880349E+03  0.14300117814E+04  0.17388385737E+04  0.00000000000E+00 0. -1.
        -13    1    3    3    0    0 -0.36013161124E+03 -0.11427695378E+04  0.19002344347E+04  0.22464433892E+04  0.00000000000E+00 0.  1.
         22    1    1    2    0    0  0.67281484554E+03  0.20813083413E+04  0.42826866983E+03  0.22288872294E+04  0.00000000000E+00 0. -1.
<mgrwt>
<rscale>  0 0.49486831E+04</rscale>
<asrwt>0</asrwt>
<pdfrwt beam="1">  1        2 0.76712953E+00 0.49486831E+04</pdfrwt>
<pdfrwt beam="2">  1       -2 0.18889649E+00 0.49486831E+04</pdfrwt>
<totfact> 0.40479503E-03</totfact>
</mgrwt>
</event>
<event>
 6    1  0.1588846E-005  0.2088226E+04  0.7818608E-02  0.8566448E-01
         -1   -1    0    0    0  501 -0.00000000000E+00  0.00000000000E+00  0.69612261047E+03  0.69612261047E+03  0.00000000000E+00 0.  1.
          1   -1    0    0  501    0  0.00000000000E+00 -0.00000000000E+00 -0.15660624722E+04  0.15660624722E+04  0.00000000000E+00 0. -1.
         23    2    1    2    0    0  0.10621881365E+03 -0.28255560958E+03 -0.15163063997E+04  0.15488059337E+04  0.92166228548E+02 0.  0.
         11    1    3    3    0    0 -0.68513906922E+01 -0.10363991197E+03 -0.51782331754E+03  0.52813744527E+03  0.00000000000E+00 0.  1.
        -11    1    3    3    0    0  0.11307020434E+03 -0.17891569761E+03 -0.99848308212E+03  0.10206684884E+04  0.00000000000E+00 0. -1.
         22    1    1    2    0    0 -0.10621881365E+03  0.28255560958E+03  0.64636653792E+03  0.71337914899E+03  0.00000000000E+00 0.  1.
<mgrwt>
<rscale>  0 0.20882256E+04</rscale>
<asrwt>0</asrwt>
<pdfrwt beam="1">  1        1 0.24093269E+00 0.20882256E+04</pdfrwt>
<pdfrwt beam="2">  1       -1 0.10709579E+00 0.20882256E+04</pdfrwt>
<totfact> 0.44064154E+00</totfact>
</mgrwt>
</event>
<event>
 6    1  0.1588846E-005  0.3438410E+04  0.7818608E-02  0.8128543E-01
          1   -1    0    0  501    0  0.00000000000E+00  0.00000000000E+00  0.16229630775E+04  0.16229630775E+04  0.00000000000E+00 0. -1.
         -1   -1    0    0    0  501 -0.00000000000E+00 -0.00000000000E+00 -0.18211537453E+04  0.18211537453E+04  0.00000000000E+00 0.  1.
         23    2    1    2    0    0  0.13527924055E+04 -0.84051653293E+03 -0.74432844495E+03  0.17604357942E+04  0.92703921004E+02 0.  0.
         13    1    3    3    0    0  0.18380916689E+03 -0.13878428569E+03 -0.13572824254E+03  0.26733694771E+03  0.00000000000E+00 0. -1.
        -13    1    3    3    0    0  0.11689832386E+04 -0.70173224723E+03 -0.60860020241E+03  0.14930988464E+04  0.00000000000E+00 0.  1.
         22    1    1    2    0    0 -0.13527924055E+04  0.84051653293E+03  0.54613777720E+03  0.16836810286E+04  0.00000000000E+00 0. -1.
<mgrwt>
<rscale>  0 0.34384097E+04</rscale>
<asrwt>0</asrwt>
<pdfrwt beam="1">  1        1 0.24968663E+00 0.34384097E+04</pdfrwt>
<pdfrwt beam="2">  1       -1 0.28017750E+00 0.34384097E+04</pdfrwt>
<totfact> 0.19587311E-01</totfact>
</mgrwt>
</event>
<event>
 6    1  0.1588846E-005  0.1572323E+04  0.7818608E-02  0.8837734E-01
         -1   -1    0    0    0  501 -0.00000000000E+00  0.00000000000E+00  0.58730190300E+03  0.58730190300E+03  0.00000000000E+00 0.  1.
          1   -1    0    0  501    0  0.00000000000E+00 -0.00000000000E+00 -0.10523540266E+04  0.10523540266E+04  0.00000000000E+00 0. -1.
         23    2    1    2    0    0  0.43212031859E+03 -0.64906602374E+03 -0.15394104153E+03  0.80012940932E+03  0.92165907373E+02 0.  0.
         13    1    3    3    0    0  0.41433550504E+03 -0.57746672494E+03 -0.12967586043E+03  0.72246630228E+03  0.00000000000E+00 0. -1.
        -13    1    3    3    0    0  0.17784813548E+02 -0.71599298800E+02 -0.24265181101E+02  0.77663107042E+02  0.00000000000E+00 0.  1.
         22    1    1    2    0    0 -0.43212031859E+03  0.64906602374E+03 -0.31111108209E+03  0.83952652031E+03  0.00000000000E+00 0.  1.
<mgrwt>
<rscale>  0 0.15723225E+04</rscale>
<asrwt>0</asrwt>
<pdfrwt beam="1">  1        1 0.16190062E+00 0.15723225E+04</pdfrwt>
<pdfrwt beam="2">  1       -1 0.90354140E-01 0.15723225E+04</pdfrwt>
<totfact> 0.15874850E+01</totfact>
</mgrwt>
</event>
<event>
 6    1  0.1588846E-005  0.9455834E+03  0.7818608E-02  0.9370328E-01
         -1   -1    0    0    0  501 -0.00000000000E+00  0.00000000000E+00  0.75396618644E+02  0.75396618644E+02  0.00000000000E+00 0.  1.
          1   -1    0    0  501    0  0.00000000000E+00 -0.00000000000E+00 -0.29647480454E+04  0.29647480454E+04  0.00000000000E+00 0. -1.
         23    2    1    2    0    0  0.17373318530E+03  0.13947239652E+03 -0.27827726255E+04  0.27931733905E+04  0.91423930994E+02 0.  0.
         11    1    3    3    0    0  0.11171883377E+03  0.67809012210E+02 -0.11003355027E+04  0.11080692119E+04  0.00000000000E+00 0.  1.
        -11    1    3    3    0    0  0.62014351525E+02  0.71663384312E+02 -0.16824371228E+04  0.16851041786E+04  0.00000000000E+00 0. -1.
         22    1    1    2    0    0 -0.17373318530E+03 -0.13947239652E+03 -0.10657880123E+03  0.24697127350E+03  0.00000000000E+00 0.  1.
<mgrwt>
<rscale>  0 0.94558337E+03</rscale>
<asrwt>0</asrwt>
<pdfrwt beam="1">  1        1 0.45611513E+00 0.94558337E+03</pdfrwt>
<pdfrwt beam="2">  1       -1 0.11599479E-01 0.94558337E+03</pdfrwt>
<totfact> 0.32601047E+01</totfact>
</mgrwt>
</event>
<event>
 6    1  0.1588846E-005  0.3525098E+04  0.7818608E-02  0.8107868E-01
         -2   -1    0    0    0  501 -0.00000000000E+00  0.00000000000E+00  0.18915835423E+04  0.18915835423E+04  0.00000000000E+00 0.  1.
          2   -1    0    0  501    0  0.00000000000E+00 -0.00000000000E+00 -0.16423163225E+04  0.16423163225E+04  0.00000000000E+00 0. -1.
         23    2    1    2    0    0 -0.45199365019E+03 -0.10407260313E+04 -0.12258340089E+04  0.16728967571E+04  0.92225867664E+02 0.  0.
         11    1    3    3    0    0 -0.25500287385E+03 -0.58277531362E+03 -0.61954098512E+03  0.88796653320E+03  0.00000000000E+00 0.  1.
        -11    1    3    3    0    0 -0.19699077635E+03 -0.45795071765E+03 -0.60629302376E+03  0.78493022392E+03  0.00000000000E+00 0. -1.
         22    1    1    2    0    0  0.45199365019E+03  0.10407260313E+04  0.14751012287E+04  0.18610031077E+04  0.00000000000E+00 0.  1.
<mgrwt>
<rscale>  0 0.35250977E+04</rscale>
<asrwt>0</asrwt>
<pdfrwt beam="1">  1        2 0.25266405E+00 0.35250977E+04</pdfrwt>
<pdfrwt beam="2">  1       -2 0.29101285E+00 0.35250977E+04</pdfrwt>
<totfact> 0.31236954E-01</totfact>
</mgrwt>
</event>
<event>
 6    1  0.1588846E-005  0.1573174E+04  0.7818608E-02  0.8837200E-01
         -2   -1    0    0    0  501 -0.00000000000E+00  0.00000000000E+00  0.36496841743E+03  0.36496841743E+03  0.00000000000E+00 0.  1.
          2   -1    0    0  501    0  0.00000000000E+00 -0.00000000000E+00 -0.16952669343E+04  0.16952669343E+04  0.00000000000E+00 0. -1.
         23    2    1    2    0    0 -0.71792386147E+03 -0.17605959489E+03 -0.10094523207E+04  0.12544103500E+04  0.90220212103E+02 0.  0.
         13    1    3    3    0    0 -0.18969826008E+03 -0.99623405118E+01 -0.23018087117E+03  0.29844247613E+03  0.00000000000E+00 0. -1.
        -13    1    3    3    0    0 -0.52822560139E+03 -0.16609725438E+03 -0.77927144949E+03  0.95596787386E+03  0.00000000000E+00 0.  1.
         22    1    1    2    0    0  0.71792386147E+03  0.17605959489E+03 -0.32084619622E+03  0.80582500175E+03  0.00000000000E+00 0. -1.
<mgrwt>
<rscale>  0 0.15731737E+04</rscale>
<asrwt>0</asrwt>
<pdfrwt beam="1">  1        2 0.26081030E+00 0.15731737E+04</pdfrwt>
<pdfrwt beam="2">  1       -2 0.56148987E-01 0.15731737E+04</pdfrwt>
<totfact> 0.28227709E+01</totfact>
</mgrwt>
</event>
<event>
 6    1  0.1588846E-005  0.2026126E+04  0.7818608E-02  0.8594502E-01
          3   -1    0    0  501    0  0.00000000000E+00  0.00000000000E+00  0.35583383231E+03  0.35583383231E+03  0.00000000000E+00 0. -1.
         -3   -1    0    0    0  501 -0.00000000000E+00 -0.00000000000E+00 -0.28842026481E+04  0.28842026481E+04  0.00000000000E+00 0.  1.
         23    2    1    2    0    0 -0.82919677929E+03 -0.74251497730E+02 -0.34966805297E+03  0.90769482498E+03  0.92528721656E+02 0.  0.
         13    1    3    3    0    0 -0.28223431842E+03  0.37859748612E+01 -0.83032294759E+02  0.29421914634E+03  0.00000000000E+00 0.  1.
        -13    1    3    3    0    0 -0.54696246087E+03 -0.78037472591E+02 -0.26663575821E+03  0.61347567864E+03  0.00000000000E+00 0. -1.
         22    1    1    2    0    0  0.82919677929E+03  0.74251497730E+02 -0.21787007628E+04  0.23323416554E+04  0.00000000000E+00 0.  1.
<mgrwt>
<rscale>  0 0.20261262E+04</rscale>
<asrwt>0</asrwt>
<pdfrwt beam="1">  1        3 0.54743668E-01 0.20261262E+04</pdfrwt>
<pdfrwt beam="2">  1       -3 0.44372348E+00 0.20261262E+04</pdfrwt>
<totfact> 0.48734022E-02</totfact>
</mgrwt>
</event>
<event>
 6    1  0.1588846E-005  0.2398280E+04  0.7818608E-02  0.8440148E-01
          1   -1    0    0  501    0  0.00000000000E+00  0.00000000000E+00  0.14643962223E+04  0.14643962223E+04  0.00000000000E+00 0. -1.
         -1   -1    0    0    0  501 -0.00000000000E+00 -0.00000000000E+00 -0.98193148553E+03  0.98193148553E+03  0.00000000000E+00 0.  1.
         23    2    1    2    0    0 -0.90825047085E+03 -0.16061860437E+03  0.10204262743E+04  0.13785637500E+04  0.91929199292E+02 0.  0.
         11    1    3    3    0    0 -0.55917572873E+03 -0.68153406757E+02  0.57198056088E+03  0.80279769835E+03  0.00000000000E+00 0.  1.
        -11    1    3    3    0    0 -0.34907474212E+03 -0.92465197612E+02  0.44844571340E+03  0.57576605165E+03  0.00000000000E+00 0. -1.
         22    1    1    2    0    0  0.90825047085E+03  0.16061860437E+03 -0.53796153749E+03  0.10677639579E+04  0.00000000000E+00 0.  1.
<mgrwt>
<rscale>  0 0.23982800E+04</rscale>
<asrwt>0</asrwt>
<pdfrwt beam="1">  1        1 0.22529173E+00 0.23982800E+04</pdfrwt>
<pdfrwt beam="2">  1       -1 0.15106638E+00 0.23982800E+04</pdfrwt>
<totfact> 0.21246189E+00</totfact>
</mgrwt>
</event>
<event>
 6    1  0.1588846E-005  0.7499618E+03  0.7818608E-02  0.9635410E-01
         -2   -1    0    0    0  501 -0.00000000000E+00  0.00000000000E+00  0.29686100636E+03  0.29686100636E+03  0.00000000000E+00 0.  1.
          2   -1    0    0  501    0  0.00000000000E+00 -0.00000000000E+00 -0.47365833126E+03  0.47365833126E+03  0.00000000000E+00 0. -1.
         23    2    1    2    0    0  0.36179266758E+03 -0.67791745786E+02 -0.12083374669E+03  0.39820015038E+03  0.92048412877E+02 0.  0.
         11    1    3    3    0    0  0.20343196437E+03 -0.31886132285E+02 -0.11469560249E+03  0.23570398976E+03  0.00000000000E+00 0. -1.
        -11    1    3    3    0    0  0.15836070320E+03 -0.35905613501E+02 -0.61381442009E+01  0.16249616061E+03  0.00000000000E+00 0.  1.
         22    1    1    2    0    0 -0.36179266758E+03  0.67791745786E+02 -0.55963578214E+02  0.37231918725E+03  0.00000000000E+00 0.  1.
<mgrwt>
<rscale>  0 0.74996184E+03</rscale>
<asrwt>0</asrwt>
<pdfrwt beam="1">  1        2 0.72870512E-01 0.74996184E+03</pdfrwt>
<pdfrwt beam="2">  1       -2 0.45670924E-01 0.74996184E+03</pdfrwt>
<totfact> 0.30046153E+02</totfact>
</mgrwt>
</event>
<event>
 6    1  0.1588846E-005  0.5661722E+03  0.7818608E-02  0.9978185E-01
          3   -1    0    0  501    0  0.00000000000E+00  0.00000000000E+00  0.35052504227E+03  0.35052504227E+03  0.00000000000E+00 0. -1.
         -3   -1    0    0    0  501 -0.00000000000E+00 -0.00000000000E+00 -0.22862200280E+03  0.22862200280E+03  0.00000000000E+00 0.  1.
         23    2    1    2    0    0 -0.75858699102E+02  0.14166642567E+03  0.29086702440E+03  0.34596740061E+03  0.96259534621E+02 0.  0.
         13    1    3    3    0    0  0.11288283860E+01  0.99517836738E+02  0.15756737123E+03  0.18636670990E+03  0.00000000000E+00 0. -1.
        -13    1    3    3    0    0 -0.76987527488E+02  0.42148588928E+02  0.13329965318E+03  0.15960069071E+03  0.00000000000E+00 0.  1.
         22    1    1    2    0    0  0.75858699102E+02 -0.14166642567E+03 -0.16896398493E+03  0.23317964447E+03  0.00000000000E+00 0.  1.
<mgrwt>
<rscale>  0 0.56617219E+03</rscale>
<asrwt>0</asrwt>
<pdfrwt beam="1">  1        3 0.53926930E-01 0.56617219E+03</pdfrwt>
<pdfrwt beam="2">  1       -3 0.35172616E-01 0.56617219E+03</pdfrwt>
<totfact> 0.71154930E+01</totfact>
</mgrwt>
</event>
<event>
 6    1  0.1588846E-005  0.1790231E+04  0.7818608E-02  0.8711512E-01
          2   -1    0    0  501    0  0.00000000000E+00  0.00000000000E+00  0.23917184101E+04  0.23917184101E+04  0.00000000000E+00 0. -1.
         -2   -1    0    0    0  501 -0.00000000000E+00 -0.00000000000E+00 -0.33500261103E+03  0.33500261103E+03  0.00000000000E+00 0.  1.
         23    2    1    2    0    0  0.52328365130E+03 -0.72370895120E+03  0.10861450349E+04  0.14077865899E+04  0.67613755684E+02 0.  0.
         13    1    3    3    0    0  0.11655965706E+03 -0.11896272362E+03  0.21610601734E+03  0.27283711990E+03  0.00000000000E+00 0.  1.
        -13    1    3    3    0    0  0.40672399424E+03 -0.60474622758E+03  0.87003901758E+03  0.11349494700E+04  0.00000000000E+00 0. -1.
         22    1    1    2    0    0 -0.52328365130E+03  0.72370895120E+03  0.97057076414E+03  0.13189344313E+04  0.00000000000E+00 0.  1.
<mgrwt>
<rscale>  0 0.17902312E+04</rscale>
<asrwt>0</asrwt>
<pdfrwt beam="1">  1        2 0.36795667E+00 0.17902312E+04</pdfrwt>
<pdfrwt beam="2">  1       -2 0.51538865E-01 0.17902312E+04</pdfrwt>
<totfact> 0.13515868E+01</totfact>
</mgrwt>
</event>
<event>
 6    1  0.1588846E-005  0.2756290E+04  0.7818608E-02  0.8316968E-01
          1   -1    0    0  501    0  0.00000000000E+00  0.00000000000E+00  0.22022394962E+04  0.22022394962E+04  0.00000000000E+00 0. -1.
         -1   -1    0    0    0  501 -0.00000000000E+00 -0.00000000000E+00 -0.86243301570E+03  0.86243301570E+03  0.00000000000E+00 0.  1.
         23    2    1    2    0    0 -0.12990891571E+04 -0.45177520683E+03  0.73871338529E+03  0.15636573938E+04  0.87140714275E+02 0.  0.
         13    1    3    3    0    0 -0.54316469393E+03 -0.15001342109E+03  0.32731369273E+03  0.65166415022E+03  0.00000000000E+00 0.  1.
        -13    1    3    3    0    0 -0.75592446318E+03 -0.30176178574E+03  0.41139969256E+03  0.91199324362E+03  0.00000000000E+00 0. -1.
         22    1    1    2    0    0  0.12990891571E+04  0.45177520683E+03  0.60109309526E+03  0.15010151181E+04  0.00000000000E+00 0.  1.
<mgrwt>
<rscale>  0 0.27562903E+04</rscale>
<asrwt>0</asrwt>
<pdfrwt beam="1">  1        1 0.33880607E+00 0.27562903E+04</pdfrwt>
<pdfrwt beam="2">  1       -1 0.13268200E+00 0.27562903E+04</pdfrwt>
<totfact> 0.90811363E-01</totfact>
</mgrwt>
</event>
<event>
 6    1  0.1588846E-005  0.2857033E+04  0.7818608E-02  0.8285778E-01
          2   -1    0    0  501    0  0.00000000000E+00  0.00000000000E+00  0.16834874836E+04  0.16834874836E+04  0.00000000000E+00 0.  1.
         -2   -1    0    0    0  501 -0.00000000000E+00 -0.00000000000E+00 -0.12121615126E+04  0.12121615126E+04  0.00000000000E+00 0. -1.
         23    2    1    2    0    0 -0.20563224321E+03 -0.72337548329E+03  0.14649585067E+04  0.16495100291E+04  0.96037494645E+02 0.  0.
         13    1    3    3    0    0 -0.34365885444E+02 -0.38954838421E+02  0.11917471734E+03  0.13000425674E+03  0.00000000000E+00 0.  1.
        -13    1    3    3    0    0 -0.17126635777E+03 -0.68442064487E+03  0.13457837894E+04  0.15195057724E+04  0.00000000000E+00 0. -1.
         22    1    1    2    0    0  0.20563224321E+03  0.72337548329E+03 -0.99363253568E+03  0.12461389671E+04  0.00000000000E+00 0. -1.
<mgrwt>
<rscale>  0 0.28570325E+04</rscale>
<asrwt>0</asrwt>
<pdfrwt beam="1">  1        2 0.25899807E+00 0.28570325E+04</pdfrwt>
<pdfrwt beam="2">  1       -2 0.18648639E+00 0.28570325E+04</pdfrwt>
<totfact> 0.14203850E+00</totfact>
</mgrwt>
</event>
<event>
 6    1  0.1588846E-005  0.3522867E+04  0.7818608E-02  0.8108392E-01
          2   -1    0    0  501    0  0.00000000000E+00  0.00000000000E+00  0.19426174838E+04  0.19426174838E+04  0.00000000000E+00 0. -1.
         -2   -1    0    0    0  501 -0.00000000000E+00 -0.00000000000E+00 -0.15971477262E+04  0.15971477262E+04  0.00000000000E+00 0.  1.
         23    2    1    2    0    0 -0.14900745205E+03  0.42712026693E+03  0.18821622088E+04  0.19378730061E+04  0.90455869034E+02 0.  0.
         13    1    3    3    0    0 -0.14011313363E+03  0.28110551693E+03  0.13404830281E+04  0.13767885642E+04  0.00000000000E+00 0.  1.
        -13    1    3    3    0    0 -0.88943184165E+01  0.14601475000E+03  0.54167918072E+03  0.56108444190E+03  0.00000000000E+00 0. -1.
         22    1    1    2    0    0  0.14900745205E+03 -0.42712026693E+03 -0.15366924513E+04  0.16018922039E+04  0.00000000000E+00 0.  1.
<mgrwt>
<rscale>  0 0.35228665E+04</rscale>
<asrwt>0</asrwt>
<pdfrwt beam="1">  1        2 0.29886423E+00 0.35228665E+04</pdfrwt>
<pdfrwt beam="2">  1       -2 0.24571503E+00 0.35228665E+04</pdfrwt>
<totfact> 0.40277372E-01</totfact>
</mgrwt>
</event>
<event>
 6    1  0.1588846E-005  0.4304475E+04  0.7818608E-02  0.7945791E-01
         -2   -1    0    0    0  501 -0.00000000000E+00  0.00000000000E+00  0.15512489147E+04  0.15512489147E+04  0.00000000000E+00 0. -1.
          2   -1    0    0  501    0  0.00000000000E+00 -0.00000000000E+00 -0.29860627390E+04  0.29860627390E+04  0.00000000000E+00 0.  1.
         23    2    1    2    0    0  0.14928556962E+04 -0.70518047372E+03 -0.21714656635E+04  0.27293975068E+04  0.91923839258E+02 0.  0.
         11    1    3    3    0    0  0.73299629009E+03 -0.31413874927E+03 -0.11070327540E+04  0.13643636734E+04  0.00000000000E+00 0. -1.
        -11    1    3    3    0    0  0.75985940610E+03 -0.39104172446E+03 -0.10644329095E+04  0.13650338334E+04  0.00000000000E+00 0.  1.
         22    1    1    2    0    0 -0.14928556962E+04  0.70518047372E+03  0.73665183918E+03  0.18079141468E+04  0.00000000000E+00 0. -1.
<mgrwt>
<rscale>  0 0.43044752E+04</rscale>
<asrwt>0</asrwt>
<pdfrwt beam="1">  1        2 0.45939426E+00 0.43044752E+04</pdfrwt>
<pdfrwt beam="2">  1       -2 0.23865368E+00 0.43044752E+04</pdfrwt>
<totfact> 0.10320764E-01</totfact>
</mgrwt>
</event>
<event>
 6    1  0.1588846E-005  0.2973797E+04  0.7818608E-02  0.8251253E-01
          1   -1    0    0  501    0  0.00000000000E+00  0.00000000000E+00  0.22641589282E+04  0.22641589282E+04  0.00000000000E+00 0. -1.
         -1   -1    0    0    0  501 -0.00000000000E+00 -0.00000000000E+00 -0.97646294439E+03  0.97646294439E+03  0.00000000000E+00 0.  1.
         23    2    1    2    0    0  0.75481749382E+03  0.99218866438E+03  0.15238337457E+04  0.19717842797E+04  0.10805631146E+03 0.  0.
         11    1    3    3    0    0  0.19567888396E+03  0.21368763000E+03  0.29702597819E+03  0.41494223762E+03  0.00000000000E+00 0. -1.
        -11    1    3    3    0    0  0.55913860986E+03  0.77850103437E+03  0.12268077675E+04  0.15568420421E+04  0.00000000000E+00 0.  1.
         22    1    1    2    0    0 -0.75481749382E+03 -0.99218866438E+03 -0.23613776183E+03  0.12688375929E+04  0.00000000000E+00 0.  1.
<mgrwt>
<rscale>  0 0.29737971E+04</rscale>
<asrwt>0</asrwt>
<pdfrwt beam="1">  1        1 0.34833214E+00 0.29737971E+04</pdfrwt>
<pdfrwt beam="2">  1       -1 0.15022507E+00 0.29737971E+04</pdfrwt>
<totfact> 0.58359466E-01</totfact>
</mgrwt>
</event>
<event>
 6    1  0.1919556E-005  0.3570891E+04  0.7818608E-02  0.8097192E-01
         -1   -1    0    0    0  501 -0.00000000000E+00  0.00000000000E+00  0.19807491949E+04  0.19807491949E+04  0.00000000000E+00 0.  1.
          1   -1    0    0  501    0  0.00000000000E+00 -0.00000000000E+00 -0.16093988805E+04  0.16093988805E+04  0.00000000000E+00 0. -1.
         23    2    1    2    0    0  0.78550100929E+03  0.15852822331E+04 -0.47274857257E+02  0.17720780469E+04  0.88848735720E+02 0.  0.
         11    1    3    3    0    0  0.29132193309E+03  0.56197501286E+03  0.24089204512E+02  0.63345455524E+03  0.00000000000E+00 0. -1.
        -11    1    3    3    0    0  0.49417907621E+03  0.10233072203E+04 -0.71364061769E+02  0.11386234916E+04  0.00000000000E+00 0.  1.
         22    1    1    2    0    0 -0.78550100929E+03 -0.15852822331E+04  0.41862517167E+03  0.18180700285E+04  0.00000000000E+00 0.  1.
<mgrwt>
<rscale>  0 0.35708909E+04</rscale>
<asrwt>0</asrwt>
<pdfrwt beam="1">  1        1 0.24759983E+00 0.35708909E+04</pdfrwt>
<pdfrwt beam="2">  1       -1 0.30473064E+00 0.35708909E+04</pdfrwt>
<totfact> 0.13718049E-01</totfact>
</mgrwt>
</event>
<event>
 6    1  0.1588846E-005  0.2784668E+04  0.7818608E-02  0.8308044E-01
          2   -1    0    0  501    0  0.00000000000E+00  0.00000000000E+00  0.18042216270E+04  0.18042216270E+04  0.00000000000E+00 0. -1.
         -2   -1    0    0    0  501 -0.00000000000E+00 -0.00000000000E+00 -0.10744767940E+04  0.10744767940E+04  0.00000000000E+00 0.  1.
         23    2    1    2    0    0  0.64402842695E+02  0.13814660808E+04  0.21231045358E+03  0.14021028109E+04  0.90665898223E+02 0.  0.
         11    1    3    3    0    0  0.85303203666E+02  0.11964968124E+04  0.17458438495E+03  0.12121720035E+04  0.00000000000E+00 0. -1.
        -11    1    3    3    0    0 -0.20900360971E+02  0.18496926837E+03  0.37726068631E+02  0.18993080736E+03  0.00000000000E+00 0.  1.
         22    1    1    2    0    0 -0.64402842695E+02 -0.13814660808E+04  0.51743437941E+03  0.14765956100E+04  0.00000000000E+00 0. -1.
<mgrwt>
<rscale>  0 0.27846682E+04</rscale>
<asrwt>0</asrwt>
<pdfrwt beam="1">  1        2 0.27757256E+00 0.27846682E+04</pdfrwt>
<pdfrwt beam="2">  1       -2 0.16530412E+00 0.27846682E+04</pdfrwt>
<totfact> 0.17226214E+00</totfact>
</mgrwt>
</event>
<event>
 6    1  0.1588846E-005  0.1807108E+04  0.7818608E-02  0.8702529E-01
          2   -1    0    0  501    0  0.00000000000E+00  0.00000000000E+00  0.13768939266E+04  0.13768939266E+04  0.00000000000E+00 0. -1.
         -2   -1    0    0    0  501 -0.00000000000E+00 -0.00000000000E+00 -0.59293584989E+03  0.59293584989E+03  0.00000000000E+00 0.  1.
         23    2    1    2    0    0 -0.28600861101E+03  0.32852450245E+03 -0.46708840461E+03  0.64512355521E+03  0.91014007093E+02 0.  0.
         13    1    3    3    0    0 -0.22455587246E+03  0.24468054244E+03 -0.29568755606E+03  0.44466283690E+03  0.00000000000E+00 0. -1.
        -13    1    3    3    0    0 -0.61452738542E+02  0.83843960013E+02 -0.17140084855E+03  0.20046071832E+03  0.00000000000E+00 0.  1.
         22    1    1    2    0    0  0.28600861101E+03 -0.32852450245E+03  0.12510464813E+04  0.13247062212E+04  0.00000000000E+00 0. -1.
<mgrwt>
<rscale>  0 0.18071079E+04</rscale>
<asrwt>0</asrwt>
<pdfrwt beam="1">  1        2 0.21182983E+00 0.18071079E+04</pdfrwt>
<pdfrwt beam="2">  1       -2 0.91220901E-01 0.18071079E+04</pdfrwt>
<totfact> 0.14421665E+01</totfact>
</mgrwt>
</event>
<event>
 6    1  0.1588846E-005  0.2075194E+04  0.7818608E-02  0.8572250E-01
         -1   -1    0    0    0  501 -0.00000000000E+00  0.00000000000E+00  0.99289156681E+03  0.99289156681E+03  0.00000000000E+00 0.  1.
          1   -1    0    0  501    0  0.00000000000E+00 -0.00000000000E+00 -0.10843149403E+04  0.10843149403E+04  0.00000000000E+00 0. -1.
         23    2    1    2    0    0 -0.28073990378E+03 -0.96895567299E+03 -0.27995234059E+03  0.10509350219E+04  0.91657610054E+02 0.  0.
         13    1    3    3    0    0 -0.13358326322E+03 -0.51343842532E+03 -0.10210109443E+03  0.54026672884E+03  0.00000000000E+00 0.  1.
        -13    1    3    3    0    0 -0.14715664056E+03 -0.45551724766E+03 -0.17785124616E+03  0.51066829306E+03  0.00000000000E+00 0. -1.
         22    1    1    2    0    0  0.28073990378E+03  0.96895567299E+03  0.18852896714E+03  0.10262714852E+04  0.00000000000E+00 0.  1.
<mgrwt>
<rscale>  0 0.20751936E+04</rscale>
<asrwt>0</asrwt>
<pdfrwt beam="1">  1        1 0.16681768E+00 0.20751936E+04</pdfrwt>
<pdfrwt beam="2">  1       -1 0.15275255E+00 0.20751936E+04</pdfrwt>
<totfact> 0.39886841E+00</totfact>
</mgrwt>
</event>
<event>
 6    1  0.1588846E-005  0.4344959E+04  0.7818608E-02  0.7938357E-01
          2   -1    0    0  501    0  0.00000000000E+00  0.00000000000E+00  0.38001827818E+04  0.38001827818E+04  0.00000000000E+00 0. -1.
         -2   -1    0    0    0  501 -0.00000000000E+00 -0.00000000000E+00 -0.12419579345E+04  0.12419579345E+04  0.00000000000E+00 0.  1.
         23    2    1    2    0    0  0.11594755266E+04  0.35656912146E+03  0.33697968244E+04  0.35826291168E+04  0.90419665409E+02 0.  0.
         11    1    3    3    0    0  0.83982779306E+03  0.26179423900E+03  0.23209325071E+04  0.24820504927E+04  0.00000000000E+00 0.  1.
        -11    1    3    3    0    0  0.31964773357E+03  0.94774882459E+02  0.10488643173E+04  0.11005786242E+04  0.00000000000E+00 0. -1.
         22    1    1    2    0    0 -0.11594755266E+04 -0.35656912146E+03 -0.81157197706E+03  0.14595115995E+04  0.00000000000E+00 0.  1.
<mgrwt>
<rscale>  0 0.43449590E+04</rscale>
<asrwt>0</asrwt>
<pdfrwt beam="1">  1        2 0.58464350E+00 0.43449590E+04</pdfrwt>
<pdfrwt beam="2">  1       -2 0.19107045E+00 0.43449590E+04</pdfrwt>
<totfact> 0.57254389E-02</totfact>
</mgrwt>
</event>
<event>
 6    1  0.1588846E-005  0.2672451E+04  0.7818608E-02  0.8343999E-01
          1   -1    0    0  501    0  0.00000000000E+00  0.00000000000E+00  0.17295220832E+04  0.17295220832E+04  0.00000000000E+00 0. -1.
         -1   -1    0    0    0  501 -0.00000000000E+00 -0.00000000000E+00 -0.10323655936E+04  0.10323655936E+04  0.00000000000E+00 0.  1.
         23    2    1    2    0    0 -0.45580151594E+03  0.92843532035E+03  0.12207574020E+04  0.16026184754E+04  0.91597910474E+02 0.  0.
         11    1    3    3    0    0 -0.20103245526E+03  0.31793798436E+03  0.41554695707E+03  0.56051572993E+03  0.00000000000E+00 0. -1.
        -11    1    3    3    0    0 -0.25476906068E+03  0.61049733599E+03  0.80521044489E+03  0.10421027455E+04  0.00000000000E+00 0.  1.
         22    1    1    2    0    0  0.45580151594E+03 -0.92843532035E+03 -0.52360091237E+03  0.11592692015E+04  0.00000000000E+00 0.  1.
<mgrwt>
<rscale>  0 0.26724514E+04</rscale>
<asrwt>0</asrwt>
<pdfrwt beam="1">  1        1 0.26608032E+00 0.26724514E+04</pdfrwt>
<pdfrwt beam="2">  1       -1 0.15882548E+00 0.26724514E+04</pdfrwt>
<totfact> 0.11879421E+00</totfact>
</mgrwt>
</event>
<event>
 6    1  0.1588846E-005  0.1395100E+04  0.7818608E-02  0.8957373E-01
         -1   -1    0    0    0  501 -0.00000000000E+00  0.00000000000E+00  0.32674759389E+03  0.32674759389E+03  0.00000000000E+00 0.  1.
          1   -1    0    0  501    0  0.00000000000E+00 -0.00000000000E+00 -0.14891504437E+04  0.14891504437E+04  0.00000000000E+00 0. -1.
         23    2    1    2    0    0 -0.56679043612E+03 -0.39638938554E+03 -0.66616033592E+03  0.96464450541E+03  0.91615965958E+02 0.  0.
         11    1    3    3    0    0 -0.33030247513E+03 -0.28354934128E+03 -0.43042125168E+03  0.61217841184E+03  0.00000000000E+00 0. -1.
        -11    1    3    3    0    0 -0.23648796099E+03 -0.11284004425E+03 -0.23573908424E+03  0.35246609357E+03  0.00000000000E+00 0.  1.
         22    1    1    2    0    0  0.56679043612E+03  0.39638938554E+03 -0.49624251387E+03  0.85125353216E+03  0.00000000000E+00 0.  1.
<mgrwt>
<rscale>  0 0.13951005E+04</rscale>
<asrwt>0</asrwt>
<pdfrwt beam="1">  1        1 0.22910006E+00 0.13951005E+04</pdfrwt>
<pdfrwt beam="2">  1       -1 0.50268862E-01 0.13951005E+04</pdfrwt>
<totfact> 0.25793022E+01</totfact>
</mgrwt>
</event>
<event>
 6    1  0.1588846E-005  0.8119525E+03  0.7818608E-02  0.9542876E-01
          1   -1    0    0  501    0  0.00000000000E+00  0.00000000000E+00  0.36014238367E+03  0.36014238367E+03  0.00000000000E+00 0. -1.
         -1   -1    0    0    0  501 -0.00000000000E+00 -0.00000000000E+00 -0.45764320980E+03  0.45764320980E+03  0.00000000000E+00 0.  1.
         23    2    1    2    0    0  0.44794860197E+02  0.19341625344E+03 -0.40005484957E+03  0.45590804002E+03  0.91606941297E+02 0.  0.
         13    1    3    3    0    0  0.28061737367E+02  0.14434609049E+02 -0.11203036015E+03  0.11638995076E+03  0.00000000000E+00 0.  1.
        -13    1    3    3    0    0  0.16733122830E+02  0.17898164439E+03 -0.28802448942E+03  0.33951808926E+03  0.00000000000E+00 0. -1.
         22    1    1    2    0    0 -0.44794860197E+02 -0.19341625344E+03  0.30255402344E+03  0.36187755346E+03  0.00000000000E+00 0. -1.
<mgrwt>
<rscale>  0 0.81195250E+03</rscale>
<asrwt>0</asrwt>
<pdfrwt beam="1">  1        1 0.55406521E-01 0.81195250E+03</pdfrwt>
<pdfrwt beam="2">  1       -1 0.70406647E-01 0.81195250E+03</pdfrwt>
<totfact> 0.14230032E+02</totfact>
</mgrwt>
</event>
<event>
 6    1  0.1588846E-005  0.3674783E+04  0.7818608E-02  0.8073573E-01
          1   -1    0    0  501    0  0.00000000000E+00  0.00000000000E+00  0.18318189662E+04  0.18318189662E+04  0.00000000000E+00 0. -1.
         -1   -1    0    0    0  501 -0.00000000000E+00 -0.00000000000E+00 -0.18429805147E+04  0.18429805147E+04  0.00000000000E+00 0.  1.
         23    2    1    2    0    0  0.11485621560E+03  0.43262119856E+03  0.17752534367E+04  0.18331612017E+04  0.92747912665E+02 0.  0.
         13    1    3    3    0    0  0.10230564042E+03  0.34625499847E+03  0.15522795938E+04  0.15937160680E+04  0.00000000000E+00 0. -1.
        -13    1    3    3    0    0  0.12550575186E+02  0.86366200091E+02  0.22297384288E+03  0.23944513372E+03  0.00000000000E+00 0.  1.
         22    1    1    2    0    0 -0.11485621560E+03 -0.43262119856E+03 -0.17864149853E+04  0.18416382792E+04  0.00000000000E+00 0.  1.
<mgrwt>
<rscale>  0 0.36747825E+04</rscale>
<asrwt>0</asrwt>
<pdfrwt beam="1">  1        1 0.28181830E+00 0.36747825E+04</pdfrwt>
<pdfrwt beam="2">  1       -1 0.28353546E+00 0.36747825E+04</pdfrwt>
<totfact> 0.13158189E-01</totfact>
</mgrwt>
</event>
<event>
 6    1  0.1588846E-005  0.2823412E+04  0.7818608E-02  0.8296037E-01
         -2   -1    0    0    0  501 -0.00000000000E+00  0.00000000000E+00  0.85329458932E+03  0.85329458932E+03  0.00000000000E+00 0.  1.
          2   -1    0    0  501    0  0.00000000000E+00 -0.00000000000E+00 -0.23355513098E+04  0.23355513098E+04  0.00000000000E+00 0. -1.
         23    2    1    2    0    0 -0.55487530894E+03 -0.83747460521E+03 -0.18607234782E+04  0.21153062355E+04  0.54573662604E+02 0.  0.
         13    1    3    3    0    0 -0.14891795098E+03 -0.19266273972E+03 -0.41919721066E+03  0.48479045868E+03  0.00000000000E+00 0.  1.
        -13    1    3    3    0    0 -0.40595735796E+03 -0.64481186549E+03 -0.14415262675E+04  0.16305157768E+04  0.00000000000E+00 0. -1.
         22    1    1    2    0    0  0.55487530894E+03  0.83747460521E+03  0.37846675768E+03  0.10735396637E+04  0.00000000000E+00 0.  1.
<mgrwt>
<rscale>  0 0.28234116E+04</rscale>
<asrwt>0</asrwt>
<pdfrwt beam="1">  1        2 0.35931558E+00 0.28234116E+04</pdfrwt>
<pdfrwt beam="2">  1       -2 0.13127609E+00 0.28234116E+04</pdfrwt>
<totfact> 0.15920677E+00</totfact>
</mgrwt>
</event>
<event>
 6    1  0.1588846E-005  0.1264445E+04  0.7818608E-02  0.9058246E-01
          1   -1    0    0  501    0  0.00000000000E+00  0.00000000000E+00  0.26382435367E+03  0.26382435367E+03  0.00000000000E+00 0. -1.
         -1   -1    0    0    0  501 -0.00000000000E+00 -0.00000000000E+00 -0.15150431430E+04  0.15150431430E+04  0.00000000000E+00 0.  1.
         23    2    1    2    0    0  0.60647465724E+03 -0.15089691650E+03 -0.72653035599E+03  0.96285319448E+03  0.93051204523E+02 0.  0.
         13    1    3    3    0    0  0.44451714897E+03 -0.13839059357E+03 -0.58305211547E+03  0.74612145222E+03  0.00000000000E+00 0.  1.
        -13    1    3    3    0    0  0.16195750827E+03 -0.12506322931E+02 -0.14347824052E+03  0.21673174226E+03  0.00000000000E+00 0. -1.
         22    1    1    2    0    0 -0.60647465724E+03  0.15089691650E+03 -0.52468843334E+03  0.81601430219E+03  0.00000000000E+00 0.  1.
<mgrwt>
<rscale>  0 0.12644450E+04</rscale>
<asrwt>0</asrwt>
<pdfrwt beam="1">  1        1 0.40588361E-01 0.12644450E+04</pdfrwt>
<pdfrwt beam="2">  1       -1 0.23308356E+00 0.12644450E+04</pdfrwt>
<totfact> 0.92070953E+00</totfact>
</mgrwt>
</event>
<event>
 6    1  0.1588846E-005  0.1508133E+04  0.7818608E-02  0.8879062E-01
         -1   -1    0    0    0  501 -0.00000000000E+00  0.00000000000E+00  0.65186000902E+03  0.65186000902E+03  0.00000000000E+00 0.  1.
          1   -1    0    0  501    0  0.00000000000E+00 -0.00000000000E+00 -0.87229866073E+03  0.87229866073E+03  0.00000000000E+00 0. -1.
         23    2    1    2    0    0 -0.67581311396E+03 -0.23899986204E+03 -0.33821550912E+03  0.79771824742E+03  0.90113110075E+02 0.  0.
         11    1    3    3    0    0 -0.62799610775E+03 -0.22336693162E+03 -0.33815784674E+03  0.74741061459E+03  0.00000000000E+00 0. -1.
        -11    1    3    3    0    0 -0.47817006204E+02 -0.15632930425E+02 -0.57662380771E-01  0.50307632830E+02  0.00000000000E+00 0.  1.
         22    1    1    2    0    0  0.67581311396E+03  0.23899986204E+03  0.11777685740E+03  0.72644042233E+03  0.00000000000E+00 0.  1.
<mgrwt>
<rscale>  0 0.15081334E+04</rscale>
<asrwt>0</asrwt>
<pdfrwt beam="1">  1        1 0.13419979E+00 0.15081334E+04</pdfrwt>
<pdfrwt beam="2">  1       -1 0.10028616E+00 0.15081334E+04</pdfrwt>
<totfact> 0.17565432E+01</totfact>
</mgrwt>
</event>
<event>
 6    1  0.1588846E-005  0.3736980E+04  0.7818608E-02  0.8059816E-01
          2   -1    0    0  501    0  0.00000000000E+00  0.00000000000E+00  0.29050341245E+04  0.29050341245E+04  0.00000000000E+00 0. -1.
         -2   -1    0    0    0  501 -0.00000000000E+00 -0.00000000000E+00 -0.12017947391E+04  0.12017947391E+04  0.00000000000E+00 0.  1.
         23    2    1    2    0    0  0.11353866601E+04 -0.78530868071E+03  0.22340265739E+04  0.26277928156E+04  0.92777998117E+02 0.  0.
         13    1    3    3    0    0  0.70100554109E+03 -0.45051148529E+03  0.14141449597E+04  0.16413943262E+04  0.00000000000E+00 0. -1.
        -13    1    3    3    0    0  0.43438111898E+03 -0.33479719542E+03  0.81988161419E+03  0.98639848940E+03  0.00000000000E+00 0.  1.
         22    1    1    2    0    0 -0.11353866601E+04  0.78530868071E+03 -0.53078718855E+03  0.14790360480E+04  0.00000000000E+00 0.  1.
<mgrwt>
<rscale>  0 0.37369799E+04</rscale>
<asrwt>0</asrwt>
<pdfrwt beam="1">  1        2 0.44692833E+00 0.37369799E+04</pdfrwt>
<pdfrwt beam="2">  1       -2 0.18489150E+00 0.37369799E+04</pdfrwt>
<totfact> 0.26969525E-01</totfact>
</mgrwt>
</event>
<event>
 6    1  0.1588846E-005  0.7376779E+04  0.7818608E-02  0.7539779E-01
          1   -1    0    0  501    0  0.00000000000E+00  0.00000000000E+00  0.27907175267E+04  0.27907175267E+04  0.00000000000E+00 0. -1.
         -1   -1    0    0    0  501 -0.00000000000E+00 -0.00000000000E+00 -0.48748094257E+04  0.48748094257E+04  0.00000000000E+00 0.  1.
         23    2    1    2    0    0  0.31494830280E+04  0.12259440903E+04 -0.25757845338E+04  0.42502752920E+04  0.89397074421E+02 0.  0.
         11    1    3    3    0    0  0.12980827620E+04  0.49259018891E+03 -0.10050249921E+04  0.17139834264E+04  0.00000000000E+00 0. -1.
        -11    1    3    3    0    0  0.18514002660E+04  0.73335390138E+03 -0.15707595417E+04  0.25362918656E+04  0.00000000000E+00 0.  1.
         22    1    1    2    0    0 -0.31494830280E+04 -0.12259440903E+04  0.49169263487E+03  0.34152516604E+04  0.00000000000E+00 0. -1.
<mgrwt>
<rscale>  0 0.73767787E+04</rscale>
<asrwt>0</asrwt>
<pdfrwt beam="1">  1        1 0.42934116E+00 0.73767787E+04</pdfrwt>
<pdfrwt beam="2">  1       -1 0.74997067E+00 0.73767787E+04</pdfrwt>
<totfact> 0.66342883E-05</totfact>
</mgrwt>
</event>
<event>
 6    1  0.1588846E-005  0.1359699E+04  0.7818608E-02  0.8983518E-01
          2   -1    0    0  501    0  0.00000000000E+00  0.00000000000E+00  0.13289251548E+04  0.13289251548E+04  0.00000000000E+00 0. -1.
         -2   -1    0    0    0  501 -0.00000000000E+00 -0.00000000000E+00 -0.34779643595E+03  0.34779643595E+03  0.00000000000E+00 0.  1.
         23    2    1    2    0    0  0.12398863347E+03  0.23246347733E+03  0.12615828442E+04  0.12919268845E+04  0.89840706638E+02 0.  0.
         13    1    3    3    0    0  0.77602824051E+02  0.19290905323E+03  0.81067895132E+03  0.83692082256E+03  0.00000000000E+00 0. -1.
        -13    1    3    3    0    0  0.46385809421E+02  0.39554424105E+02  0.45090389291E+03  0.45500606196E+03  0.00000000000E+00 0.  1.
         22    1    1    2    0    0 -0.12398863347E+03 -0.23246347733E+03 -0.28045412536E+03  0.38479470625E+03  0.00000000000E+00 0.  1.
<mgrwt>
<rscale>  0 0.13596991E+04</rscale>
<asrwt>0</asrwt>
<pdfrwt beam="1">  1        2 0.20445002E+00 0.13596991E+04</pdfrwt>
<pdfrwt beam="2">  1       -2 0.53507145E-01 0.13596991E+04</pdfrwt>
<totfact> 0.51087850E+01</totfact>
</mgrwt>
</event>
<event>
 6    1  0.1588846E-005  0.1644032E+04  0.7818608E-02  0.8793945E-01
         -4   -1    0    0    0  501 -0.00000000000E+00  0.00000000000E+00  0.10390342602E+04  0.10390342602E+04  0.00000000000E+00 0.  1.
          4   -1    0    0  501    0  0.00000000000E+00 -0.00000000000E+00 -0.65032516567E+03  0.65032516567E+03  0.00000000000E+00 0. -1.
         23    2    1    2    0    0 -0.61488936122E+03 -0.24033194366E+03  0.69375643075E+03  0.96210276763E+03  0.92170388889E+02 0.  0.
         11    1    3    3    0    0 -0.10759990388E+03 -0.83899720956E+01  0.94993989443E+02  0.14377756771E+03  0.00000000000E+00 0. -1.
        -11    1    3    3    0    0 -0.50728945735E+03 -0.23194197157E+03  0.59876244131E+03  0.81832519992E+03  0.00000000000E+00 0.  1.
         22    1    1    2    0    0  0.61488936122E+03  0.24033194366E+03 -0.30504733618E+03  0.72725665827E+03  0.00000000000E+00 0. -1.
<mgrwt>
<rscale>  0 0.16440318E+04</rscale>
<asrwt>0</asrwt>
<pdfrwt beam="1">  1        4 0.10005003E+00 0.16440318E+04</pdfrwt>
<pdfrwt beam="2">  1       -4 0.15985142E+00 0.16440318E+04</pdfrwt>
<totfact> 0.39548184E-01</totfact>
</mgrwt>
</event>
<event>
 6    1  0.1588846E-005  0.2445062E+04  0.7818608E-02  0.8422823E-01
         -1   -1    0    0    0  501 -0.00000000000E+00  0.00000000000E+00  0.11212405331E+04  0.11212405331E+04  0.00000000000E+00 0.  1.
          1   -1    0    0  501    0  0.00000000000E+00 -0.00000000000E+00 -0.13329720167E+04  0.13329720167E+04  0.00000000000E+00 0. -1.
         23    2    1    2    0    0  0.72635209948E+03  0.92241155556E+03  0.22958682496E+03  0.11999429217E+04  0.93394084325E+02 0.  0.
         11    1    3    3    0    0  0.33046923693E+03  0.44834078364E+03  0.64955352267E+02  0.56074822569E+03  0.00000000000E+00 0. -1.
        -11    1    3    3    0    0  0.39588286255E+03  0.47407077192E+03  0.16463147270E+03  0.63919469605E+03  0.00000000000E+00 0.  1.
         22    1    1    2    0    0 -0.72635209948E+03 -0.92241155556E+03 -0.44131830855E+03  0.12542696280E+04  0.00000000000E+00 0. -1.
<mgrwt>
<rscale>  0 0.24450622E+04</rscale>
<asrwt>0</asrwt>
<pdfrwt beam="1">  1        1 0.20507262E+00 0.24450622E+04</pdfrwt>
<pdfrwt beam="2">  1       -1 0.17249854E+00 0.24450622E+04</pdfrwt>
<totfact> 0.18044341E+00</totfact>
</mgrwt>
</event>
<event>
 6    1  0.2869094E-005  0.3254289E+04  0.7818608E-02  0.8174625E-01
         -1   -1    0    0    0  501 -0.00000000000E+00  0.00000000000E+00  0.14519810240E+04  0.14519810240E+04  0.00000000000E+00 0.  1.
          1   -1    0    0  501    0  0.00000000000E+00 -0.00000000000E+00 -0.18234394719E+04  0.18234394719E+04  0.00000000000E+00 0. -1.
         23    2    1    2    0    0  0.28669794797E+03  0.24807186065E+03  0.14054192949E+04  0.14585468421E+04  0.91761291857E+02 0.  0.
         11    1    3    3    0    0  0.19243902488E+03  0.11814452611E+03  0.71985747004E+03  0.75444395718E+03  0.00000000000E+00 0. -1.
        -11    1    3    3    0    0  0.94258923090E+02  0.12992733454E+03  0.68556182484E+03  0.70410288489E+03  0.00000000000E+00 0.  1.
         22    1    1    2    0    0 -0.28669794797E+03 -0.24807186065E+03 -0.17768777427E+04  0.18168736538E+04  0.00000000000E+00 0. -1.
<mgrwt>
<rscale>  0 0.32542892E+04</rscale>
<asrwt>0</asrwt>
<pdfrwt beam="1">  1        1 0.28052915E+00 0.32542892E+04</pdfrwt>
<pdfrwt beam="2">  1       -1 0.22338170E+00 0.32542892E+04</pdfrwt>
<totfact> 0.34168726E-01</totfact>
</mgrwt>
</event>
<event>
 6    1  0.1588846E-005  0.5580723E+03  0.7818608E-02  0.9996426E-01
         -2   -1    0    0    0  501 -0.00000000000E+00  0.00000000000E+00  0.46392403406E+02  0.46392403406E+02  0.00000000000E+00 0.  1.
          2   -1    0    0  501    0  0.00000000000E+00 -0.00000000000E+00 -0.16783170534E+04  0.16783170534E+04  0.00000000000E+00 0. -1.
         23    2    1    2    0    0 -0.22355527756E+03 -0.15103154012E+03 -0.74015435044E+03  0.79302187215E+03  0.90927108128E+02 0.  0.
         13    1    3    3    0    0 -0.14987055041E+03 -0.61987958199E+02 -0.51502485449E+03  0.53995767388E+03  0.00000000000E+00 0. -1.
        -13    1    3    3    0    0 -0.73684727154E+02 -0.89043581926E+02 -0.22512949595E+03  0.25306419827E+03  0.00000000000E+00 0.  1.
         22    1    1    2    0    0  0.22355527756E+03  0.15103154012E+03 -0.89177029957E+03  0.93168758468E+03  0.00000000000E+00 0. -1.
<mgrwt>
<rscale>  0 0.55807226E+03</rscale>
<asrwt>0</asrwt>
<pdfrwt beam="1">  1        2 0.25820261E+00 0.55807226E+03</pdfrwt>
<pdfrwt beam="2">  1       -2 0.71372932E-02 0.55807226E+03</pdfrwt>
<totfact> 0.12194415E+03</totfact>
</mgrwt>
</event>
<event>
 6    1  0.1588846E-005  0.3881533E+04  0.7818608E-02  0.8028881E-01
          2   -1    0    0  501    0  0.00000000000E+00  0.00000000000E+00  0.44785300960E+04  0.44785300960E+04  0.00000000000E+00 0. -1.
         -2   -1    0    0    0  501 -0.00000000000E+00 -0.00000000000E+00 -0.84102900875E+03  0.84102900875E+03  0.00000000000E+00 0.  1.
         23    2    1    2    0    0  0.75925396953E+03 -0.95490588380E+03  0.38864474279E+04  0.40744542426E+04  0.91607467987E+02 0.  0.
         13    1    3    3    0    0  0.35729302478E+03 -0.49306869028E+03  0.20606476519E+04  0.21487307379E+04  0.00000000000E+00 0. -1.
        -13    1    3    3    0    0  0.40196094475E+03 -0.46183719353E+03  0.18257997760E+04  0.19257235047E+04  0.00000000000E+00 0.  1.
         22    1    1    2    0    0 -0.75925396953E+03  0.95490588380E+03 -0.24894634066E+03  0.12451048621E+04  0.00000000000E+00 0.  1.
<mgrwt>
<rscale>  0 0.38815325E+04</rscale>
<asrwt>0</asrwt>
<pdfrwt beam="1">  1        2 0.68900462E+00 0.38815325E+04</pdfrwt>
<pdfrwt beam="2">  1       -2 0.12938908E+00 0.38815325E+04</pdfrwt>
<totfact> 0.44916293E-02</totfact>
</mgrwt>
</event>
<event>
 6    1  0.1588846E-005  0.4998379E+04  0.7818608E-02  0.7828757E-01
          1   -1    0    0  501    0  0.00000000000E+00  0.00000000000E+00  0.26880612642E+04  0.26880612642E+04  0.00000000000E+00 0. -1.
         -1   -1    0    0    0  501 -0.00000000000E+00 -0.00000000000E+00 -0.23235880945E+04  0.23235880945E+04  0.00000000000E+00 0.  1.
         23    2    1    2    0    0 -0.17590968684E+04  0.12314760959E+04  0.14628242569E+04  0.25997351234E+04  0.88389694835E+02 0.  0.
         13    1    3    3    0    0 -0.56617868819E+03  0.41901184078E+03  0.43519461482E+03  0.82796351516E+03  0.00000000000E+00 0. -1.
        -13    1    3    3    0    0 -0.11929181802E+04  0.81246425515E+03  0.10276296421E+04  0.17717716083E+04  0.00000000000E+00 0.  1.
         22    1    1    2    0    0  0.17590968684E+04 -0.12314760959E+04 -0.10983510872E+04  0.24119142352E+04  0.00000000000E+00 0.  1.
<mgrwt>
<rscale>  0 0.49983786E+04</rscale>
<asrwt>0</asrwt>
<pdfrwt beam="1">  1        1 0.41354789E+00 0.49983786E+04</pdfrwt>
<pdfrwt beam="2">  1       -1 0.35747509E+00 0.49983786E+04</pdfrwt>
<totfact> 0.10013841E-02</totfact>
</mgrwt>
</event>
<event>
 6    1  0.1588846E-005  0.1247885E+04  0.7818608E-02  0.9071945E-01
          2   -1    0    0  501    0  0.00000000000E+00  0.00000000000E+00  0.14490936613E+04  0.14490936613E+04  0.00000000000E+00 0. -1.
         -2   -1    0    0    0  501 -0.00000000000E+00 -0.00000000000E+00 -0.26865375630E+03  0.26865375630E+03  0.00000000000E+00 0.  1.
         23    2    1    2    0    0  0.42086592883E+03 -0.45619713745E+03  0.59421354867E+03  0.86398790867E+03  0.90229743629E+02 0.  0.
         13    1    3    3    0    0  0.10068830284E+03 -0.16719686949E+03  0.20444611537E+03  0.28265021066E+03  0.00000000000E+00 0. -1.
        -13    1    3    3    0    0  0.32017762599E+03 -0.28900026796E+03  0.38976743330E+03  0.58133769801E+03  0.00000000000E+00 0.  1.
         22    1    1    2    0    0 -0.42086592883E+03  0.45619713745E+03  0.58622635636E+03  0.85375950897E+03  0.00000000000E+00 0. -1.
<mgrwt>
<rscale>  0 0.12478853E+04</rscale>
<asrwt>0</asrwt>
<pdfrwt beam="1">  1        2 0.22293748E+00 0.12478853E+04</pdfrwt>
<pdfrwt beam="2">  1       -2 0.41331348E-01 0.12478853E+04</pdfrwt>
<totfact> 0.73964295E+01</totfact>
</mgrwt>
</event>
<event>
 6    1  0.1588846E-005  0.9748327E+03  0.7818608E-02  0.9336587E-01
         -1   -1    0    0    0  501 -0.00000000000E+00  0.00000000000E+00  0.63325066646E+03  0.63325066646E+03  0.00000000000E+00 0.  1.
          1   -1    0    0  501    0  0.00000000000E+00 -0.00000000000E+00 -0.37516692121E+03  0.37516692121E+03  0.00000000000E+00 0. -1.
         23    2    1    2    0    0 -0.18610227115E+03 -0.43260985942E+03  0.24231151072E+03  0.53721263313E+03  0.89984438493E+02 0.  0.
         11    1    3    3    0    0 -0.89184068818E+02 -0.28759601921E+03  0.18602581036E+03  0.35393625205E+03  0.00000000000E+00 0. -1.
        -11    1    3    3    0    0 -0.96918202328E+02 -0.14501384022E+03  0.56285700357E+02  0.18327638108E+03  0.00000000000E+00 0.  1.
         22    1    1    2    0    0  0.18610227115E+03  0.43260985942E+03  0.15772234535E+02  0.47120495454E+03  0.00000000000E+00 0. -1.
<mgrwt>
<rscale>  0 0.97483271E+03</rscale>
<asrwt>0</asrwt>
<pdfrwt beam="1">  1        1 0.57717988E-01 0.97483271E+03</pdfrwt>
<pdfrwt beam="2">  1       -1 0.97423180E-01 0.97483271E+03</pdfrwt>
<totfact> 0.66397166E+01</totfact>
</mgrwt>
</event>
<event>
 6    1  0.1588846E-005  0.3978865E+03  0.7818608E-02  0.1044514E+00
         -1   -1    0    0    0  501 -0.00000000000E+00  0.00000000000E+00  0.62528969283E+02  0.62528969283E+02  0.00000000000E+00 0.  1.
          1   -1    0    0  501    0  0.00000000000E+00 -0.00000000000E+00 -0.63296112568E+03  0.63296112568E+03  0.00000000000E+00 0. -1.
         23    2    1    2    0    0  0.20346726383E+02  0.18399370871E+03 -0.35779873900E+03  0.41356697723E+03  0.93541610530E+02 0.  0.
         11    1    3    3    0    0  0.46977158122E+02  0.98167166782E+02 -0.13550553699E+03  0.17379699817E+03  0.00000000000E+00 0.  1.
        -11    1    3    3    0    0 -0.26630431738E+02  0.85826541932E+02 -0.22229320202E+03  0.23976997906E+03  0.00000000000E+00 0. -1.
         22    1    1    2    0    0 -0.20346726383E+02 -0.18399370871E+03 -0.21263341739E+03  0.28192311773E+03  0.00000000000E+00 0. -1.
<mgrwt>
<rscale>  0 0.39788645E+03</rscale>
<asrwt>0</asrwt>
<pdfrwt beam="1">  1        1 0.97378633E-01 0.39788645E+03</pdfrwt>
<pdfrwt beam="2">  1       -1 0.96198416E-02 0.39788645E+03</pdfrwt>
<totfact> 0.21188203E+03</totfact>
</mgrwt>
</event>
<event>
 6    1  0.1588846E-005  0.1552106E+04  0.7818608E-02  0.8850524E-01
          2   -1    0    0  501    0  0.00000000000E+00  0.00000000000E+00  0.22067384621E+04  0.22067384621E+04  0.00000000000E+00 0.  1.
         -2   -1    0    0    0  501 -0.00000000000E+00 -0.00000000000E+00 -0.27291786583E+03  0.27291786583E+03  0.00000000000E+00 0. -1.
         23    2    1    2    0    0  0.63912335123E+03  0.37328886034E+03  0.61134150540E+03  0.96414513460E+03  0.89521913499E+02 0.  0.
         13    1    3    3    0    0  0.35264169933E+03  0.15550142830E+03  0.32921880065E+03  0.50687462060E+03  0.00000000000E+00 0. -1.
        -13    1    3    3    0    0  0.28648165190E+03  0.21778743205E+03  0.28212270475E+03  0.45727051399E+03  0.00000000000E+00 0.  1.
         22    1    1    2    0    0 -0.63912335123E+03 -0.37328886034E+03  0.13224790909E+04  0.15155111934E+04  0.00000000000E+00 0.  1.
<mgrwt>
<rscale>  0 0.15521061E+04</rscale>
<asrwt>0</asrwt>
<pdfrwt beam="1">  1        2 0.33949821E+00 0.15521061E+04</pdfrwt>
<pdfrwt beam="2">  1       -2 0.41987365E-01 0.15521061E+04</pdfrwt>
<totfact> 0.26508191E+01</totfact>
</mgrwt>
</event>
<event>
 6    1  0.1588846E-005  0.2200273E+04  0.7818608E-02  0.8518314E-01
         -2   -1    0    0    0  501 -0.00000000000E+00  0.00000000000E+00  0.12203555625E+04  0.12203555625E+04  0.00000000000E+00 0.  1.
          2   -1    0    0  501    0  0.00000000000E+00 -0.00000000000E+00 -0.99176063885E+03  0.99176063885E+03  0.00000000000E+00 0. -1.
         23    2    1    2    0    0  0.39081765267E+03 -0.10244991649E+04  0.52656825334E+02  0.11015797585E+04  0.91478121287E+02 0.  0.
         13    1    3    3    0    0  0.26000762907E+03 -0.57012537575E+03  0.82401879428E+01  0.62666961946E+03  0.00000000000E+00 0.  1.
        -13    1    3    3    0    0  0.13081002360E+03 -0.45437378910E+03  0.44416637391E+02  0.47491013905E+03  0.00000000000E+00 0. -1.
         22    1    1    2    0    0 -0.39081765267E+03  0.10244991649E+04  0.17593809832E+03  0.11105364428E+04  0.00000000000E+00 0. -1.
<mgrwt>
<rscale>  0 0.22002733E+04</rscale>
<asrwt>0</asrwt>
<pdfrwt beam="1">  1        2 0.15257856E+00 0.22002733E+04</pdfrwt>
<pdfrwt beam="2">  1       -2 0.18774701E+00 0.22002733E+04</pdfrwt>
<totfact> 0.37400972E+00</totfact>
</mgrwt>
</event>
<event>
 6    1  0.1588846E-005  0.3136490E+04  0.7818608E-02  0.8205794E-01
         -2   -1    0    0    0  501 -0.00000000000E+00  0.00000000000E+00  0.91177302859E+03  0.91177302859E+03  0.00000000000E+00 0.  1.
          2   -1    0    0  501    0  0.00000000000E+00 -0.00000000000E+00 -0.26973739550E+04  0.26973739550E+04  0.00000000000E+00 0. -1.
         23    2    1    2    0    0 -0.10593256264E+04 -0.58060034466E+03 -0.20419273432E+04  0.23742499130E+04  0.91256954158E+02 0.  0.
         11    1    3    3    0    0 -0.91959053818E+03 -0.48884879349E+03 -0.18121719787E+04  0.20901165473E+04  0.00000000000E+00 0. -1.
        -11    1    3    3    0    0 -0.13973508824E+03 -0.91751551167E+02 -0.22975536448E+03  0.28413336576E+03  0.00000000000E+00 0.  1.
         22    1    1    2    0    0  0.10593256264E+04  0.58060034466E+03  0.25632641675E+03  0.12348970706E+04  0.00000000000E+00 0.  1.
<mgrwt>
<rscale>  0 0.31364903E+04</rscale>
<asrwt>0</asrwt>
<pdfrwt beam="1">  1        2 0.41498061E+00 0.31364903E+04</pdfrwt>
<pdfrwt beam="2">  1       -2 0.14027277E+00 0.31364903E+04</pdfrwt>
<totfact> 0.80584853E-01</totfact>
</mgrwt>
</event>
<event>
 6    1  0.1588846E-005  0.1262341E+04  0.7818608E-02  0.9059974E-01
         -1   -1    0    0    0  501 -0.00000000000E+00  0.00000000000E+00  0.46736878532E+03  0.46736878532E+03  0.00000000000E+00 0.  1.
          1   -1    0    0  501    0  0.00000000000E+00 -0.00000000000E+00 -0.85238107214E+03  0.85238107214E+03  0.00000000000E+00 0. -1.
         23    2    1    2    0    0  0.11154853091E+03  0.61315880641E+03 -0.11175281725E+03  0.63925185281E+03  0.88019557701E+02 0.  0.
         13    1    3    3    0    0  0.39022461306E+02  0.23810778331E+03 -0.86860421043E+02  0.25644258949E+03  0.00000000000E+00 0.  1.
        -13    1    3    3    0    0  0.72526069600E+02  0.37505102310E+03 -0.24892396204E+02  0.38280926332E+03  0.00000000000E+00 0. -1.
         22    1    1    2    0    0 -0.11154853091E+03 -0.61315880641E+03 -0.27325946957E+03  0.68049800465E+03  0.00000000000E+00 0.  1.
<mgrwt>
<rscale>  0 0.12623412E+04</rscale>
<asrwt>0</asrwt>
<pdfrwt beam="1">  1        1 0.13113555E+00 0.12623412E+04</pdfrwt>
<pdfrwt beam="2">  1       -1 0.71902892E-01 0.12623412E+04</pdfrwt>
<totfact> 0.38353341E+01</totfact>
</mgrwt>
</event>
<event>
 6    1  0.1588846E-005  0.2480876E+04  0.7818608E-02  0.8409830E-01
         -2   -1    0    0    0  501 -0.00000000000E+00  0.00000000000E+00  0.12302017813E+04  0.12302017813E+04  0.00000000000E+00 0.  1.
          2   -1    0    0  501    0  0.00000000000E+00 -0.00000000000E+00 -0.12507593016E+04  0.12507593016E+04  0.00000000000E+00 0. -1.
         23    2    1    2    0    0  0.11660225564E+04 -0.41557347725E+03 -0.38728754502E+02  0.12429626537E+04  0.10557615832E+03 0.  0.
         11    1    3    3    0    0  0.92059646223E+03 -0.29999144233E+03  0.45421312109E+01  0.96825272667E+03  0.00000000000E+00 0. -1.
        -11    1    3    3    0    0  0.24542609412E+03 -0.11558203492E+03 -0.43270885713E+02  0.27470992705E+03  0.00000000000E+00 0.  1.
         22    1    1    2    0    0 -0.11660225564E+04  0.41557347725E+03  0.18171234187E+02  0.12379984292E+04  0.00000000000E+00 0.  1.
<mgrwt>
<rscale>  0 0.24808759E+04</rscale>
<asrwt>0</asrwt>
<pdfrwt beam="1">  1        2 0.19242451E+00 0.24808759E+04</pdfrwt>
<pdfrwt beam="2">  1       -2 0.18926181E+00 0.24808759E+04</pdfrwt>
<totfact> 0.24746694E+00</totfact>
</mgrwt>
</event>
<event>
 6    1  0.1588846E-005  0.4060610E+04  0.7818608E-02  0.7992430E-01
          1   -1    0    0  501    0  0.00000000000E+00  0.00000000000E+00  0.11874450866E+04  0.11874450866E+04  0.00000000000E+00 0. -1.
         -1   -1    0    0    0  501 -0.00000000000E+00 -0.00000000000E+00 -0.34714349115E+04  0.34714349115E+04  0.00000000000E+00 0.  1.
         23    2    1    2    0    0  0.10085802603E+04  0.13569172502E+04 -0.24302340664E+04  0.29618691132E+04  0.90401666034E+02 0.  0.
         11    1    3    3    0    0  0.74201009382E+03  0.10622507164E+04 -0.18543490050E+04  0.22622037477E+04  0.00000000000E+00 0.  1.
        -11    1    3    3    0    0  0.26657016644E+03  0.29466653376E+03 -0.57588506140E+03  0.69966536551E+03  0.00000000000E+00 0. -1.
         22    1    1    2    0    0 -0.10085802603E+04 -0.13569172502E+04  0.14624424140E+03  0.16970108849E+04  0.00000000000E+00 0. -1.
<mgrwt>
<rscale>  0 0.40606100E+04</rscale>
<asrwt>0</asrwt>
<pdfrwt beam="1">  1        1 0.18268386E+00 0.40606100E+04</pdfrwt>
<pdfrwt beam="2">  1       -1 0.53406690E+00 0.40606100E+04</pdfrwt>
<totfact> 0.78393641E-03</totfact>
</mgrwt>
</event>
<event>
 6    1  0.1588846E-005  0.2713291E+04  0.7818608E-02  0.8330706E-01
          2   -1    0    0  501    0  0.00000000000E+00  0.00000000000E+00  0.74747833458E+03  0.74747833458E+03  0.00000000000E+00 0. -1.
         -2   -1    0    0    0  501 -0.00000000000E+00 -0.00000000000E+00 -0.24622604791E+04  0.24622604791E+04  0.00000000000E+00 0.  1.
         23    2    1    2    0    0  0.13126791958E+04 -0.32124024565E+03 -0.97709116982E+03  0.16700927697E+04  0.90447435705E+02 0.  0.
         11    1    3    3    0    0  0.10426556885E+04 -0.27558675329E+03 -0.74073348220E+03  0.13083443870E+04  0.00000000000E+00 0. -1.
        -11    1    3    3    0    0  0.27002350730E+03 -0.45653492364E+02 -0.23635768762E+03  0.36174838266E+03  0.00000000000E+00 0.  1.
         22    1    1    2    0    0 -0.13126791958E+04  0.32124024565E+03 -0.73769097470E+03  0.15396460440E+04  0.00000000000E+00 0. -1.
<mgrwt>
<rscale>  0 0.27132905E+04</rscale>
<asrwt>0</asrwt>
<pdfrwt beam="1">  1        2 0.11499667E+00 0.27132905E+04</pdfrwt>
<pdfrwt beam="2">  1       -2 0.37880931E+00 0.27132905E+04</pdfrwt>
<totfact> 0.33635043E-01</totfact>
</mgrwt>
</event>
<event>
 6    1  0.1588846E-005  0.1316669E+04  0.7818608E-02  0.9016450E-01
         -2   -1    0    0    0  501 -0.00000000000E+00  0.00000000000E+00  0.11105182835E+03  0.11105182835E+03  0.00000000000E+00 0.  1.
          2   -1    0    0  501    0  0.00000000000E+00 -0.00000000000E+00 -0.39027234245E+04  0.39027234245E+04  0.00000000000E+00 0. -1.
         23    2    1    2    0    0 -0.19425035319E+03 -0.52836423839E+03 -0.87710822180E+03  0.10453444163E+04  0.80772197405E+02 0.  0.
         13    1    3    3    0    0 -0.24440512746E+02 -0.14729678310E+03 -0.27333850915E+03  0.31146046549E+03  0.00000000000E+00 0. -1.
        -13    1    3    3    0    0 -0.16980984044E+03 -0.38106745529E+03 -0.60376971264E+03  0.73388395084E+03  0.00000000000E+00 0.  1.
         22    1    1    2    0    0  0.19425035319E+03  0.52836423839E+03 -0.29145633743E+04  0.29684308365E+04  0.00000000000E+00 0. -1.
<mgrwt>
<rscale>  0 0.13166694E+04</rscale>
<asrwt>0</asrwt>
<pdfrwt beam="1">  1        2 0.60041903E+00 0.13166694E+04</pdfrwt>
<pdfrwt beam="2">  1       -2 0.17084895E-01 0.13166694E+04</pdfrwt>
<totfact> 0.11602214E+01</totfact>
</mgrwt>
</event>
<event>
 6    1  0.1588846E-005  0.2995010E+04  0.7818608E-02  0.8245157E-01
          2   -1    0    0  501    0  0.00000000000E+00  0.00000000000E+00  0.21658446946E+04  0.21658446946E+04  0.00000000000E+00 0. -1.
         -2   -1    0    0    0  501 -0.00000000000E+00 -0.00000000000E+00 -0.10354026632E+04  0.10354026632E+04  0.00000000000E+00 0.  1.
         23    2    1    2    0    0 -0.10108014650E+04  0.90654492197E+03 -0.10595782967E+03  0.13648846721E+04  0.90220891288E+02 0.  0.
         11    1    3    3    0    0 -0.41113508780E+03  0.41905217796E+03 -0.70185719578E+02  0.59123838129E+03  0.00000000000E+00 0. -1.
        -11    1    3    3    0    0 -0.59966637716E+03  0.48749274401E+03 -0.35772110092E+02  0.77364629076E+03  0.00000000000E+00 0.  1.
         22    1    1    2    0    0  0.10108014650E+04 -0.90654492197E+03  0.12363998611E+04  0.18363626857E+04  0.00000000000E+00 0.  1.
<mgrwt>
<rscale>  0 0.29950101E+04</rscale>
<asrwt>0</asrwt>
<pdfrwt beam="1">  1        2 0.33320688E+00 0.29950101E+04</pdfrwt>
<pdfrwt beam="2">  1       -2 0.15929272E+00 0.29950101E+04</pdfrwt>
<totfact> 0.11783949E+00</totfact>
</mgrwt>
</event>
<event>
 6    1  0.1588846E-005  0.2883710E+04  0.7818608E-02  0.8277741E-01
         -1   -1    0    0    0  501 -0.00000000000E+00  0.00000000000E+00  0.89394375415E+03  0.89394375415E+03  0.00000000000E+00 0.  1.
          1   -1    0    0  501    0  0.00000000000E+00 -0.00000000000E+00 -0.23255884794E+04  0.23255884794E+04  0.00000000000E+00 0. -1.
         23    2    1    2    0    0  0.23297937005E+03 -0.14115939112E+04 -0.53342839139E+03  0.15302515169E+04  0.10122795710E+03 0.  0.
         13    1    3    3    0    0  0.44956766965E+02 -0.27885101965E+03 -0.14915233799E+03  0.31941418563E+03  0.00000000000E+00 0. -1.
        -13    1    3    3    0    0  0.18802260309E+03 -0.11327428916E+04 -0.38427605340E+03  0.12108373313E+04  0.00000000000E+00 0.  1.
         22    1    1    2    0    0 -0.23297937005E+03  0.14115939112E+04 -0.89821633384E+03  0.16892807166E+04  0.00000000000E+00 0. -1.
<mgrwt>
<rscale>  0 0.28837096E+04</rscale>
<asrwt>0</asrwt>
<pdfrwt beam="1">  1        1 0.35778284E+00 0.28837096E+04</pdfrwt>
<pdfrwt beam="2">  1       -1 0.13752981E+00 0.28837096E+04</pdfrwt>
<totfact> 0.67442096E-01</totfact>
</mgrwt>
</event>
<event>
 6    1  0.1588846E-005  0.4063558E+04  0.7818608E-02  0.7991846E-01
         -2   -1    0    0    0  501 -0.00000000000E+00  0.00000000000E+00  0.10632543352E+04  0.10632543352E+04  0.00000000000E+00 0.  1.
          2   -1    0    0  501    0  0.00000000000E+00 -0.00000000000E+00 -0.38825392768E+04  0.38825392768E+04  0.00000000000E+00 0. -1.
         23    2    1    2    0    0  0.22761161029E+03  0.51755746732E+02 -0.38656313980E+04  0.38737270984E+04  0.90387086226E+02 0.  0.
         11    1    3    3    0    0  0.94126678553E+02 -0.68123129437E+01 -0.20869085122E+04  0.20890412579E+04  0.00000000000E+00 0. -1.
        -11    1    3    3    0    0  0.13348493173E+03  0.58568059675E+02 -0.17787228859E+04  0.17846858405E+04  0.00000000000E+00 0.  1.
         22    1    1    2    0    0 -0.22761161029E+03 -0.51755746732E+02  0.10463464564E+04  0.10720665135E+04  0.00000000000E+00 0.  1.
<mgrwt>
<rscale>  0 0.40635584E+04</rscale>
<asrwt>0</asrwt>
<pdfrwt beam="1">  1        2 0.59731374E+00 0.40635584E+04</pdfrwt>
<pdfrwt beam="2">  1       -2 0.16357759E+00 0.40635584E+04</pdfrwt>
<totfact> 0.78686560E-02</totfact>
</mgrwt>
</event>
<event>
 6    1  0.1588846E-005  0.9368566E+03  0.7818608E-02  0.9380647E-01
          1   -1    0    0  501    0  0.00000000000E+00  0.00000000000E+00  0.13613020396E+04  0.13613020396E+04  0.00000000000E+00 0. -1.
         -1   -1    0    0    0  501 -0.00000000000E+00 -0.00000000000E+00 -0.16118763800E+03  0.16118763800E+03  0.00000000000E+00 0.  1.
         23    2    1    2    0    0  0.24191120574E+03 -0.84970686187E+02  0.12341394637E+04  0.12638417434E+04  0.91949375675E+02 0.  0.
         11    1    3    3    0    0  0.14858969956E+03 -0.28889112077E+02  0.89332070822E+03  0.90605483683E+03  0.00000000000E+00 0. -1.
        -11    1    3    3    0    0  0.93321506177E+02 -0.56081574110E+02  0.34081875546E+03  0.35778690662E+03  0.00000000000E+00 0.  1.
         22    1    1    2    0    0 -0.24191120574E+03  0.84970686187E+02 -0.34025062112E+02  0.25864793412E+03  0.00000000000E+00 0.  1.
<mgrwt>
<rscale>  0 0.93685657E+03</rscale>
<asrwt>0</asrwt>
<pdfrwt beam="1">  1        1 0.20943108E+00 0.93685657E+03</pdfrwt>
<pdfrwt beam="2">  1       -1 0.24798099E-01 0.93685657E+03</pdfrwt>
<totfact> 0.11684447E+02</totfact>
</mgrwt>
</event>
<event>
 6    1  0.1588846E-005  0.3060178E+04  0.7818608E-02  0.8226752E-01
         -2   -1    0    0    0  501 -0.00000000000E+00  0.00000000000E+00  0.10230299393E+04  0.10230299393E+04  0.00000000000E+00 0.  1.
          2   -1    0    0  501    0  0.00000000000E+00 -0.00000000000E+00 -0.22884690864E+04  0.22884690864E+04  0.00000000000E+00 0. -1.
         23    2    1    2    0    0 -0.91039886325E+03  0.12240202935E+04 -0.52549633844E+03  0.16160441814E+04  0.91654925720E+02 0.  0.
         11    1    3    3    0    0 -0.48605873097E+03  0.69457615158E+03 -0.25121831244E+03  0.88419441347E+03  0.00000000000E+00 0.  1.
        -11    1    3    3    0    0 -0.42434013227E+03  0.52944414191E+03 -0.27427802601E+03  0.73184976792E+03  0.00000000000E+00 0. -1.
         22    1    1    2    0    0  0.91039886325E+03 -0.12240202935E+04 -0.73994280865E+03  0.16954548443E+04  0.00000000000E+00 0. -1.
<mgrwt>
<rscale>  0 0.30601780E+04</rscale>
<asrwt>0</asrwt>
<pdfrwt beam="1">  1        2 0.35207216E+00 0.30601780E+04</pdfrwt>
<pdfrwt beam="2">  1       -2 0.15738922E+00 0.30601780E+04</pdfrwt>
<totfact> 0.10325939E+00</totfact>
</mgrwt>
</event>
<event>
 6    1  0.1588846E-005  0.7925013E+03  0.7818608E-02  0.9570935E-01
         -2   -1    0    0    0  501 -0.00000000000E+00  0.00000000000E+00  0.48575801851E+02  0.48575801851E+02  0.00000000000E+00 0.  1.
          2   -1    0    0  501    0  0.00000000000E+00 -0.00000000000E+00 -0.32323619716E+04  0.32323619716E+04  0.00000000000E+00 0. -1.
         23    2    1    2    0    0  0.24389016113E+03  0.90488163168E+02 -0.28216514973E+04  0.28350543365E+04  0.90251871371E+02 0.  0.
         11    1    3    3    0    0  0.22539922448E+03  0.75627365483E+02 -0.21726522243E+04  0.21856216499E+04  0.00000000000E+00 0. -1.
        -11    1    3    3    0    0  0.18490936645E+02  0.14860797686E+02 -0.64899927304E+03  0.64943268662E+03  0.00000000000E+00 0.  1.
         22    1    1    2    0    0 -0.24389016113E+03 -0.90488163168E+02 -0.36213467247E+03  0.44588343698E+03  0.00000000000E+00 0.  1.
<mgrwt>
<rscale>  0 0.79250129E+03</rscale>
<asrwt>0</asrwt>
<pdfrwt beam="1">  1        2 0.49728652E+00 0.79250129E+03</pdfrwt>
<pdfrwt beam="2">  1       -2 0.74731993E-02 0.79250129E+03</pdfrwt>
<totfact> 0.14347489E+02</totfact>
</mgrwt>
</event>
<event>
 6    1  0.1588846E-005  0.1233315E+04  0.7818608E-02  0.9084186E-01
         -1   -1    0    0    0  501 -0.00000000000E+00  0.00000000000E+00  0.43942558976E+03  0.43942558976E+03  0.00000000000E+00 0.  1.
          1   -1    0    0  501    0  0.00000000000E+00 -0.00000000000E+00 -0.86537163116E+03  0.86537163116E+03  0.00000000000E+00 0. -1.
         23    2    1    2    0    0  0.42210345063E+03 -0.33311482835E+03  0.97153502721E+02  0.55461727919E+03  0.94998480991E+02 0.  0.
         11    1    3    3    0    0  0.77291614696E+02 -0.11166255169E+03  0.33828012415E+02  0.13995304061E+03  0.00000000000E+00 0. -1.
        -11    1    3    3    0    0  0.34481183593E+03 -0.22145227666E+03  0.63325490306E+02  0.41466423858E+03  0.00000000000E+00 0.  1.
         22    1    1    2    0    0 -0.42210345063E+03  0.33311482835E+03 -0.52309954412E+03  0.75017994172E+03  0.00000000000E+00 0.  1.
<mgrwt>
<rscale>  0 0.12333149E+04</rscale>
<asrwt>0</asrwt>
<pdfrwt beam="1">  1        1 0.13313409E+00 0.12333149E+04</pdfrwt>
<pdfrwt beam="2">  1       -1 0.67603938E-01 0.12333149E+04</pdfrwt>
<totfact> 0.42540940E+01</totfact>
</mgrwt>
</event>
<event>
 6    1  0.1588846E-005  0.2423265E+04  0.7818608E-02  0.8430845E-01
          2   -1    0    0  501    0  0.00000000000E+00  0.00000000000E+00  0.15911620550E+04  0.15911620550E+04  0.00000000000E+00 0. -1.
         -2   -1    0    0    0  501 -0.00000000000E+00 -0.00000000000E+00 -0.92262968962E+03  0.92262968962E+03  0.00000000000E+00 0.  1.
         23    2    1    2    0    0  0.78176895412E+03 -0.27165717511E+02 -0.62268815592E+03  0.10041059798E+04  0.92669333425E+02 0.  0.
         11    1    3    3    0    0  0.46018729559E+03 -0.56217588870E+02 -0.33949556779E+03  0.57462161886E+03  0.00000000000E+00 0.  1.
        -11    1    3    3    0    0  0.32158165853E+03  0.29051871359E+02 -0.28319258814E+03  0.42948436096E+03  0.00000000000E+00 0. -1.
         22    1    1    2    0    0 -0.78176895412E+03  0.27165717511E+02  0.12912205213E+04  0.15096857648E+04  0.00000000000E+00 0. -1.
<mgrwt>
<rscale>  0 0.24232650E+04</rscale>
<asrwt>0</asrwt>
<pdfrwt beam="1">  1        2 0.24479416E+00 0.24232650E+04</pdfrwt>
<pdfrwt beam="2">  1       -2 0.14194303E+00 0.24232650E+04</pdfrwt>
<totfact> 0.35083542E+00</totfact>
</mgrwt>
</event>
<event>
 6    1  0.1588846E-005  0.4882141E+04  0.7818608E-02  0.7846950E-01
          2   -1    0    0  501    0  0.00000000000E+00  0.00000000000E+00  0.23687605475E+04  0.23687605475E+04  0.00000000000E+00 0. -1.
         -2   -1    0    0    0  501 -0.00000000000E+00 -0.00000000000E+00 -0.25155879783E+04  0.25155879783E+04  0.00000000000E+00 0.  1.
         23    2    1    2    0    0  0.16865992953E+04 -0.79746283511E+03 -0.16470795088E+04  0.24903308873E+04  0.91174905915E+02 0.  0.
         11    1    3    3    0    0  0.11456805111E+04 -0.52920789060E+03 -0.10585773571E+04  0.16471887706E+04  0.00000000000E+00 0.  1.
        -11    1    3    3    0    0  0.54091878420E+03 -0.26825494451E+03 -0.58850215175E+03  0.84314211671E+03  0.00000000000E+00 0. -1.
         22    1    1    2    0    0 -0.16865992953E+04  0.79746283511E+03  0.15002520780E+04  0.23940176386E+04  0.00000000000E+00 0. -1.
<mgrwt>
<rscale>  0 0.48821412E+04</rscale>
<asrwt>0</asrwt>
<pdfrwt beam="1">  1        2 0.36442470E+00 0.48821412E+04</pdfrwt>
<pdfrwt beam="2">  1       -2 0.38701354E+00 0.48821412E+04</pdfrwt>
<totfact> 0.27465924E-02</totfact>
</mgrwt>
</event>
<event>
 6    1  0.1588846E-005  0.1396297E+04  0.7818608E-02  0.8956503E-01
          1   -1    0    0  501    0  0.00000000000E+00  0.00000000000E+00  0.46043798948E+03  0.46043798948E+03  0.00000000000E+00 0. -1.
         -1   -1    0    0    0  501 -0.00000000000E+00 -0.00000000000E+00 -0.10585817317E+04  0.10585817317E+04  0.00000000000E+00 0.  1.
         23    2    1    2    0    0  0.25464623458E+03  0.74691513440E+02 -0.99919028286E+03  0.10381227939E+04  0.94308996564E+02 0.  0.
         13    1    3    3    0    0  0.77538290170E+02  0.52402058407E+02 -0.48180456514E+03  0.49080933279E+03  0.00000000000E+00 0. -1.
        -13    1    3    3    0    0  0.17710794441E+03  0.22289455033E+02 -0.51738571772E+03  0.54731346108E+03  0.00000000000E+00 0.  1.
         22    1    1    2    0    0 -0.25464623458E+03 -0.74691513440E+02  0.40104654062E+03  0.48089692733E+03  0.00000000000E+00 0. -1.
<mgrwt>
<rscale>  0 0.13962969E+04</rscale>
<asrwt>0</asrwt>
<pdfrwt beam="1">  1        1 0.70836614E-01 0.13962969E+04</pdfrwt>
<pdfrwt beam="2">  1       -1 0.16285873E+00 0.13962969E+04</pdfrwt>
<totfact> 0.13460409E+01</totfact>
</mgrwt>
</event>
<event>
 6    1  0.1588846E-005  0.8208725E+03  0.7818608E-02  0.9530287E-01
          2   -1    0    0  501    0  0.00000000000E+00  0.00000000000E+00  0.23601312363E+04  0.23601312363E+04  0.00000000000E+00 0. -1.
         -2   -1    0    0    0  501 -0.00000000000E+00 -0.00000000000E+00 -0.71376499903E+02  0.71376499903E+02  0.00000000000E+00 0.  1.
         23    2    1    2    0    0 -0.13756067036E+03  0.36959146572E+03  0.14355276998E+04  0.14915517982E+04  0.92011955789E+02 0.  0.
         13    1    3    3    0    0 -0.41377615080E+02  0.22930272879E+03  0.75837363904E+03  0.79336147174E+03  0.00000000000E+00 0. -1.
        -13    1    3    3    0    0 -0.96183055284E+02  0.14028873693E+03  0.67715406080E+03  0.69819032641E+03  0.00000000000E+00 0.  1.
         22    1    1    2    0    0  0.13756067036E+03 -0.36959146572E+03  0.85322703657E+03  0.93995593806E+03  0.00000000000E+00 0.  1.
<mgrwt>
<rscale>  0 0.82087248E+03</rscale>
<asrwt>0</asrwt>
<pdfrwt beam="1">  1        2 0.36309705E+00 0.82087248E+03</pdfrwt>
<pdfrwt beam="2">  1       -2 0.10981002E-01 0.82087248E+03</pdfrwt>
<totfact> 0.25349086E+02</totfact>
</mgrwt>
</event>
<event>
 6    1  0.1588846E-005  0.2478987E+04  0.7818608E-02  0.8410510E-01
         -2   -1    0    0    0  501 -0.00000000000E+00  0.00000000000E+00  0.81231169225E+03  0.81231169225E+03  0.00000000000E+00 0. -1.
          2   -1    0    0  501    0  0.00000000000E+00 -0.00000000000E+00 -0.18913230577E+04  0.18913230577E+04  0.00000000000E+00 0.  1.
         23    2    1    2    0    0  0.93507434832E+03 -0.13549831217E+02  0.34419707643E+03  0.10006755890E+04  0.91281828414E+02 0.  0.
         11    1    3    3    0    0  0.31712239568E+03 -0.47841922179E+02  0.11875247031E+03  0.34199066151E+03  0.00000000000E+00 0. -1.
        -11    1    3    3    0    0  0.61795195265E+03  0.34292090962E+02  0.22544460612E+03  0.65868492750E+03  0.00000000000E+00 0.  1.
         22    1    1    2    0    0 -0.93507434832E+03  0.13549831217E+02 -0.14232084419E+04  0.17029591609E+04  0.00000000000E+00 0.  1.
<mgrwt>
<rscale>  0 0.24789868E+04</rscale>
<asrwt>0</asrwt>
<pdfrwt beam="1">  1        2 0.29097277E+00 0.24789868E+04</pdfrwt>
<pdfrwt beam="2">  1       -2 0.12497103E+00 0.24789868E+04</pdfrwt>
<totfact> 0.32912723E+00</totfact>
</mgrwt>
</event>
<event>
 6    1  0.1588846E-005  0.3923770E+04  0.7818608E-02  0.8020104E-01
         -3   -1    0    0    0  501 -0.00000000000E+00  0.00000000000E+00  0.16076759951E+04  0.16076759951E+04  0.00000000000E+00 0.  1.
          3   -1    0    0  501    0  0.00000000000E+00 -0.00000000000E+00 -0.23941345289E+04  0.23941345289E+04  0.00000000000E+00 0. -1.
         23    2    1    2    0    0 -0.64817118026E+03 -0.18504992674E+04 -0.41202046184E+03  0.20056448777E+04  0.91526482703E+02 0.  0.
         11    1    3    3    0    0 -0.56355632265E+03 -0.15190739619E+04 -0.32177162509E+03  0.16518832917E+04  0.00000000000E+00 0.  1.
        -11    1    3    3    0    0 -0.84614857612E+02 -0.33142530546E+03 -0.90248836741E+02  0.35376158604E+03  0.00000000000E+00 0. -1.
         22    1    1    2    0    0  0.64817118026E+03  0.18504992674E+04 -0.37443807201E+03  0.19961656463E+04  0.00000000000E+00 0. -1.
<mgrwt>
<rscale>  0 0.39237699E+04</rscale>
<asrwt>0</asrwt>
<pdfrwt beam="1">  1        3 0.36832839E+00 0.39237699E+04</pdfrwt>
<pdfrwt beam="2">  1       -3 0.24733477E+00 0.39237699E+04</pdfrwt>
<totfact> 0.25452884E-03</totfact>
</mgrwt>
</event>
<event>
 6    1  0.2145730E-005  0.2746204E+04  0.7818608E-02  0.8320167E-01
         -2   -1    0    0    0  501 -0.00000000000E+00  0.00000000000E+00  0.76292813411E+03  0.76292813411E+03  0.00000000000E+00 0. -1.
          2   -1    0    0  501    0  0.00000000000E+00 -0.00000000000E+00 -0.24712793365E+04  0.24712793365E+04  0.00000000000E+00 0.  1.
         23    2    1    2    0    0 -0.10390358583E+04  0.66084407581E+03 -0.14328212093E+03  0.12427879675E+04  0.87645642816E+02 0.  0.
         11    1    3    3    0    0 -0.30037567260E+03  0.19201055787E+03 -0.16033316279E+01  0.35650549743E+03  0.00000000000E+00 0. -1.
        -11    1    3    3    0    0 -0.73866018571E+03  0.46883351794E+03 -0.14167878930E+03  0.88628247012E+03  0.00000000000E+00 0.  1.
         22    1    1    2    0    0  0.10390358583E+04 -0.66084407581E+03 -0.15650690815E+04  0.19914195031E+04  0.00000000000E+00 0.  1.
<mgrwt>
<rscale>  0 0.27462036E+04</rscale>
<asrwt>0</asrwt>
<pdfrwt beam="1">  1        2 0.38019682E+00 0.27462036E+04</pdfrwt>
<pdfrwt beam="2">  1       -2 0.11737356E+00 0.27462036E+04</pdfrwt>
<totfact> 0.17726837E+00</totfact>
</mgrwt>
</event>
<event>
 6    1  0.1588846E-005  0.2881736E+04  0.7818608E-02  0.8278332E-01
          1   -1    0    0  501    0  0.00000000000E+00  0.00000000000E+00  0.14509906469E+04  0.14509906469E+04  0.00000000000E+00 0. -1.
         -1   -1    0    0    0  501 -0.00000000000E+00 -0.00000000000E+00 -0.14308160695E+04  0.14308160695E+04  0.00000000000E+00 0.  1.
         23    2    1    2    0    0 -0.11123275554E+03  0.13911385678E+04  0.36252568072E+03  0.14448503779E+04  0.92349903385E+02 0.  0.
         13    1    3    3    0    0 -0.88463918699E+02  0.57278266988E+03  0.16696745261E+03  0.60314507546E+03  0.00000000000E+00 0.  1.
        -13    1    3    3    0    0 -0.22768836839E+02  0.81835589792E+03  0.19555822811E+03  0.84170530245E+03  0.00000000000E+00 0. -1.
         22    1    1    2    0    0  0.11123275554E+03 -0.13911385678E+04 -0.34235110325E+03  0.14369563385E+04  0.00000000000E+00 0. -1.
<mgrwt>
<rscale>  0 0.28817361E+04</rscale>
<asrwt>0</asrwt>
<pdfrwt beam="1">  1        1 0.22322933E+00 0.28817361E+04</pdfrwt>
<pdfrwt beam="2">  1       -1 0.22012555E+00 0.28817361E+04</pdfrwt>
<totfact> 0.66820442E-01</totfact>
</mgrwt>
</event>
<event>
 6    1  0.1588846E-005  0.1500029E+04  0.7818608E-02  0.8884434E-01
         -2   -1    0    0    0  501 -0.00000000000E+00  0.00000000000E+00  0.91895042384E+03  0.91895042384E+03  0.00000000000E+00 0.  1.
          2   -1    0    0  501    0  0.00000000000E+00 -0.00000000000E+00 -0.61213503804E+03  0.61213503804E+03  0.00000000000E+00 0. -1.
         23    2    1    2    0    0  0.56021042455E+03  0.54453468125E+02  0.65642345999E+03  0.86849455829E+03  0.81179671024E+02 0.  0.
         11    1    3    3    0    0  0.11820094369E+03 -0.12051147095E+02  0.10414001352E+03  0.15799315065E+03  0.00000000000E+00 0. -1.
        -11    1    3    3    0    0  0.44200948086E+03  0.66504615220E+02  0.55228344648E+03  0.71050140764E+03  0.00000000000E+00 0.  1.
         22    1    1    2    0    0 -0.56021042455E+03 -0.54453468125E+02 -0.34960807420E+03  0.66259090358E+03  0.00000000000E+00 0. -1.
<mgrwt>
<rscale>  0 0.15000290E+04</rscale>
<asrwt>0</asrwt>
<pdfrwt beam="1">  1        2 0.94174622E-01 0.15000290E+04</pdfrwt>
<pdfrwt beam="2">  1       -2 0.14137699E+00 0.15000290E+04</pdfrwt>
<totfact> 0.16364535E+01</totfact>
</mgrwt>
</event>
<event>
 6    1  0.1588846E-005  0.1445315E+04  0.7818608E-02  0.8921655E-01
         -1   -1    0    0    0  501 -0.00000000000E+00  0.00000000000E+00  0.13260184221E+04  0.13260184221E+04  0.00000000000E+00 0.  1.
          1   -1    0    0  501    0  0.00000000000E+00 -0.00000000000E+00 -0.39383616889E+03  0.39383616889E+03  0.00000000000E+00 0. -1.
         23    2    1    2    0    0 -0.62926393934E+03  0.11631534321E+03  0.75820830528E+02  0.65080957292E+03  0.91114968281E+02 0.  0.
         13    1    3    3    0    0 -0.13294658347E+03  0.41058735177E+02 -0.17434570630E+02  0.14023044620E+03  0.00000000000E+00 0. -1.
        -13    1    3    3    0    0 -0.49631735587E+03  0.75256608036E+02  0.93255401158E+02  0.51057912671E+03  0.00000000000E+00 0.  1.
         22    1    1    2    0    0  0.62926393934E+03 -0.11631534321E+03  0.85636142268E+03  0.10690450181E+04  0.00000000000E+00 0.  1.
<mgrwt>
<rscale>  0 0.14453152E+04</rscale>
<asrwt>0</asrwt>
<pdfrwt beam="1">  1        1 0.60590180E-01 0.14453152E+04</pdfrwt>
<pdfrwt beam="2">  1       -1 0.20400283E+00 0.14453152E+04</pdfrwt>
<totfact> 0.84057808E+00</totfact>
</mgrwt>
</event>
<event>
 6    1  0.1588846E-005  0.2929781E+04  0.7818608E-02  0.8264071E-01
          2   -1    0    0  501    0  0.00000000000E+00  0.00000000000E+00  0.75688176014E+03  0.75688176014E+03  0.00000000000E+00 0. -1.
         -2   -1    0    0    0  501 -0.00000000000E+00 -0.00000000000E+00 -0.28351912228E+04  0.28351912228E+04  0.00000000000E+00 0.  1.
         23    2    1    2    0    0  0.83084921380E+03 -0.97117387835E+03 -0.19143114694E+04  0.23035139195E+04  0.89993653699E+02 0.  0.
         11    1    3    3    0    0  0.61655608428E+03 -0.77693154164E+03 -0.14662931515E+04  0.17702484661E+04  0.00000000000E+00 0.  1.
        -11    1    3    3    0    0  0.21429312952E+03 -0.19424233671E+03 -0.44801831787E+03  0.53326545348E+03  0.00000000000E+00 0. -1.
         22    1    1    2    0    0 -0.83084921380E+03  0.97117387835E+03 -0.16399799330E+03  0.12885590634E+04  0.00000000000E+00 0. -1.
<mgrwt>
<rscale>  0 0.29297812E+04</rscale>
<asrwt>0</asrwt>
<pdfrwt beam="1">  1        2 0.11644335E+00 0.29297812E+04</pdfrwt>
<pdfrwt beam="2">  1       -2 0.43618327E+00 0.29297812E+04</pdfrwt>
<totfact> 0.13653800E-01</totfact>
</mgrwt>
</event>
<event>
 6    1  0.1588846E-005  0.2916827E+04  0.7818608E-02  0.8267889E-01
          1   -1    0    0  501    0  0.00000000000E+00  0.00000000000E+00  0.60993686853E+03  0.60993686853E+03  0.00000000000E+00 0. -1.
         -1   -1    0    0    0  501 -0.00000000000E+00 -0.00000000000E+00 -0.34871961535E+04  0.34871961535E+04  0.00000000000E+00 0.  1.
         23    2    1    2    0    0 -0.53663919324E+03 -0.91701730576E+01 -0.33427277066E+04  0.33866919144E+04  0.88249003232E+02 0.  0.
         11    1    3    3    0    0 -0.39478386853E+03 -0.28881199738E+02 -0.22404993825E+04  0.22751979935E+04  0.00000000000E+00 0. -1.
        -11    1    3    3    0    0 -0.14185532471E+03  0.19711026681E+02 -0.11022283241E+04  0.11114939209E+04  0.00000000000E+00 0.  1.
         22    1    1    2    0    0  0.53663919324E+03  0.91701730576E+01  0.46546842168E+03  0.71044110761E+03  0.00000000000E+00 0. -1.
<mgrwt>
<rscale>  0 0.29168267E+04</rscale>
<asrwt>0</asrwt>
<pdfrwt beam="1">  1        1 0.93836441E-01 0.29168267E+04</pdfrwt>
<pdfrwt beam="2">  1       -1 0.53649172E+00 0.29168267E+04</pdfrwt>
<totfact> 0.25401762E-02</totfact>
</mgrwt>
</event>
<event>
 6    1  0.1588846E-005  0.5339886E+03  0.7818608E-02  0.1005269E+00
          3   -1    0    0  501    0  0.00000000000E+00  0.00000000000E+00  0.93145566545E+03  0.93145566545E+03  0.00000000000E+00 0. -1.
         -3   -1    0    0    0  501 -0.00000000000E+00 -0.00000000000E+00 -0.76531787259E+02  0.76531787259E+02  0.00000000000E+00 0.  1.
         23    2    1    2    0    0  0.78055564195E+02  0.23740170180E+03  0.57573803946E+03  0.63329161384E+03  0.84449623793E+02 0.  0.
         11    1    3    3    0    0  0.72644293983E+02  0.20202366982E+03  0.54623248077E+03  0.58690772670E+03  0.00000000000E+00 0. -1.
        -11    1    3    3    0    0  0.54112702119E+01  0.35378031985E+02  0.29505558690E+02  0.46383887138E+02  0.00000000000E+00 0.  1.
         22    1    1    2    0    0 -0.78055564195E+02 -0.23740170180E+03  0.27918583874E+03  0.37469583887E+03  0.00000000000E+00 0.  1.
<mgrwt>
<rscale>  0 0.53398864E+03</rscale>
<asrwt>0</asrwt>
<pdfrwt beam="1">  1        3 0.14330086E+00 0.53398864E+03</pdfrwt>
<pdfrwt beam="2">  1       -3 0.11774122E-01 0.53398864E+03</pdfrwt>
<totfact> 0.55819970E+01</totfact>
</mgrwt>
</event>
<event>
 6    1  0.1588846E-005  0.1271350E+04  0.7818608E-02  0.9052599E-01
         -2   -1    0    0    0  501 -0.00000000000E+00  0.00000000000E+00  0.45866543708E+03  0.45866543708E+03  0.00000000000E+00 0.  1.
          2   -1    0    0  501    0  0.00000000000E+00 -0.00000000000E+00 -0.88099596999E+03  0.88099596999E+03  0.00000000000E+00 0. -1.
         23    2    1    2    0    0  0.32325107946E+03 -0.81351357182E+02  0.35416409109E+03  0.49464471801E+03  0.90176992339E+02 0.  0.
         13    1    3    3    0    0  0.11191541965E+03 -0.27030153908E+02  0.18768055564E+03  0.22018101948E+03  0.00000000000E+00 0.  1.
        -13    1    3    3    0    0  0.21133565980E+03 -0.54321203273E+02  0.16648353545E+03  0.27446369852E+03  0.00000000000E+00 0. -1.
         22    1    1    2    0    0 -0.32325107946E+03  0.81351357182E+02 -0.77649462400E+03  0.84501668906E+03  0.00000000000E+00 0. -1.
<mgrwt>
<rscale>  0 0.12713495E+04</rscale>
<asrwt>0</asrwt>
<pdfrwt beam="1">  1        2 0.13553784E+00 0.12713495E+04</pdfrwt>
<pdfrwt beam="2">  1       -2 0.70563914E-01 0.12713495E+04</pdfrwt>
<totfact> 0.54209910E+01</totfact>
</mgrwt>
</event>
<event>
 6    1  0.1588846E-005  0.9367349E+03  0.7818608E-02  0.9380791E-01
          1   -1    0    0  501    0  0.00000000000E+00  0.00000000000E+00  0.42878976186E+03  0.42878976186E+03  0.00000000000E+00 0. -1.
         -1   -1    0    0    0  501 -0.00000000000E+00 -0.00000000000E+00 -0.51159817562E+03  0.51159817562E+03  0.00000000000E+00 0.  1.
         23    2    1    2    0    0 -0.43866904276E+03 -0.87853464457E+02 -0.16391718315E+03  0.48571509601E+03  0.94348032692E+02 0.  0.
         11    1    3    3    0    0 -0.34275111975E+03 -0.77170325333E+02 -0.16732983602E+03  0.38914375650E+03  0.00000000000E+00 0.  1.
        -11    1    3    3    0    0 -0.95917923010E+02 -0.10683139123E+02  0.34126528682E+01  0.96571339515E+02  0.00000000000E+00 0. -1.
         22    1    1    2    0    0  0.43866904276E+03  0.87853464457E+02  0.81108769383E+02  0.45467284146E+03  0.00000000000E+00 0. -1.
<mgrwt>
<rscale>  0 0.93673488E+03</rscale>
<asrwt>0</asrwt>
<pdfrwt beam="1">  1        1 0.65967656E-01 0.93673488E+03</pdfrwt>
<pdfrwt beam="2">  1       -1 0.78707412E-01 0.93673488E+03</pdfrwt>
<totfact> 0.88858721E+01</totfact>
</mgrwt>
</event>
<event>
 6    1  0.1588846E-005  0.5360460E+04  0.7818608E-02  0.7775187E-01
          2   -1    0    0  501    0  0.00000000000E+00  0.00000000000E+00  0.38537082711E+04  0.38537082711E+04  0.00000000000E+00 0.  1.
         -2   -1    0    0    0  501 -0.00000000000E+00 -0.00000000000E+00 -0.18640832965E+04  0.18640832965E+04  0.00000000000E+00 0. -1.
         23    2    1    2    0    0  0.30079506764E+03  0.17940498661E+04  0.30935457105E+04  0.35899443960E+04  0.92645067081E+02 0.  0.
         13    1    3    3    0    0  0.16870186713E+03  0.90474631379E+03  0.16499178954E+04  0.18892472771E+04  0.00000000000E+00 0.  1.
        -13    1    3    3    0    0  0.13209320051E+03  0.88930355230E+03  0.14436278151E+04  0.17006971189E+04  0.00000000000E+00 0. -1.
         22    1    1    2    0    0 -0.30079506764E+03 -0.17940498661E+04 -0.11039207359E+04  0.21278471717E+04  0.00000000000E+00 0. -1.
<mgrwt>
<rscale>  0 0.53604601E+04</rscale>
<asrwt>0</asrwt>
<pdfrwt beam="1">  1        2 0.59287819E+00 0.53604601E+04</pdfrwt>
<pdfrwt beam="2">  1       -2 0.28678205E+00 0.53604601E+04</pdfrwt>
<totfact> 0.12051724E-02</totfact>
</mgrwt>
</event>
<event>
 6    1  0.1588846E-005  0.5569697E+04  0.7818608E-02  0.7746171E-01
         -2   -1    0    0    0  501 -0.00000000000E+00  0.00000000000E+00  0.18236245501E+04  0.18236245501E+04  0.00000000000E+00 0.  1.
          2   -1    0    0  501    0  0.00000000000E+00 -0.00000000000E+00 -0.42527289170E+04  0.42527289170E+04  0.00000000000E+00 0. -1.
         23    2    1    2    0    0  0.12030354706E+04  0.11739833135E+03 -0.39510544023E+04  0.41327978023E+04  0.90055944468E+02 0.  0.
         13    1    3    3    0    0  0.29652058609E+03 -0.68697553777E+01 -0.91665951347E+03  0.96345021415E+03  0.00000000000E+00 0. -1.
        -13    1    3    3    0    0  0.90651488450E+03  0.12426808673E+03 -0.30343948889E+04  0.31693475882E+04  0.00000000000E+00 0.  1.
         22    1    1    2    0    0 -0.12030354706E+04 -0.11739833135E+03  0.15219500354E+04  0.19435556648E+04  0.00000000000E+00 0.  1.
<mgrwt>
<rscale>  0 0.55696969E+04</rscale>
<asrwt>0</asrwt>
<pdfrwt beam="1">  1        2 0.65426598E+00 0.55696969E+04</pdfrwt>
<pdfrwt beam="2">  1       -2 0.28055762E+00 0.55696969E+04</pdfrwt>
<totfact> 0.60327050E-03</totfact>
</mgrwt>
</event>
<event>
 6    1  0.1588846E-005  0.1551591E+04  0.7818608E-02  0.8850852E-01
          1   -1    0    0  501    0  0.00000000000E+00  0.00000000000E+00  0.36092176496E+04  0.36092176496E+04  0.00000000000E+00 0. -1.
         -1   -1    0    0    0  501 -0.00000000000E+00 -0.00000000000E+00 -0.16675588567E+03  0.16675588567E+03  0.00000000000E+00 0.  1.
         23    2    1    2    0    0  0.88812562943E+02  0.73601202363E+03  0.22634539876E+04  0.23832565120E+04  0.84180031607E+02 0.  0.
         11    1    3    3    0    0  0.11360927345E+02  0.41866038678E+03  0.12226310753E+04  0.12923746889E+04  0.00000000000E+00 0. -1.
        -11    1    3    3    0    0  0.77451635598E+02  0.31735163684E+03  0.10408229123E+04  0.10908818231E+04  0.00000000000E+00 0.  1.
         22    1    1    2    0    0 -0.88812562943E+02 -0.73601202363E+03  0.11790077763E+04  0.13927170233E+04  0.00000000000E+00 0. -1.
<mgrwt>
<rscale>  0 0.15515905E+04</rscale>
<asrwt>0</asrwt>
<pdfrwt beam="1">  1        1 0.55526419E+00 0.15515905E+04</pdfrwt>
<pdfrwt beam="2">  1       -1 0.25654754E-01 0.15515905E+04</pdfrwt>
<totfact> 0.26710661E+00</totfact>
</mgrwt>
</event>
<event>
 6    1  0.1588846E-005  0.1940681E+04  0.7818608E-02  0.8634868E-01
          2   -1    0    0  501    0  0.00000000000E+00  0.00000000000E+00  0.12418358633E+04  0.12418358633E+04  0.00000000000E+00 0. -1.
         -2   -1    0    0    0  501 -0.00000000000E+00 -0.00000000000E+00 -0.75820086611E+03  0.75820086611E+03  0.00000000000E+00 0.  1.
         23    2    1    2    0    0  0.76035487334E+03  0.52959327961E+03 -0.46600677957E+02  0.93244202801E+03  0.93101757240E+02 0.  0.
         13    1    3    3    0    0  0.32353043516E+03  0.20518277849E+03  0.23524839993E+02  0.38382982318E+03  0.00000000000E+00 0.  1.
        -13    1    3    3    0    0  0.43682443818E+03  0.32441050112E+03 -0.70125517950E+02  0.54861220484E+03  0.00000000000E+00 0. -1.
         22    1    1    2    0    0 -0.76035487334E+03 -0.52959327961E+03  0.53023567513E+03  0.10675947014E+04  0.00000000000E+00 0. -1.
<mgrwt>
<rscale>  0 0.19406814E+04</rscale>
<asrwt>0</asrwt>
<pdfrwt beam="1">  1        2 0.19105167E+00 0.19406814E+04</pdfrwt>
<pdfrwt beam="2">  1       -2 0.11664629E+00 0.19406814E+04</pdfrwt>
<totfact> 0.95100081E+00</totfact>
</mgrwt>
</event>
<event>
 6    1  0.1588846E-005  0.1454674E+04  0.7818608E-02  0.8915166E-01
          1   -1    0    0  501    0  0.00000000000E+00  0.00000000000E+00  0.12546458975E+04  0.12546458975E+04  0.00000000000E+00 0. -1.
         -1   -1    0    0    0  501 -0.00000000000E+00 -0.00000000000E+00 -0.42164825062E+03  0.42164825062E+03  0.00000000000E+00 0.  1.
         23    2    1    2    0    0 -0.42757715919E+03 -0.11906934124E+03  0.10776893009E+04  0.11694670172E+04  0.96120445528E+02 0.  0.
         13    1    3    3    0    0 -0.19883334192E+03 -0.51223858394E+02  0.37725916306E+03  0.42951490968E+03  0.00000000000E+00 0. -1.
        -13    1    3    3    0    0 -0.22874381728E+03 -0.67845482848E+02  0.70043013780E+03  0.73995210752E+03  0.00000000000E+00 0.  1.
         22    1    1    2    0    0  0.42757715919E+03  0.11906934124E+03 -0.24469165399E+03  0.50682713090E+03  0.00000000000E+00 0.  1.
<mgrwt>
<rscale>  0 0.14546742E+04</rscale>
<asrwt>0</asrwt>
<pdfrwt beam="1">  1        1 0.19302244E+00 0.14546742E+04</pdfrwt>
<pdfrwt beam="2">  1       -1 0.64868962E-01 0.14546742E+04</pdfrwt>
<totfact> 0.22810635E+01</totfact>
</mgrwt>
</event>
<event>
 6    1  0.1846011E-005  0.2827777E+04  0.7818608E-02  0.8294696E-01
          2   -1    0    0  501    0  0.00000000000E+00  0.00000000000E+00  0.18564113536E+04  0.18564113536E+04  0.00000000000E+00 0. -1.
         -2   -1    0    0    0  501 -0.00000000000E+00 -0.00000000000E+00 -0.10768522889E+04  0.10768522889E+04  0.00000000000E+00 0.  1.
         23    2    1    2    0    0  0.17907584297E+03  0.74794859462E+03 -0.83869859346E+03  0.11415457222E+04  0.90642415974E+02 0.  0.
         11    1    3    3    0    0  0.50386622365E+02  0.27786845344E+03 -0.36913752255E+03  0.46477112613E+03  0.00000000000E+00 0.  1.
        -11    1    3    3    0    0  0.12868922060E+03  0.47008014118E+03 -0.46956107091E+03  0.67677459611E+03  0.00000000000E+00 0. -1.
         22    1    1    2    0    0 -0.17907584297E+03 -0.74794859462E+03  0.16182576581E+04  0.17917179203E+04  0.00000000000E+00 0. -1.
<mgrwt>
<rscale>  0 0.28277771E+04</rscale>
<asrwt>0</asrwt>
<pdfrwt beam="1">  1        2 0.28560175E+00 0.28277771E+04</pdfrwt>
<pdfrwt beam="2">  1       -2 0.16566958E+00 0.28277771E+04</pdfrwt>
<totfact> 0.15960112E+00</totfact>
</mgrwt>
</event>
<event>
 6    1  0.1588846E-005  0.2473725E+04  0.7818608E-02  0.8412406E-01
          2   -1    0    0  501    0  0.00000000000E+00  0.00000000000E+00  0.12620125227E+04  0.12620125227E+04  0.00000000000E+00 0. -1.
         -2   -1    0    0    0  501 -0.00000000000E+00 -0.00000000000E+00 -0.12122137773E+04  0.12122137773E+04  0.00000000000E+00 0.  1.
         23    2    1    2    0    0 -0.63271655035E+03  0.55015099274E+03  0.93203436393E+03  0.12571248109E+04  0.93157859678E+02 0.  0.
         13    1    3    3    0    0 -0.12191620608E+03  0.81770917348E+02  0.12036142063E+03  0.18983391638E+03  0.00000000000E+00 0. -1.
        -13    1    3    3    0    0 -0.51080034427E+03  0.46838007539E+03  0.81167294330E+03  0.10672908946E+04  0.00000000000E+00 0.  1.
         22    1    1    2    0    0  0.63271655035E+03 -0.55015099274E+03 -0.88223561859E+03  0.12171014890E+04  0.00000000000E+00 0.  1.
<mgrwt>
<rscale>  0 0.24737251E+04</rscale>
<asrwt>0</asrwt>
<pdfrwt beam="1">  1        2 0.19415577E+00 0.24737251E+04</pdfrwt>
<pdfrwt beam="2">  1       -2 0.18649443E+00 0.24737251E+04</pdfrwt>
<totfact> 0.25458710E+00</totfact>
</mgrwt>
</event>
<event>
 6    1  0.1588846E-005  0.4679372E+04  0.7818608E-02  0.7879965E-01
          2   -1    0    0  501    0  0.00000000000E+00  0.00000000000E+00  0.24400690534E+04  0.24400690534E+04  0.00000000000E+00 0.  1.
         -2   -1    0    0    0  501 -0.00000000000E+00 -0.00000000000E+00 -0.22434321813E+04  0.22434321813E+04  0.00000000000E+00 0. -1.
         23    2    1    2    0    0 -0.76787925490E+03 -0.19420797444E+04 -0.95581287981E+03  0.22982438661E+04  0.83870871630E+02 0.  0.
         13    1    3    3    0    0 -0.59332817185E+03 -0.15206656518E+04 -0.78388735484E+03  0.18107848379E+04  0.00000000000E+00 0. -1.
        -13    1    3    3    0    0 -0.17455108306E+03 -0.42141409254E+03 -0.17192552497E+03  0.48745902815E+03  0.00000000000E+00 0.  1.
         22    1    1    2    0    0  0.76787925490E+03  0.19420797444E+04  0.11524497520E+04  0.23852573686E+04  0.00000000000E+00 0.  1.
<mgrwt>
<rscale>  0 0.46793715E+04</rscale>
<asrwt>0</asrwt>
<pdfrwt beam="1">  1        2 0.37539524E+00 0.46793715E+04</pdfrwt>
<pdfrwt beam="2">  1       -2 0.34514341E+00 0.46793715E+04</pdfrwt>
<totfact> 0.47003346E-02</totfact>
</mgrwt>
</event>
<event>
 6    1  0.1588846E-005  0.1410141E+04  0.7818608E-02  0.8946511E-01
          2   -1    0    0  501    0  0.00000000000E+00  0.00000000000E+00  0.26996493315E+04  0.26996493315E+04  0.00000000000E+00 0. -1.
         -2   -1    0    0    0  501 -0.00000000000E+00 -0.00000000000E+00 -0.18414399261E+03  0.18414399261E+03  0.00000000000E+00 0.  1.
         23    2    1    2    0    0 -0.40580218471E+03 -0.68196625187E+02  0.99293789883E+02  0.43279262187E+03  0.90133257088E+02 0.  0.
         13    1    3    3    0    0 -0.15940334336E+03 -0.51942516860E+01 -0.76988976610E+00  0.15948980800E+03  0.00000000000E+00 0.  1.
        -13    1    3    3    0    0 -0.24639884135E+03 -0.63002373501E+02  0.10006367965E+03  0.27330281387E+03  0.00000000000E+00 0. -1.
         22    1    1    2    0    0  0.40580218471E+03  0.68196625187E+02  0.24162115491E+04  0.24510007023E+04  0.00000000000E+00 0. -1.
<mgrwt>
<rscale>  0 0.14101407E+04</rscale>
<asrwt>0</asrwt>
<pdfrwt beam="1">  1        2 0.41533064E+00 0.14101407E+04</pdfrwt>
<pdfrwt beam="2">  1       -2 0.28329847E-01 0.14101407E+04</pdfrwt>
<totfact> 0.29636717E+01</totfact>
</mgrwt>
</event>
<event>
 6    1  0.1588846E-005  0.2374537E+04  0.7818608E-02  0.8449099E-01
         -2   -1    0    0    0  501 -0.00000000000E+00  0.00000000000E+00  0.90373932612E+03  0.90373932612E+03  0.00000000000E+00 0.  1.
          2   -1    0    0  501    0  0.00000000000E+00 -0.00000000000E+00 -0.15597484835E+04  0.15597484835E+04  0.00000000000E+00 0. -1.
         23    2    1    2    0    0 -0.62348838711E+01  0.11767302886E+04 -0.17940937304E+03  0.11938892903E+04  0.91928605287E+02 0.  0.
         13    1    3    3    0    0 -0.59223065167E+01  0.78226411109E+02 -0.35109119836E+02  0.85948213507E+02  0.00000000000E+00 0. -1.
        -13    1    3    3    0    0 -0.31257735435E+00  0.10985038775E+04 -0.14430025321E+03  0.11079410768E+04  0.00000000000E+00 0.  1.
         22    1    1    2    0    0  0.62348838711E+01 -0.11767302886E+04 -0.47659978431E+03  0.12695985193E+04  0.00000000000E+00 0. -1.
<mgrwt>
<rscale>  0 0.23745366E+04</rscale>
<asrwt>0</asrwt>
<pdfrwt beam="1">  1        2 0.23996131E+00 0.23745366E+04</pdfrwt>
<pdfrwt beam="2">  1       -2 0.13903682E+00 0.23745366E+04</pdfrwt>
<totfact> 0.38712976E+00</totfact>
</mgrwt>
</event>
<event>
 6    1  0.1588846E-005  0.1514205E+04  0.7818608E-02  0.8875062E-01
          2   -1    0    0  501    0  0.00000000000E+00  0.00000000000E+00  0.15889839056E+04  0.15889839056E+04  0.00000000000E+00 0. -1.
         -2   -1    0    0    0  501 -0.00000000000E+00 -0.00000000000E+00 -0.36073612865E+03  0.36073612865E+03  0.00000000000E+00 0.  1.
         23    2    1    2    0    0  0.75370099852E+03  0.31474711915E+02  0.60955877331E+03  0.97410128909E+03  0.90860170801E+02 0.  0.
         11    1    3    3    0    0  0.95025297426E+02 -0.24879980266E+02  0.67289857064E+02  0.11906613890E+03  0.00000000000E+00 0.  1.
        -11    1    3    3    0    0  0.65867570109E+03  0.56354692182E+02  0.54226891624E+03  0.85503515019E+03  0.00000000000E+00 0. -1.
         22    1    1    2    0    0 -0.75370099852E+03 -0.31474711915E+02  0.61868900362E+03  0.97561874514E+03  0.00000000000E+00 0.  1.
<mgrwt>
<rscale>  0 0.15142046E+04</rscale>
<asrwt>0</asrwt>
<pdfrwt beam="1">  1        2 0.24445906E+00 0.15142046E+04</pdfrwt>
<pdfrwt beam="2">  1       -2 0.55497867E-01 0.15142046E+04</pdfrwt>
<totfact> 0.33305505E+01</totfact>
</mgrwt>
</event>
<event>
 6    1  0.1588846E-005  0.4490902E+04  0.7818608E-02  0.7912231E-01
          2   -1    0    0  501    0  0.00000000000E+00  0.00000000000E+00  0.30687536213E+04  0.30687536213E+04  0.00000000000E+00 0. -1.
         -2   -1    0    0    0  501 -0.00000000000E+00 -0.00000000000E+00 -0.16430287747E+04  0.16430287747E+04  0.00000000000E+00 0.  1.
         23    2    1    2    0    0  0.27808174298E+03 -0.18394992263E+04 -0.60427255993E+03  0.19582435222E+04  0.92116808011E+02 0.  0.
         11    1    3    3    0    0  0.13712793209E+03 -0.71971820216E+03 -0.20092405946E+03  0.75971628780E+03  0.00000000000E+00 0. -1.
        -11    1    3    3    0    0  0.14095381089E+03 -0.11197810241E+04 -0.40334850047E+03  0.11985272344E+04  0.00000000000E+00 0.  1.
         22    1    1    2    0    0 -0.27808174298E+03  0.18394992263E+04  0.20299974065E+04  0.27535388738E+04  0.00000000000E+00 0. -1.
<mgrwt>
<rscale>  0 0.44909021E+04</rscale>
<asrwt>0</asrwt>
<pdfrwt beam="1">  1        2 0.47211594E+00 0.44909021E+04</pdfrwt>
<pdfrwt beam="2">  1       -2 0.25277366E+00 0.44909021E+04</pdfrwt>
<totfact> 0.73763412E-02</totfact>
</mgrwt>
</event>
<event>
 6    1  0.1588846E-005  0.1670173E+04  0.7818608E-02  0.8778561E-01
          2   -1    0    0  501    0  0.00000000000E+00  0.00000000000E+00  0.11901150628E+04  0.11901150628E+04  0.00000000000E+00 0.  1.
         -2   -1    0    0    0  501 -0.00000000000E+00 -0.00000000000E+00 -0.58596791231E+03  0.58596791231E+03  0.00000000000E+00 0. -1.
         23    2    1    2    0    0 -0.69139349504E+03  0.16044140284E+01 -0.19045499256E+03  0.72279284183E+03  0.90160129144E+02 0.  0.
         13    1    3    3    0    0 -0.29488520323E+03  0.34232604918E+02 -0.51020513867E+02  0.30121793964E+03  0.00000000000E+00 0. -1.
        -13    1    3    3    0    0 -0.39650829181E+03 -0.32628190890E+02 -0.13943447869E+03  0.42157490219E+03  0.00000000000E+00 0.  1.
         22    1    1    2    0    0  0.69139349504E+03 -0.16044140284E+01  0.79460214300E+03  0.10532901332E+04  0.00000000000E+00 0.  1.
<mgrwt>
<rscale>  0 0.16701727E+04</rscale>
<asrwt>0</asrwt>
<pdfrwt beam="1">  1        2 0.18309462E+00 0.16701727E+04</pdfrwt>
<pdfrwt beam="2">  1       -2 0.90148910E-01 0.16701727E+04</pdfrwt>
<totfact> 0.19282983E+01</totfact>
</mgrwt>
</event>
<event>
 6    1  0.1588846E-005  0.1662064E+04  0.7818608E-02  0.8783302E-01
         -1   -1    0    0    0  501 -0.00000000000E+00  0.00000000000E+00  0.98488764499E+03  0.98488764499E+03  0.00000000000E+00 0.  1.
          1   -1    0    0  501    0  0.00000000000E+00 -0.00000000000E+00 -0.70121073082E+03  0.70121073082E+03  0.00000000000E+00 0. -1.
         23    2    1    2    0    0 -0.29518098809E+03  0.69766354954E+03  0.48281660838E+03  0.90282137379E+03  0.90046163444E+02 0.  0.
         13    1    3    3    0    0 -0.27480335133E+03  0.62161005248E+03  0.40030722653E+03  0.78877234666E+03  0.00000000000E+00 0. -1.
        -13    1    3    3    0    0 -0.20377636762E+02  0.76053497062E+02  0.82509381847E+02  0.11404902712E+03  0.00000000000E+00 0.  1.
         22    1    1    2    0    0  0.29518098809E+03 -0.69766354954E+03 -0.19913969420E+03  0.78327700202E+03  0.00000000000E+00 0. -1.
<mgrwt>
<rscale>  0 0.16620635E+04</rscale>
<asrwt>0</asrwt>
<pdfrwt beam="1">  1        1 0.10787857E+00 0.16620635E+04</pdfrwt>
<pdfrwt beam="2">  1       -1 0.15152118E+00 0.16620635E+04</pdfrwt>
<totfact> 0.88071344E+00</totfact>
</mgrwt>
</event>
<event>
 6    1  0.1588846E-005  0.4140164E+04  0.7818608E-02  0.7976853E-01
          1   -1    0    0  501    0  0.00000000000E+00  0.00000000000E+00  0.23351721775E+04  0.23351721775E+04  0.00000000000E+00 0. -1.
         -1   -1    0    0    0  501 -0.00000000000E+00 -0.00000000000E+00 -0.18350847872E+04  0.18350847872E+04  0.00000000000E+00 0.  1.
         23    2    1    2    0    0  0.48405683350E+03  0.17422316183E+04  0.12631556798E+04  0.22076170986E+04  0.91263098593E+02 0.  0.
         13    1    3    3    0    0  0.26168816702E+03  0.10168969545E+04  0.78226766835E+03  0.13093902466E+04  0.00000000000E+00 0. -1.
        -13    1    3    3    0    0  0.22236866648E+03  0.72533466373E+03  0.48088801140E+03  0.89822685206E+03  0.00000000000E+00 0.  1.
         22    1    1    2    0    0 -0.48405683350E+03 -0.17422316183E+04 -0.76306828947E+03  0.19626398661E+04  0.00000000000E+00 0.  1.
<mgrwt>
<rscale>  0 0.41401637E+04</rscale>
<asrwt>0</asrwt>
<pdfrwt beam="1">  1        1 0.35925726E+00 0.41401637E+04</pdfrwt>
<pdfrwt beam="2">  1       -1 0.28232073E+00 0.41401637E+04</pdfrwt>
<totfact> 0.58570668E-02</totfact>
</mgrwt>
</event>
<event>
 6    1  0.1588846E-005  0.6977367E+03  0.7818608E-02  0.9721111E-01
         -2   -1    0    0    0  501 -0.00000000000E+00  0.00000000000E+00  0.10492508289E+03  0.10492508289E+03  0.00000000000E+00 0.  1.
          2   -1    0    0  501    0  0.00000000000E+00 -0.00000000000E+00 -0.11599622315E+04  0.11599622315E+04  0.00000000000E+00 0. -1.
         23    2    1    2    0    0 -0.13743081145E+03  0.12220975345E+03 -0.10611633286E+04  0.10808764944E+04  0.91672975213E+02 0.  0.
         13    1    3    3    0    0 -0.14324340297E+03  0.13153756674E+03 -0.10080256105E+04  0.10266140635E+04  0.00000000000E+00 0.  1.
        -13    1    3    3    0    0  0.58125915167E+01 -0.93278132895E+01 -0.53137718122E+02  0.54262430908E+02  0.00000000000E+00 0. -1.
         22    1    1    2    0    0  0.13743081145E+03 -0.12220975345E+03  0.61261800507E+01  0.18401081995E+03  0.00000000000E+00 0.  1.
<mgrwt>
<rscale>  0 0.69773672E+03</rscale>
<asrwt>0</asrwt>
<pdfrwt beam="1">  1        2 0.17845573E+00 0.69773672E+03</pdfrwt>
<pdfrwt beam="2">  1       -2 0.16142321E-01 0.69773672E+03</pdfrwt>
<totfact> 0.62469438E+02</totfact>
</mgrwt>
</event>
<event>
 6    1  0.1588846E-005  0.3026334E+04  0.7818608E-02  0.8236251E-01
         -2   -1    0    0    0  501 -0.00000000000E+00  0.00000000000E+00  0.13831014657E+04  0.13831014657E+04  0.00000000000E+00 0.  1.
          2   -1    0    0  501    0  0.00000000000E+00 -0.00000000000E+00 -0.16554636574E+04  0.16554636574E+04  0.00000000000E+00 0. -1.
         23    2    1    2    0    0 -0.64456372491E+03 -0.16469774962E+03 -0.14990727191E+04  0.16430700631E+04  0.99360308768E+02 0.  0.
         13    1    3    3    0    0 -0.21733378630E+03 -0.32232999512E+02 -0.39811247482E+03  0.45471582723E+03  0.00000000000E+00 0. -1.
        -13    1    3    3    0    0 -0.42722993860E+03 -0.13246475010E+03 -0.11009602443E+04  0.11883542359E+04  0.00000000000E+00 0.  1.
         22    1    1    2    0    0  0.64456372491E+03  0.16469774962E+03  0.12267105274E+04  0.13954950599E+04  0.00000000000E+00 0.  1.
<mgrwt>
<rscale>  0 0.30263339E+04</rscale>
<asrwt>0</asrwt>
<pdfrwt beam="1">  1        2 0.25468672E+00 0.30263339E+04</pdfrwt>
<pdfrwt beam="2">  1       -2 0.21278484E+00 0.30263339E+04</pdfrwt>
<totfact> 0.97468873E-01</totfact>
</mgrwt>
</event>
<event>
 6    1  0.1588846E-005  0.1401952E+04  0.7818608E-02  0.8952407E-01
          2   -1    0    0  501    0  0.00000000000E+00  0.00000000000E+00  0.13234712897E+04  0.13234712897E+04  0.00000000000E+00 0. -1.
         -2   -1    0    0    0  501 -0.00000000000E+00 -0.00000000000E+00 -0.37127154386E+03  0.37127154386E+03  0.00000000000E+00 0.  1.
         23    2    1    2    0    0 -0.36706532460E+03 -0.23347449600E+03 -0.18157118484E+03  0.48037723127E+03  0.92449425901E+02 0.  0.
         13    1    3    3    0    0 -0.21809902949E+03 -0.87195106883E+02 -0.79413939262E+02  0.24794504851E+03  0.00000000000E+00 0.  1.
        -13    1    3    3    0    0 -0.14896629511E+03 -0.14627938912E+03 -0.10215724558E+03  0.23243218276E+03  0.00000000000E+00 0. -1.
         22    1    1    2    0    0  0.36706532460E+03  0.23347449600E+03  0.11337709307E+04  0.12143656023E+04  0.00000000000E+00 0. -1.
<mgrwt>
<rscale>  0 0.14019518E+04</rscale>
<asrwt>0</asrwt>
<pdfrwt beam="1">  1        2 0.20361097E+00 0.14019518E+04</pdfrwt>
<pdfrwt beam="2">  1       -2 0.57118700E-01 0.14019518E+04</pdfrwt>
<totfact> 0.44781047E+01</totfact>
</mgrwt>
</event>
<event>
 6    1  0.1588846E-005  0.5313979E+04  0.7818608E-02  0.7781817E-01
          2   -1    0    0  501    0  0.00000000000E+00  0.00000000000E+00  0.34534319266E+04  0.34534319266E+04  0.00000000000E+00 0. -1.
         -2   -1    0    0    0  501 -0.00000000000E+00 -0.00000000000E+00 -0.20442254556E+04  0.20442254556E+04  0.00000000000E+00 0.  1.
         23    2    1    2    0    0 -0.23471523866E+04  0.47084131491E+03 -0.48605747133E+03  0.24443245669E+04  0.87492017970E+02 0.  0.
         11    1    3    3    0    0 -0.53193267652E+03  0.90405776961E+02 -0.14323625414E+03  0.55824922871E+03  0.00000000000E+00 0. -1.
        -11    1    3    3    0    0 -0.18152197101E+04  0.38043553795E+03 -0.34282121719E+03  0.18860753382E+04  0.00000000000E+00 0.  1.
         22    1    1    2    0    0  0.23471523866E+04 -0.47084131491E+03  0.18952639423E+04  0.30533328153E+04  0.00000000000E+00 0. -1.
<mgrwt>
<rscale>  0 0.53139791E+04</rscale>
<asrwt>0</asrwt>
<pdfrwt beam="1">  1        2 0.53129722E+00 0.53139791E+04</pdfrwt>
<pdfrwt beam="2">  1       -2 0.31449622E+00 0.53139791E+04</pdfrwt>
<totfact> 0.16077909E-02</totfact>
</mgrwt>
</event>
<event>
 6    1  0.1588846E-005  0.3402780E+04  0.7818608E-02  0.8137224E-01
          2   -1    0    0  501    0  0.00000000000E+00  0.00000000000E+00  0.16326929167E+04  0.16326929167E+04  0.00000000000E+00 0. -1.
         -2   -1    0    0    0  501 -0.00000000000E+00 -0.00000000000E+00 -0.17729771564E+04  0.17729771564E+04  0.00000000000E+00 0.  1.
         23    2    1    2    0    0 -0.28635851689E+02 -0.11612445357E+04 -0.13127037345E+04  0.17552530483E+04  0.91723960672E+02 0.  0.
         13    1    3    3    0    0 -0.33565987119E+02 -0.20754802147E+03 -0.20660932168E+03  0.29477155310E+03  0.00000000000E+00 0. -1.
        -13    1    3    3    0    0  0.49301354300E+01 -0.95369651425E+03 -0.11060944129E+04  0.14604814952E+04  0.00000000000E+00 0.  1.
         22    1    1    2    0    0  0.28635851689E+02  0.11612445357E+04  0.11724194949E+04  0.16504170248E+04  0.00000000000E+00 0. -1.
<mgrwt>
<rscale>  0 0.34027796E+04</rscale>
<asrwt>0</asrwt>
<pdfrwt beam="1">  1        2 0.25118353E+00 0.34027796E+04</pdfrwt>
<pdfrwt beam="2">  1       -2 0.27276572E+00 0.34027796E+04</pdfrwt>
<totfact> 0.41283660E-01</totfact>
</mgrwt>
</event>
<event>
 6    1  0.1588846E-005  0.8331573E+03  0.7818608E-02  0.9513226E-01
         -2   -1    0    0    0  501 -0.00000000000E+00  0.00000000000E+00  0.11071433303E+04  0.11071433303E+04  0.00000000000E+00 0.  1.
          2   -1    0    0  501    0  0.00000000000E+00 -0.00000000000E+00 -0.15674372954E+03  0.15674372954E+03  0.00000000000E+00 0. -1.
         23    2    1    2    0    0 -0.64197513615E+02  0.31770010251E+03  0.95563986561E+02  0.34966684392E+03  0.89887431375E+02 0.  0.
         13    1    3    3    0    0 -0.13389476107E+02  0.10170838766E+03 -0.11630922615E+02  0.10324317194E+03  0.00000000000E+00 0. -1.
        -13    1    3    3    0    0 -0.50808037508E+02  0.21599171485E+03  0.10719490918E+03  0.24642367198E+03  0.00000000000E+00 0.  1.
         22    1    1    2    0    0  0.64197513615E+02 -0.31770010251E+03  0.85483561422E+03  0.91422021594E+03  0.00000000000E+00 0.  1.
<mgrwt>
<rscale>  0 0.83315731E+03</rscale>
<asrwt>0</asrwt>
<pdfrwt beam="1">  1        2 0.24114421E-01 0.83315731E+03</pdfrwt>
<pdfrwt beam="2">  1       -2 0.17032974E+00 0.83315731E+03</pdfrwt>
<totfact> 0.48826125E+01</totfact>
</mgrwt>
</event>
<event>
 6    1  0.1588846E-005  0.3120800E+04  0.7818608E-02  0.8210053E-01
          2   -1    0    0  501    0  0.00000000000E+00  0.00000000000E+00  0.24105002209E+04  0.24105002209E+04  0.00000000000E+00 0. -1.
         -2   -1    0    0    0  501 -0.00000000000E+00 -0.00000000000E+00 -0.10101005053E+04  0.10101005053E+04  0.00000000000E+00 0.  1.
         23    2    1    2    0    0 -0.26265845998E+03 -0.11039238513E+03  0.23808392364E+04  0.23996023916E+04  0.92305053018E+02 0.  0.
         11    1    3    3    0    0 -0.87993728926E+02  0.45811788291E+01  0.57822957477E+03  0.58490454321E+03  0.00000000000E+00 0.  1.
        -11    1    3    3    0    0 -0.17466473106E+03 -0.11497356396E+03  0.18026096616E+04  0.18146978484E+04  0.00000000000E+00 0. -1.
         22    1    1    2    0    0  0.26265845998E+03  0.11039238513E+03 -0.98043952078E+03  0.10209983346E+04  0.00000000000E+00 0.  1.
<mgrwt>
<rscale>  0 0.31207996E+04</rscale>
<asrwt>0</asrwt>
<pdfrwt beam="1">  1        2 0.37084619E+00 0.31207996E+04</pdfrwt>
<pdfrwt beam="2">  1       -2 0.15540008E+00 0.31207996E+04</pdfrwt>
<totfact> 0.90583326E-01</totfact>
</mgrwt>
</event>
<event>
 6    1  0.1588846E-005  0.2839042E+04  0.7818608E-02  0.8291249E-01
          2   -1    0    0  501    0  0.00000000000E+00  0.00000000000E+00  0.27734362046E+04  0.27734362046E+04  0.00000000000E+00 0. -1.
         -2   -1    0    0    0  501 -0.00000000000E+00 -0.00000000000E+00 -0.72655011802E+03  0.72655011802E+03  0.00000000000E+00 0.  1.
         23    2    1    2    0    0 -0.79010748899E+03  0.10390832566E+04  0.34153396422E+03  0.13523854008E+04  0.91306983699E+02 0.  0.
         13    1    3    3    0    0 -0.61589293245E+03  0.83339782971E+03  0.30592516560E+03  0.10804935232E+04  0.00000000000E+00 0. -1.
        -13    1    3    3    0    0 -0.17421455654E+03  0.20568542686E+03  0.35608798623E+02  0.27189187754E+03  0.00000000000E+00 0.  1.
         22    1    1    2    0    0  0.79010748899E+03 -0.10390832566E+04  0.17053521223E+04  0.21476009218E+04  0.00000000000E+00 0. -1.
<mgrwt>
<rscale>  0 0.28390424E+04</rscale>
<asrwt>0</asrwt>
<pdfrwt beam="1">  1        2 0.42668249E+00 0.28390424E+04</pdfrwt>
<pdfrwt beam="2">  1       -2 0.11177694E+00 0.28390424E+04</pdfrwt>
<totfact> 0.13147551E+00</totfact>
</mgrwt>
</event>
<event>
 6    1  0.1588846E-005  0.2024355E+04  0.7818608E-02  0.8595318E-01
          1   -1    0    0  501    0  0.00000000000E+00  0.00000000000E+00  0.22908180781E+04  0.22908180781E+04  0.00000000000E+00 0. -1.
         -1   -1    0    0    0  501 -0.00000000000E+00 -0.00000000000E+00 -0.44722144081E+03  0.44722144081E+03  0.00000000000E+00 0.  1.
         23    2    1    2    0    0  0.17182353201E+03 -0.62072712317E+03  0.19760952880E+04  0.20804823882E+04  0.92891833215E+02 0.  0.
         11    1    3    3    0    0  0.84626965408E+02 -0.16705559463E+03  0.50810911920E+03  0.54152024153E+03  0.00000000000E+00 0. -1.
        -11    1    3    3    0    0  0.87196566606E+02 -0.45367152854E+03  0.14679861688E+04  0.15389621467E+04  0.00000000000E+00 0.  1.
         22    1    1    2    0    0 -0.17182353201E+03  0.62072712317E+03 -0.13249865080E+03  0.65755713064E+03  0.00000000000E+00 0.  1.
<mgrwt>
<rscale>  0 0.20243547E+04</rscale>
<asrwt>0</asrwt>
<pdfrwt beam="1">  1        1 0.35243354E+00 0.20243547E+04</pdfrwt>
<pdfrwt beam="2">  1       -1 0.68803300E-01 0.20243547E+04</pdfrwt>
<totfact> 0.37370090E+00</totfact>
</mgrwt>
</event>
<event>
 6    1  0.1588846E-005  0.1662616E+04  0.7818608E-02  0.8782978E-01
          1   -1    0    0  501    0  0.00000000000E+00  0.00000000000E+00  0.16862769429E+04  0.16862769429E+04  0.00000000000E+00 0. -1.
         -1   -1    0    0    0  501 -0.00000000000E+00 -0.00000000000E+00 -0.40982161989E+03  0.40982161989E+03  0.00000000000E+00 0.  1.
         23    2    1    2    0    0  0.10761787781E+03 -0.73202410613E+03  0.16871141378E+03  0.76398089981E+03  0.88104339028E+02 0.  0.
         11    1    3    3    0    0  0.97741430546E+02 -0.44546972035E+03  0.74080795565E+02  0.46204396248E+03  0.00000000000E+00 0. -1.
        -11    1    3    3    0    0  0.98764472681E+01 -0.28655438578E+03  0.94630618211E+02  0.30193693733E+03  0.00000000000E+00 0.  1.
         22    1    1    2    0    0 -0.10761787781E+03  0.73202410613E+03  0.11077439092E+04  0.13321176630E+04  0.00000000000E+00 0. -1.
<mgrwt>
<rscale>  0 0.16626157E+04</rscale>
<asrwt>0</asrwt>
<pdfrwt beam="1">  1        1 0.25942722E+00 0.16626157E+04</pdfrwt>
<pdfrwt beam="2">  1       -1 0.63049481E-01 0.16626157E+04</pdfrwt>
<totfact> 0.11860984E+01</totfact>
</mgrwt>
</event>
<event>
 6    1  0.1588846E-005  0.9438580E+03  0.7818608E-02  0.9372359E-01
          2   -1    0    0  501    0  0.00000000000E+00  0.00000000000E+00  0.15842664055E+04  0.15842664055E+04  0.00000000000E+00 0. -1.
         -2   -1    0    0    0  501 -0.00000000000E+00 -0.00000000000E+00 -0.14058050337E+03  0.14058050337E+03  0.00000000000E+00 0.  1.
         23    2    1    2    0    0  0.32766745848E+03 -0.10344327130E+03  0.13079540142E+04  0.13554018938E+04  0.91126926919E+02 0.  0.
         13    1    3    3    0    0  0.14609175279E+03 -0.91407409713E+02  0.58112491267E+03  0.60613882808E+03  0.00000000000E+00 0.  1.
        -13    1    3    3    0    0  0.18157570570E+03 -0.12035861585E+02  0.72682910150E+03  0.74926306572E+03  0.00000000000E+00 0. -1.
         22    1    1    2    0    0 -0.32766745848E+03  0.10344327130E+03  0.13573188791E+03  0.36944501502E+03  0.00000000000E+00 0.  1.
<mgrwt>
<rscale>  0 0.94385797E+03</rscale>
<asrwt>0</asrwt>
<pdfrwt beam="1">  1        2 0.24373328E+00 0.94385797E+03</pdfrwt>
<pdfrwt beam="2">  1       -2 0.21627771E-01 0.94385797E+03</pdfrwt>
<totfact> 0.21204557E+02</totfact>
</mgrwt>
</event>
<event>
 6    1  0.1588846E-005  0.3804572E+04  0.7818608E-02  0.8045174E-01
         -1   -1    0    0    0  501 -0.00000000000E+00  0.00000000000E+00  0.14597741434E+04  0.14597741434E+04  0.00000000000E+00 0.  1.
          1   -1    0    0  501    0  0.00000000000E+00 -0.00000000000E+00 -0.24789395171E+04  0.24789395171E+04  0.00000000000E+00 0. -1.
         23    2    1    2    0    0 -0.69002292402E+03  0.12133006360E+04 -0.18462701613E+04  0.23162672366E+04  0.90279199355E+02 0.  0.
         11    1    3    3    0    0 -0.58656191079E+03  0.95979632699E+03 -0.14935254600E+04  0.18697278315E+04  0.00000000000E+00 0.  1.
        -11    1    3    3    0    0 -0.10346101323E+03  0.25350430897E+03 -0.35274470132E+03  0.44653940502E+03  0.00000000000E+00 0. -1.
         22    1    1    2    0    0  0.69002292402E+03 -0.12133006360E+04  0.82710478753E+03  0.16224464239E+04  0.00000000000E+00 0.  1.
<mgrwt>
<rscale>  0 0.38045719E+04</rscale>
<asrwt>0</asrwt>
<pdfrwt beam="1">  1        1 0.38137531E+00 0.38045719E+04</pdfrwt>
<pdfrwt beam="2">  1       -1 0.22458064E+00 0.38045719E+04</pdfrwt>
<totfact> 0.11428625E-01</totfact>
</mgrwt>
</event>
<event>
 6    1  0.1588846E-005  0.3477676E+04  0.7818608E-02  0.8119101E-01
          2   -1    0    0  501    0  0.00000000000E+00  0.00000000000E+00  0.12700873910E+04  0.12700873910E+04  0.00000000000E+00 0. -1.
         -2   -1    0    0    0  501 -0.00000000000E+00 -0.00000000000E+00 -0.23805908485E+04  0.23805908485E+04  0.00000000000E+00 0.  1.
         23    2    1    2    0    0 -0.11626563697E+04  0.84597093266E+03 -0.15798004232E+04  0.21381716131E+04  0.92584106327E+02 0.  0.
         11    1    3    3    0    0 -0.29979430761E+03  0.21545689839E+03 -0.34723929910E+03  0.50682682721E+03  0.00000000000E+00 0.  1.
        -11    1    3    3    0    0 -0.86286206211E+03  0.63051403427E+03 -0.12325611241E+04  0.16313447858E+04  0.00000000000E+00 0. -1.
         22    1    1    2    0    0  0.11626563697E+04 -0.84597093266E+03  0.46929696574E+03  0.15125066264E+04  0.00000000000E+00 0. -1.
<mgrwt>
<rscale>  0 0.34776765E+04</rscale>
<asrwt>0</asrwt>
<pdfrwt beam="1">  1        2 0.19539806E+00 0.34776765E+04</pdfrwt>
<pdfrwt beam="2">  1       -2 0.36624474E+00 0.34776765E+04</pdfrwt>
<totfact> 0.17375798E-01</totfact>
</mgrwt>
</event>
<event>
 6    1  0.1588846E-005  0.9143152E+03  0.7818608E-02  0.9407862E-01
          2   -1    0    0  501    0  0.00000000000E+00  0.00000000000E+00  0.80008376360E+03  0.80008376360E+03  0.00000000000E+00 0. -1.
         -2   -1    0    0    0  501 -0.00000000000E+00 -0.00000000000E+00 -0.26121397572E+03  0.26121397572E+03  0.00000000000E+00 0.  1.
         23    2    1    2    0    0  0.44536313708E+03  0.41285131032E+02  0.35185588962E+03  0.57650192245E+03  0.92190637336E+02 0.  0.
         11    1    3    3    0    0  0.36489043888E+03  0.19578566774E+01  0.30408203336E+03  0.47498920893E+03  0.00000000000E+00 0. -1.
        -11    1    3    3    0    0  0.80472698197E+02  0.39327274355E+02  0.47773856262E+02  0.10151271352E+03  0.00000000000E+00 0.  1.
         22    1    1    2    0    0 -0.44536313708E+03 -0.41285131032E+02  0.18701389826E+03  0.48479581687E+03  0.00000000000E+00 0. -1.
<mgrwt>
<rscale>  0 0.91431518E+03</rscale>
<asrwt>0</asrwt>
<pdfrwt beam="1">  1        2 0.12308981E+00 0.91431518E+03</pdfrwt>
<pdfrwt beam="2">  1       -2 0.40186766E-01 0.91431518E+03</pdfrwt>
<totfact> 0.20217937E+02</totfact>
</mgrwt>
</event>
<event>
 6    1  0.1588846E-005  0.4119976E+04  0.7818608E-02  0.7980771E-01
         -2   -1    0    0    0  501 -0.00000000000E+00  0.00000000000E+00  0.11545327453E+04  0.11545327453E+04  0.00000000000E+00 0.  1.
          2   -1    0    0  501    0  0.00000000000E+00 -0.00000000000E+00 -0.36755570338E+04  0.36755570338E+04  0.00000000000E+00 0. -1.
         23    2    1    2    0    0  0.70461544071E+03 -0.17455405699E+04 -0.22392836214E+04  0.29267315353E+04  0.89283494904E+02 0.  0.
         13    1    3    3    0    0  0.31465255792E+03 -0.66954293351E+03 -0.90158369516E+03  0.11662534593E+04  0.00000000000E+00 0.  1.
        -13    1    3    3    0    0  0.38996288279E+03 -0.10759976364E+04 -0.13376999262E+04  0.17604780760E+04  0.00000000000E+00 0. -1.
         22    1    1    2    0    0 -0.70461544071E+03  0.17455405699E+04 -0.28174066721E+03  0.19033582438E+04  0.00000000000E+00 0.  1.
<mgrwt>
<rscale>  0 0.41199762E+04</rscale>
<asrwt>0</asrwt>
<pdfrwt beam="1">  1        2 0.56547031E+00 0.41199762E+04</pdfrwt>
<pdfrwt beam="2">  1       -2 0.17762042E+00 0.41199762E+04</pdfrwt>
<totfact> 0.89316161E-02</totfact>
</mgrwt>
</event>
<event>
 6    1  0.1588846E-005  0.2080731E+04  0.7818608E-02  0.8569779E-01
          1   -1    0    0  501    0  0.00000000000E+00  0.00000000000E+00  0.82489214416E+03  0.82489214416E+03  0.00000000000E+00 0. -1.
         -1   -1    0    0    0  501 -0.00000000000E+00 -0.00000000000E+00 -0.13121238311E+04  0.13121238311E+04  0.00000000000E+00 0.  1.
         23    2    1    2    0    0 -0.39006000732E+02  0.42602073862E+03  0.72765838915E+03  0.84900470403E+03  0.91143394329E+02 0.  0.
         13    1    3    3    0    0 -0.56375035356E+02  0.17987670800E+03  0.27400923157E+03  0.33258808409E+03  0.00000000000E+00 0. -1.
        -13    1    3    3    0    0  0.17369034624E+02  0.24614403061E+03  0.45364915758E+03  0.51641661993E+03  0.00000000000E+00 0.  1.
         22    1    1    2    0    0  0.39006000732E+02 -0.42602073862E+03 -0.12148900761E+04  0.12880112713E+04  0.00000000000E+00 0.  1.
<mgrwt>
<rscale>  0 0.20807313E+04</rscale>
<asrwt>0</asrwt>
<pdfrwt beam="1">  1        1 0.12690648E+00 0.20807313E+04</pdfrwt>
<pdfrwt beam="2">  1       -1 0.20186520E+00 0.20807313E+04</pdfrwt>
<totfact> 0.28316024E+00</totfact>
</mgrwt>
</event>
<event>
 6    1  0.1588846E-005  0.4174934E+04  0.7818608E-02  0.7970157E-01
          2   -1    0    0  501    0  0.00000000000E+00  0.00000000000E+00  0.35821569111E+04  0.35821569111E+04  0.00000000000E+00 0. -1.
         -2   -1    0    0    0  501 -0.00000000000E+00 -0.00000000000E+00 -0.12164512304E+04  0.12164512304E+04  0.00000000000E+00 0.  1.
         23    2    1    2    0    0  0.68281693336E+03 -0.18840832865E+04  0.18488716419E+04  0.27290366355E+04  0.11535083135E+03 0.  0.
         11    1    3    3    0    0  0.27261353457E+03 -0.78160445028E+03  0.84019182115E+03  0.11794685041E+04  0.00000000000E+00 0. -1.
        -11    1    3    3    0    0  0.41020339878E+03 -0.11024788363E+04  0.10086798208E+04  0.15495681313E+04  0.00000000000E+00 0.  1.
         22    1    1    2    0    0 -0.68281693336E+03  0.18840832865E+04  0.51683403878E+03  0.20695715061E+04  0.00000000000E+00 0. -1.
<mgrwt>
<rscale>  0 0.41749343E+04</rscale>
<asrwt>0</asrwt>
<pdfrwt beam="1">  1        2 0.55110106E+00 0.41749343E+04</pdfrwt>
<pdfrwt beam="2">  1       -2 0.18714635E+00 0.41749343E+04</pdfrwt>
<totfact> 0.89421067E-02</totfact>
</mgrwt>
</event>
<event>
 6    1  0.1588846E-005  0.7972907E+03  0.7818608E-02  0.9563947E-01
         -1   -1    0    0    0  501 -0.00000000000E+00  0.00000000000E+00  0.72890486070E+02  0.72890486070E+02  0.00000000000E+00 0.  1.
          1   -1    0    0  501    0  0.00000000000E+00 -0.00000000000E+00 -0.21802313064E+04  0.21802313064E+04  0.00000000000E+00 0. -1.
         23    2    1    2    0    0  0.18963754008E+03 -0.34330940393E+03 -0.11395950098E+04  0.12089208074E+04  0.94810277655E+02 0.  0.
         13    1    3    3    0    0  0.96601801928E+02 -0.93807763901E+02 -0.44940136176E+03  0.46914111806E+03  0.00000000000E+00 0. -1.
        -13    1    3    3    0    0  0.93035738153E+02 -0.24950164003E+03 -0.69019364801E+03  0.73977968930E+03  0.00000000000E+00 0.  1.
         22    1    1    2    0    0 -0.18963754008E+03  0.34330940393E+03 -0.96774581053E+03  0.10442009851E+04  0.00000000000E+00 0.  1.
<mgrwt>
<rscale>  0 0.79729071E+03</rscale>
<asrwt>0</asrwt>
<pdfrwt beam="1">  1        1 0.33542021E+00 0.79729071E+03</pdfrwt>
<pdfrwt beam="2">  1       -1 0.11213921E-01 0.79729071E+03</pdfrwt>
<totfact> 0.12165356E+02</totfact>
</mgrwt>
</event>
<event>
 6    1  0.1588846E-005  0.2169358E+04  0.7818608E-02  0.8531291E-01
          1   -1    0    0  501    0  0.00000000000E+00  0.00000000000E+00  0.10988008307E+04  0.10988008307E+04  0.00000000000E+00 0. -1.
         -1   -1    0    0    0  501 -0.00000000000E+00 -0.00000000000E+00 -0.10707384015E+04  0.10707384015E+04  0.00000000000E+00 0.  1.
         23    2    1    2    0    0  0.68437779887E+03  0.35394973024E+03 -0.74671161319E+03  0.10768690167E+04  0.91734740904E+02 0.  0.
         13    1    3    3    0    0  0.44636129056E+03  0.18787081981E+03 -0.49800542062E+03  0.69465332765E+03  0.00000000000E+00 0.  1.
        -13    1    3    3    0    0  0.23801650831E+03  0.16607891044E+03 -0.24870619257E+03  0.38221568903E+03  0.00000000000E+00 0. -1.
         22    1    1    2    0    0 -0.68437779887E+03 -0.35394973024E+03  0.77477404243E+03  0.10926702156E+04  0.00000000000E+00 0. -1.
<mgrwt>
<rscale>  0 0.21693577E+04</rscale>
<asrwt>0</asrwt>
<pdfrwt beam="1">  1        1 0.16904628E+00 0.21693577E+04</pdfrwt>
<pdfrwt beam="2">  1       -1 0.16472899E+00 0.21693577E+04</pdfrwt>
<totfact> 0.31272689E+00</totfact>
</mgrwt>
</event>
<event>
 6    1  0.1588846E-005  0.4121820E+04  0.7818608E-02  0.7980413E-01
          2   -1    0    0  501    0  0.00000000000E+00  0.00000000000E+00  0.24135486124E+04  0.24135486124E+04  0.00000000000E+00 0.  1.
         -2   -1    0    0    0  501 -0.00000000000E+00 -0.00000000000E+00 -0.17597945238E+04  0.17597945238E+04  0.00000000000E+00 0. -1.
         23    2    1    2    0    0  0.15440661218E+04  0.14679439752E+03 -0.10455217581E+04  0.18726416808E+04  0.89343910535E+02 0.  0.
         13    1    3    3    0    0  0.13623608875E+04  0.12804317059E+03 -0.95581743671E+03  0.16691342707E+04  0.00000000000E+00 0. -1.
        -13    1    3    3    0    0  0.18170523432E+03  0.18751226933E+02 -0.89704321375E+02  0.20350741009E+03  0.00000000000E+00 0.  1.
         22    1    1    2    0    0 -0.15440661218E+04 -0.14679439752E+03  0.16992758467E+04  0.23007014554E+04  0.00000000000E+00 0. -1.
<mgrwt>
<rscale>  0 0.41218198E+04</rscale>
<asrwt>0</asrwt>
<pdfrwt beam="1">  1        2 0.37131517E+00 0.41218198E+04</pdfrwt>
<pdfrwt beam="2">  1       -2 0.27073762E+00 0.41218198E+04</pdfrwt>
<totfact> 0.14632590E-01</totfact>
</mgrwt>
</event>
<event>
 6    1  0.1588846E-005  0.3376882E+04  0.7818608E-02  0.8143604E-01
         -1   -1    0    0    0  501 -0.00000000000E+00  0.00000000000E+00  0.18983402916E+04  0.18983402916E+04  0.00000000000E+00 0.  1.
          1   -1    0    0  501    0  0.00000000000E+00 -0.00000000000E+00 -0.15017505760E+04  0.15017505760E+04  0.00000000000E+00 0. -1.
         23    2    1    2    0    0  0.65394623651E+03  0.43675528842E+03 -0.13046214223E+04  0.15259189978E+04  0.89391667340E+02 0.  0.
         13    1    3    3    0    0  0.16000475578E+03  0.11515415844E+03 -0.40464956412E+03  0.45011473184E+03  0.00000000000E+00 0. -1.
        -13    1    3    3    0    0  0.49394148073E+03  0.32160112999E+03 -0.89997185815E+03  0.10758042660E+04  0.00000000000E+00 0.  1.
         22    1    1    2    0    0 -0.65394623651E+03 -0.43675528842E+03  0.17012111378E+04  0.18741718698E+04  0.00000000000E+00 0.  1.
<mgrwt>
<rscale>  0 0.33768824E+04</rscale>
<asrwt>0</asrwt>
<pdfrwt beam="1">  1        1 0.23103855E+00 0.33768824E+04</pdfrwt>
<pdfrwt beam="2">  1       -1 0.29205235E+00 0.33768824E+04</pdfrwt>
<totfact> 0.19992423E-01</totfact>
</mgrwt>
</event>
<event>
 6    1  0.1588846E-005  0.3122700E+04  0.7818608E-02  0.8209536E-01
          2   -1    0    0  501    0  0.00000000000E+00  0.00000000000E+00  0.31973697166E+04  0.31973697166E+04  0.00000000000E+00 0. -1.
         -2   -1    0    0    0  501 -0.00000000000E+00 -0.00000000000E+00 -0.76244329335E+03  0.76244329335E+03  0.00000000000E+00 0.  1.
         23    2    1    2    0    0  0.59250869394E+03  0.11000829650E+04  0.24027931982E+04  0.27099003625E+04  0.94317225999E+02 0.  0.
         11    1    3    3    0    0  0.25922241587E+03  0.38596386540E+03  0.90384338602E+03  0.10164139082E+04  0.00000000000E+00 0.  1.
        -11    1    3    3    0    0  0.33328627807E+03  0.71411909960E+03  0.14989498121E+04  0.16934864543E+04  0.00000000000E+00 0. -1.
         22    1    1    2    0    0 -0.59250869394E+03 -0.11000829650E+04  0.32133225143E+02  0.12499126475E+04  0.00000000000E+00 0.  1.
<mgrwt>
<rscale>  0 0.31226995E+04</rscale>
<asrwt>0</asrwt>
<pdfrwt beam="1">  1        2 0.49190303E+00 0.31226995E+04</pdfrwt>
<pdfrwt beam="2">  1       -2 0.11729897E+00 0.31226995E+04</pdfrwt>
<totfact> 0.61923368E-01</totfact>
</mgrwt>
</event>
<event>
 6    1  0.1588846E-005  0.3726921E+04  0.7818608E-02  0.8062022E-01
         -2   -1    0    0    0  501 -0.00000000000E+00  0.00000000000E+00  0.25260291942E+04  0.25260291942E+04  0.00000000000E+00 0.  1.
          2   -1    0    0  501    0  0.00000000000E+00 -0.00000000000E+00 -0.13746814410E+04  0.13746814410E+04  0.00000000000E+00 0. -1.
         23    2    1    2    0    0 -0.17490285958E+04  0.11292092558E+03 -0.83385725335E+02  0.17567845807E+04  0.86525830612E+02 0.  0.
         13    1    3    3    0    0 -0.14978537284E+04  0.11768558122E+03 -0.49455907875E+02  0.15032835975E+04  0.00000000000E+00 0. -1.
        -13    1    3    3    0    0 -0.25117486738E+03 -0.47646556358E+01 -0.33929817460E+02  0.25350098315E+03  0.00000000000E+00 0.  1.
         22    1    1    2    0    0  0.17490285958E+04 -0.11292092558E+03  0.12347334785E+04  0.21439260545E+04  0.00000000000E+00 0.  1.
<mgrwt>
<rscale>  0 0.37269212E+04</rscale>
<asrwt>0</asrwt>
<pdfrwt beam="1">  1        2 0.21148945E+00 0.37269212E+04</pdfrwt>
<pdfrwt beam="2">  1       -2 0.38861987E+00 0.37269212E+04</pdfrwt>
<totfact> 0.10620147E-01</totfact>
</mgrwt>
</event>
<event>
 6    1  0.1588846E-005  0.1509370E+04  0.7818608E-02  0.8878246E-01
         -2   -1    0    0    0  501 -0.00000000000E+00  0.00000000000E+00  0.11155802151E+04  0.11155802151E+04  0.00000000000E+00 0.  1.
          2   -1    0    0  501    0  0.00000000000E+00 -0.00000000000E+00 -0.51054092252E+03  0.51054092252E+03  0.00000000000E+00 0. -1.
         23    2    1    2    0    0  0.63656958685E+03 -0.33725189867E+03  0.53531796450E+03  0.90236652065E+03  0.93489745016E+02 0.  0.
         13    1    3    3    0    0  0.30419763244E+03 -0.11170423105E+03  0.25871876352E+03  0.41466785915E+03  0.00000000000E+00 0. -1.
        -13    1    3    3    0    0  0.33237195440E+03 -0.22554766763E+03  0.27659920098E+03  0.48769866150E+03  0.00000000000E+00 0.  1.
         22    1    1    2    0    0 -0.63656958685E+03  0.33725189867E+03  0.69721328127E+02  0.72375461702E+03  0.00000000000E+00 0. -1.
<mgrwt>
<rscale>  0 0.15093699E+04</rscale>
<asrwt>0</asrwt>
<pdfrwt beam="1">  1        2 0.78544758E-01 0.15093699E+04</pdfrwt>
<pdfrwt beam="2">  1       -2 0.17162772E+00 0.15093699E+04</pdfrwt>
<totfact> 0.12029739E+01</totfact>
</mgrwt>
</event>
<event>
 6    1  0.1588846E-005  0.4601318E+04  0.7818608E-02  0.7893135E-01
         -2   -1    0    0    0  501 -0.00000000000E+00  0.00000000000E+00  0.45584541314E+04  0.45584541314E+04  0.00000000000E+00 0.  1.
          2   -1    0    0  501    0  0.00000000000E+00 -0.00000000000E+00 -0.11611460044E+04  0.11611460044E+04  0.00000000000E+00 0. -1.
         23    2    1    2    0    0 -0.86176498451E+03  0.26169835706E+03 -0.93090963169E+03  0.12986733228E+04  0.93993288729E+02 0.  0.
         13    1    3    3    0    0 -0.49602546364E+03  0.19077366220E+03 -0.58397248711E+03  0.78959465327E+03  0.00000000000E+00 0.  1.
        -13    1    3    3    0    0 -0.36573952087E+03  0.70924694857E+02 -0.34693714457E+03  0.50907866951E+03  0.00000000000E+00 0. -1.
         22    1    1    2    0    0  0.86176498451E+03 -0.26169835706E+03  0.43282177587E+04  0.44209268130E+04  0.00000000000E+00 0.  1.
<mgrwt>
<rscale>  0 0.46013176E+04</rscale>
<asrwt>0</asrwt>
<pdfrwt beam="1">  1        2 0.17863785E+00 0.46013176E+04</pdfrwt>
<pdfrwt beam="2">  1       -2 0.70130063E+00 0.46013176E+04</pdfrwt>
<totfact> 0.33984141E-03</totfact>
</mgrwt>
</event>
<event>
 6    1  0.1588846E-005  0.2720230E+04  0.7818608E-02  0.8328471E-01
          2   -1    0    0  501    0  0.00000000000E+00  0.00000000000E+00  0.40436521420E+04  0.40436521420E+04  0.00000000000E+00 0. -1.
         -2   -1    0    0    0  501 -0.00000000000E+00 -0.00000000000E+00 -0.45748568468E+03  0.45748568468E+03  0.00000000000E+00 0.  1.
         23    2    1    2    0    0  0.12810926449E+04  0.29884761559E+03  0.12350335293E+04  0.18070082256E+04  0.97276137184E+02 0.  0.
         13    1    3    3    0    0  0.53917362651E+03  0.15110438353E+03  0.58225258863E+03  0.80781112348E+03  0.00000000000E+00 0. -1.
        -13    1    3    3    0    0  0.74191901836E+03  0.14774323205E+03  0.65278094070E+03  0.99919710216E+03  0.00000000000E+00 0.  1.
         22    1    1    2    0    0 -0.12810926449E+04 -0.29884761559E+03  0.23511329280E+04  0.26941296010E+04  0.00000000000E+00 0.  1.
<mgrwt>
<rscale>  0 0.27202301E+04</rscale>
<asrwt>0</asrwt>
<pdfrwt beam="1">  1        2 0.62210031E+00 0.27202301E+04</pdfrwt>
<pdfrwt beam="2">  1       -2 0.70382416E-01 0.27202301E+04</pdfrwt>
<totfact> 0.50778737E-01</totfact>
</mgrwt>
</event>
<event>
 6    1  0.1588846E-005  0.6705793E+04  0.7818608E-02  0.7608562E-01
          2   -1    0    0  501    0  0.00000000000E+00  0.00000000000E+00  0.30090022605E+04  0.30090022605E+04  0.00000000000E+00 0.  1.
         -2   -1    0    0    0  501 -0.00000000000E+00 -0.00000000000E+00 -0.37360933687E+04  0.37360933687E+04  0.00000000000E+00 0. -1.
         23    2    1    2    0    0  0.14697306340E+04 -0.30128646387E+04 -0.36451090914E+03  0.33733118477E+04  0.94356512429E+02 0.  0.
         11    1    3    3    0    0  0.10591723840E+04 -0.21131507586E+04 -0.22206361222E+03  0.23741450072E+04  0.00000000000E+00 0. -1.
        -11    1    3    3    0    0  0.41055825005E+03 -0.89971388012E+03 -0.14244729692E+03  0.99916684051E+03  0.00000000000E+00 0.  1.
         22    1    1    2    0    0 -0.14697306340E+04  0.30128646387E+04 -0.36258019908E+03  0.33717837814E+04  0.00000000000E+00 0.  1.
<mgrwt>
<rscale>  0 0.67057925E+04</rscale>
<asrwt>0</asrwt>
<pdfrwt beam="1">  1        2 0.46292343E+00 0.67057925E+04</pdfrwt>
<pdfrwt beam="2">  1       -2 0.57478359E+00 0.67057925E+04</pdfrwt>
<totfact> 0.72843331E-04</totfact>
</mgrwt>
</event>
<event>
 6    1  0.1588846E-005  0.2908944E+04  0.7818608E-02  0.8270221E-01
          1   -1    0    0  501    0  0.00000000000E+00  0.00000000000E+00  0.16808684012E+04  0.16808684012E+04  0.00000000000E+00 0. -1.
         -1   -1    0    0    0  501 -0.00000000000E+00 -0.00000000000E+00 -0.12585691906E+04  0.12585691906E+04  0.00000000000E+00 0.  1.
         23    2    1    2    0    0 -0.11733433928E+02  0.86444632939E+03 -0.96904072499E+03  0.13013802221E+04  0.84530621694E+02 0.  0.
         11    1    3    3    0    0 -0.23039090249E+02  0.64759076764E+03 -0.67321908823E+03  0.93441347528E+03  0.00000000000E+00 0.  1.
        -11    1    3    3    0    0  0.11305656321E+02  0.21685556174E+03 -0.29582163676E+03  0.36696674686E+03  0.00000000000E+00 0. -1.
         22    1    1    2    0    0  0.11733433928E+02 -0.86444632939E+03  0.13913399356E+04  0.16380573697E+04  0.00000000000E+00 0. -1.
<mgrwt>
<rscale>  0 0.29089443E+04</rscale>
<asrwt>0</asrwt>
<pdfrwt beam="1">  1        1 0.25859514E+00 0.29089443E+04</pdfrwt>
<pdfrwt beam="2">  1       -1 0.19362603E+00 0.29089443E+04</pdfrwt>
<totfact> 0.70211750E-01</totfact>
</mgrwt>
</event>
<event>
 6    1  0.1588846E-005  0.2183469E+04  0.7818608E-02  0.8525340E-01
         -2   -1    0    0    0  501 -0.00000000000E+00  0.00000000000E+00  0.38787794320E+03  0.38787794320E+03  0.00000000000E+00 0.  1.
          2   -1    0    0  501    0  0.00000000000E+00 -0.00000000000E+00 -0.30728337626E+04  0.30728337626E+04  0.00000000000E+00 0. -1.
         23    2    1    2    0    0  0.62767440968E+03 -0.51358871718E+03 -0.24986841098E+04  0.26285784925E+04  0.90851942352E+02 0.  0.
         13    1    3    3    0    0  0.21012371156E+03 -0.21536969432E+03 -0.83459958427E+03  0.88718236313E+03  0.00000000000E+00 0.  1.
        -13    1    3    3    0    0  0.41755069812E+03 -0.29821902287E+03 -0.16640845255E+04  0.17413961293E+04  0.00000000000E+00 0. -1.
         22    1    1    2    0    0 -0.62767440968E+03  0.51358871718E+03 -0.18627170963E+03  0.83213321337E+03  0.00000000000E+00 0. -1.
<mgrwt>
<rscale>  0 0.21834692E+04</rscale>
<asrwt>0</asrwt>
<pdfrwt beam="1">  1        2 0.47274364E+00 0.21834692E+04</pdfrwt>
<pdfrwt beam="2">  1       -2 0.59673532E-01 0.21834692E+04</pdfrwt>
<totfact> 0.37616029E+00</totfact>
</mgrwt>
</event>
<event>
 6    1  0.1588846E-005  0.2972496E+04  0.7818608E-02  0.8251629E-01
         -1   -1    0    0    0  501 -0.00000000000E+00  0.00000000000E+00  0.58181766806E+03  0.58181766806E+03  0.00000000000E+00 0.  1.
          1   -1    0    0  501    0  0.00000000000E+00 -0.00000000000E+00 -0.37966061907E+04  0.37966061907E+04  0.00000000000E+00 0. -1.
         23    2    1    2    0    0 -0.13458744294E+04 -0.25655964668E+03 -0.76597657895E+03  0.15723802441E+04  0.91971084594E+02 0.  0.
         11    1    3    3    0    0 -0.59860049624E+03 -0.92891543724E+02 -0.38519738303E+03  0.71786378714E+03  0.00000000000E+00 0. -1.
        -11    1    3    3    0    0 -0.74727393316E+03 -0.16366810296E+03 -0.38077919592E+03  0.85451645693E+03  0.00000000000E+00 0.  1.
         22    1    1    2    0    0  0.13458744294E+04  0.25655964668E+03 -0.24488119437E+04  0.28060436147E+04  0.00000000000E+00 0.  1.
<mgrwt>
<rscale>  0 0.29724956E+04</rscale>
<asrwt>0</asrwt>
<pdfrwt beam="1">  1        1 0.58409327E+00 0.29724956E+04</pdfrwt>
<pdfrwt beam="2">  1       -1 0.89510409E-01 0.29724956E+04</pdfrwt>
<totfact> 0.14951674E-01</totfact>
</mgrwt>
</event>
<event>
 6    1  0.1588846E-005  0.5124070E+04  0.7818608E-02  0.7809648E-01
          1   -1    0    0  501    0  0.00000000000E+00  0.00000000000E+00  0.25014553589E+04  0.25014553589E+04  0.00000000000E+00 0. -1.
         -1   -1    0    0    0  501 -0.00000000000E+00 -0.00000000000E+00 -0.26240812607E+04  0.26240812607E+04  0.00000000000E+00 0.  1.
         23    2    1    2    0    0 -0.13438151795E+04 -0.21652665457E+04  0.19544110429E+03  0.25573884403E+04  0.88430530562E+02 0.  0.
         13    1    3    3    0    0 -0.92911519111E+03 -0.14561345957E+04  0.16776874841E+03  0.17354334767E+04  0.00000000000E+00 0.  1.
        -13    1    3    3    0    0 -0.41469998839E+03 -0.70913195007E+03  0.27672355883E+02  0.82195496364E+03  0.00000000000E+00 0. -1.
         22    1    1    2    0    0  0.13438151795E+04  0.21652665457E+04 -0.31806700610E+03  0.25681481793E+04  0.00000000000E+00 0.  1.
<mgrwt>
<rscale>  0 0.51240695E+04</rscale>
<asrwt>0</asrwt>
<pdfrwt beam="1">  1        1 0.38483929E+00 0.51240695E+04</pdfrwt>
<pdfrwt beam="2">  1       -1 0.40370481E+00 0.51240695E+04</pdfrwt>
<totfact> 0.65247306E-03</totfact>
</mgrwt>
</event>
<event>
 6    1  0.1588846E-005  0.2251071E+04  0.7818608E-02  0.8497467E-01
          2   -1    0    0  501    0  0.00000000000E+00  0.00000000000E+00  0.25021404141E+04  0.25021404141E+04  0.00000000000E+00 0. -1.
         -2   -1    0    0    0  501 -0.00000000000E+00 -0.00000000000E+00 -0.50629844341E+03  0.50629844341E+03  0.00000000000E+00 0.  1.
         23    2    1    2    0    0 -0.64527049038E+03  0.16583641557E+03  0.22088153464E+04  0.23089866567E+04  0.93158057523E+02 0.  0.
         13    1    3    3    0    0 -0.16283501590E+03  0.86800121041E+00  0.52657465945E+03  0.55117770982E+03  0.00000000000E+00 0. -1.
        -13    1    3    3    0    0 -0.48243547448E+03  0.16496841436E+03  0.16822406869E+04  0.17578089468E+04  0.00000000000E+00 0.  1.
         22    1    1    2    0    0  0.64527049038E+03 -0.16583641557E+03 -0.21297337573E+03  0.69945220083E+03  0.00000000000E+00 0.  1.
<mgrwt>
<rscale>  0 0.22510707E+04</rscale>
<asrwt>0</asrwt>
<pdfrwt beam="1">  1        2 0.38494467E+00 0.22510707E+04</pdfrwt>
<pdfrwt beam="2">  1       -2 0.77892070E-01 0.22510707E+04</pdfrwt>
<totfact> 0.46373918E+00</totfact>
</mgrwt>
</event>
<event>
 6    1  0.1588846E-005  0.2641636E+04  0.7818608E-02  0.8354194E-01
          2   -1    0    0  501    0  0.00000000000E+00  0.00000000000E+00  0.76599725024E+03  0.76599725024E+03  0.00000000000E+00 0. -1.
         -2   -1    0    0    0  501 -0.00000000000E+00 -0.00000000000E+00 -0.22775013272E+04  0.22775013272E+04  0.00000000000E+00 0.  1.
         23    2    1    2    0    0 -0.12028780603E+04 -0.18516951878E+03 -0.17013647026E+03  0.12322916774E+04  0.91613214433E+02 0.  0.
         13    1    3    3    0    0 -0.87314340885E+03 -0.17476918055E+03 -0.11617935923E+03  0.89800964494E+03  0.00000000000E+00 0. -1.
        -13    1    3    3    0    0 -0.32973465142E+03 -0.10400338229E+02 -0.53957111031E+02  0.33428203244E+03  0.00000000000E+00 0.  1.
         22    1    1    2    0    0  0.12028780603E+04  0.18516951878E+03 -0.13413676067E+04  0.18112069001E+04  0.00000000000E+00 0.  1.
<mgrwt>
<rscale>  0 0.26416357E+04</rscale>
<asrwt>0</asrwt>
<pdfrwt beam="1">  1        2 0.11784573E+00 0.26416357E+04</pdfrwt>
<pdfrwt beam="2">  1       -2 0.35038482E+00 0.26416357E+04</pdfrwt>
<totfact> 0.49764543E-01</totfact>
</mgrwt>
</event>
<event>
 6    1  0.1588846E-005  0.2286347E+04  0.7818608E-02  0.8483324E-01
         -2   -1    0    0    0  501 -0.00000000000E+00  0.00000000000E+00  0.76766324839E+03  0.76766324839E+03  0.00000000000E+00 0. -1.
          2   -1    0    0  501    0  0.00000000000E+00 -0.00000000000E+00 -0.17023690975E+04  0.17023690975E+04  0.00000000000E+00 0.  1.
         23    2    1    2    0    0  0.11985805717E+03 -0.99926455833E+03 -0.10495079969E+04  0.14570786725E+04  0.93357436523E+02 0.  0.
         11    1    3    3    0    0  0.59520451574E+02 -0.36750308940E+03 -0.32795673764E+03  0.49614194202E+03  0.00000000000E+00 0.  1.
        -11    1    3    3    0    0  0.60337605596E+02 -0.63176146893E+03 -0.72155125924E+03  0.96093673048E+03  0.00000000000E+00 0. -1.
         22    1    1    2    0    0 -0.11985805717E+03  0.99926455833E+03  0.11480214772E+03  0.10129536734E+04  0.00000000000E+00 0. -1.
<mgrwt>
<rscale>  0 0.22863475E+04</rscale>
<asrwt>0</asrwt>
<pdfrwt beam="1">  1        2 0.26190294E+00 0.22863475E+04</pdfrwt>
<pdfrwt beam="2">  1       -2 0.11810204E+00 0.22863475E+04</pdfrwt>
<totfact> 0.49026877E+00</totfact>
</mgrwt>
</event>
<event>
 6    1  0.1588846E-005  0.1953714E+04  0.7818608E-02  0.8628572E-01
         -2   -1    0    0    0  501 -0.00000000000E+00  0.00000000000E+00  0.51966628864E+03  0.51966628864E+03  0.00000000000E+00 0.  1.
          2   -1    0    0  501    0  0.00000000000E+00 -0.00000000000E+00 -0.18362738101E+04  0.18362738101E+04  0.00000000000E+00 0. -1.
         23    2    1    2    0    0  0.50506646845E+03 -0.74031207905E+03 -0.11219476759E+04  0.14388541881E+04  0.91546027671E+02 0.  0.
         13    1    3    3    0    0  0.39431800470E+02 -0.11239786510E+03 -0.14559149326E+03  0.18810909036E+03  0.00000000000E+00 0. -1.
        -13    1    3    3    0    0  0.46563466798E+03 -0.62791421395E+03 -0.97635618268E+03  0.12507450978E+04  0.00000000000E+00 0.  1.
         22    1    1    2    0    0 -0.50506646845E+03  0.74031207905E+03 -0.19465984548E+03  0.91708591058E+03  0.00000000000E+00 0.  1.
<mgrwt>
<rscale>  0 0.19537140E+04</rscale>
<asrwt>0</asrwt>
<pdfrwt beam="1">  1        2 0.28250367E+00 0.19537140E+04</pdfrwt>
<pdfrwt beam="2">  1       -2 0.79948659E-01 0.19537140E+04</pdfrwt>
<totfact> 0.10633408E+01</totfact>
</mgrwt>
</event>
<event>
 6    1  0.1588846E-005  0.3017796E+04  0.7818608E-02  0.8238667E-01
          2   -1    0    0  501    0  0.00000000000E+00  0.00000000000E+00  0.33854066968E+04  0.33854066968E+04  0.00000000000E+00 0.  1.
         -2   -1    0    0    0  501 -0.00000000000E+00 -0.00000000000E+00 -0.67252564077E+03  0.67252564077E+03  0.00000000000E+00 0. -1.
         23    2    1    2    0    0  0.16121290561E+03  0.12207673641E+04  0.25267935984E+04  0.28125845547E+04  0.98404421383E+02 0.  0.
         13    1    3    3    0    0  0.16390429121E+03  0.11229401004E+04  0.22722914850E+04  0.25399148959E+04  0.00000000000E+00 0. -1.
        -13    1    3    3    0    0 -0.26913855933E+01  0.97827263712E+02  0.25450211348E+03  0.27266965883E+03  0.00000000000E+00 0.  1.
         22    1    1    2    0    0 -0.16121290561E+03 -0.12207673641E+04  0.18608745754E+03  0.12453477828E+04  0.00000000000E+00 0. -1.
<mgrwt>
<rscale>  0 0.30177958E+04</rscale>
<asrwt>0</asrwt>
<pdfrwt beam="1">  1        2 0.52083179E+00 0.30177958E+04</pdfrwt>
<pdfrwt beam="2">  1       -2 0.10346548E+00 0.30177958E+04</pdfrwt>
<totfact> 0.63445457E-01</totfact>
</mgrwt>
</event>
<event>
 6    1  0.1588846E-005  0.3851415E+04  0.7818608E-02  0.8035210E-01
          2   -1    0    0  501    0  0.00000000000E+00  0.00000000000E+00  0.35123312523E+04  0.35123312523E+04  0.00000000000E+00 0. -1.
         -2   -1    0    0    0  501 -0.00000000000E+00 -0.00000000000E+00 -0.10558085819E+04  0.10558085819E+04  0.00000000000E+00 0.  1.
         23    2    1    2    0    0 -0.14185412454E+04 -0.10028884818E+04  0.24619112112E+03  0.17568038298E+04  0.87778450782E+02 0.  0.
         11    1    3    3    0    0 -0.11227584877E+04 -0.75541376688E+03  0.17270366105E+03  0.13642078784E+04  0.00000000000E+00 0. -1.
        -11    1    3    3    0    0 -0.29578275771E+03 -0.24747471491E+03  0.73487460067E+02  0.39259595141E+03  0.00000000000E+00 0.  1.
         22    1    1    2    0    0  0.14185412454E+04  0.10028884818E+04  0.22103315493E+04  0.28113360044E+04  0.00000000000E+00 0. -1.
<mgrwt>
<rscale>  0 0.38514151E+04</rscale>
<asrwt>0</asrwt>
<pdfrwt beam="1">  1        2 0.54035865E+00 0.38514151E+04</pdfrwt>
<pdfrwt beam="2">  1       -2 0.16243209E+00 0.38514151E+04</pdfrwt>
<totfact> 0.15352594E-01</totfact>
</mgrwt>
</event>
<event>
 6    1  0.1588846E-005  0.1544084E+04  0.7818608E-02  0.8855655E-01
          2   -1    0    0  501    0  0.00000000000E+00  0.00000000000E+00  0.85010176696E+03  0.85010176696E+03  0.00000000000E+00 0. -1.
         -2   -1    0    0    0  501 -0.00000000000E+00 -0.00000000000E+00 -0.70115010797E+03  0.70115010797E+03  0.00000000000E+00 0.  1.
         23    2    1    2    0    0  0.47166518954E+03  0.58436788497E+03  0.24421182266E+03  0.79426549804E+03  0.85231397040E+02 0.  0.
         13    1    3    3    0    0  0.30815824178E+03  0.41479885250E+03  0.20271392731E+03  0.55507884695E+03  0.00000000000E+00 0. -1.
        -13    1    3    3    0    0  0.16350694777E+03  0.16956903248E+03  0.41497895358E+02  0.23918665110E+03  0.00000000000E+00 0.  1.
         22    1    1    2    0    0 -0.47166518954E+03 -0.58436788497E+03 -0.95260163667E+02  0.75698637689E+03  0.00000000000E+00 0. -1.
<mgrwt>
<rscale>  0 0.15440841E+04</rscale>
<asrwt>0</asrwt>
<pdfrwt beam="1">  1        2 0.13078489E+00 0.15440841E+04</pdfrwt>
<pdfrwt beam="2">  1       -2 0.10786925E+00 0.15440841E+04</pdfrwt>
<totfact> 0.21053980E+01</totfact>
</mgrwt>
</event>
<event>
 6    1  0.1588846E-005  0.1919208E+04  0.7818608E-02  0.8645354E-01
          2   -1    0    0  501    0  0.00000000000E+00  0.00000000000E+00  0.19251425367E+04  0.19251425367E+04  0.00000000000E+00 0. -1.
         -2   -1    0    0    0  501 -0.00000000000E+00 -0.00000000000E+00 -0.47832318150E+03  0.47832318150E+03  0.00000000000E+00 0.  1.
         23    2    1    2    0    0 -0.56957624187E+03  0.54368121170E+03  0.42915789183E+02  0.79382241053E+03  0.91136706353E+02 0.  0.
         11    1    3    3    0    0 -0.34198737410E+03  0.38029913383E+03  0.81909713971E+01  0.51151724042E+03  0.00000000000E+00 0.  1.
        -11    1    3    3    0    0 -0.22758886777E+03  0.16338207787E+03  0.34724817786E+02  0.28230517012E+03  0.00000000000E+00 0. -1.
         22    1    1    2    0    0  0.56957624187E+03 -0.54368121170E+03  0.14039035660E+04  0.16096433077E+04  0.00000000000E+00 0. -1.
<mgrwt>
<rscale>  0 0.19192085E+04</rscale>
<asrwt>0</asrwt>
<pdfrwt beam="1">  1        2 0.29617577E+00 0.19192085E+04</pdfrwt>
<pdfrwt beam="2">  1       -2 0.73588183E-01 0.19192085E+04</pdfrwt>
<totfact> 0.11450885E+01</totfact>
</mgrwt>
</event>
<event>
 6    1  0.1588846E-005  0.4225209E+03  0.7818608E-02  0.1036249E+00
          2   -1    0    0  501    0  0.00000000000E+00  0.00000000000E+00  0.12198998944E+04  0.12198998944E+04  0.00000000000E+00 0. -1.
         -2   -1    0    0    0  501 -0.00000000000E+00 -0.00000000000E+00 -0.36585772796E+02  0.36585772796E+02  0.00000000000E+00 0.  1.
         23    2    1    2    0    0  0.11722819183E+03  0.13772405511E+03  0.87813662531E+03  0.90174115552E+03  0.96451099240E+02 0.  0.
         11    1    3    3    0    0  0.11583904486E+03  0.15172725086E+03  0.81970736242E+03  0.84164125551E+03  0.00000000000E+00 0.  1.
        -11    1    3    3    0    0  0.13891469678E+01 -0.14003195747E+02  0.58429262887E+02  0.60099900016E+02  0.00000000000E+00 0. -1.
         22    1    1    2    0    0 -0.11722819183E+03 -0.13772405511E+03  0.30517749630E+03  0.35474451168E+03  0.00000000000E+00 0.  1.
<mgrwt>
<rscale>  0 0.42252091E+03</rscale>
<asrwt>0</asrwt>
<pdfrwt beam="1">  1        2 0.18767688E+00 0.42252091E+03</pdfrwt>
<pdfrwt beam="2">  1       -2 0.56285814E-02 0.42252091E+03</pdfrwt>
<totfact> 0.31859177E+03</totfact>
</mgrwt>
</event>
<event>
 6    1  0.1588846E-005  0.2540188E+04  0.7818608E-02  0.8388807E-01
         -1   -1    0    0    0  501 -0.00000000000E+00  0.00000000000E+00  0.11551462229E+04  0.11551462229E+04  0.00000000000E+00 0.  1.
          1   -1    0    0  501    0  0.00000000000E+00 -0.00000000000E+00 -0.13964800327E+04  0.13964800327E+04  0.00000000000E+00 0. -1.
         23    2    1    2    0    0  0.19637827047E+03  0.62821347317E+03  0.96840820326E+03  0.11744217207E+04  0.90748756947E+02 0.  0.
         11    1    3    3    0    0  0.17832044426E+02  0.18762619003E+03  0.25360959681E+03  0.31597372769E+03  0.00000000000E+00 0.  1.
        -11    1    3    3    0    0  0.17854622605E+03  0.44058728314E+03  0.71479860645E+03  0.85844799300E+03  0.00000000000E+00 0. -1.
         22    1    1    2    0    0 -0.19637827047E+03 -0.62821347317E+03 -0.12097420131E+04  0.13772045350E+04  0.00000000000E+00 0. -1.
<mgrwt>
<rscale>  0 0.25401879E+04</rscale>
<asrwt>0</asrwt>
<pdfrwt beam="1">  1        1 0.21484308E+00 0.25401879E+04</pdfrwt>
<pdfrwt beam="2">  1       -1 0.17771480E+00 0.25401879E+04</pdfrwt>
<totfact> 0.14787530E+00</totfact>
</mgrwt>
</event>
<event>
 6    1  0.1692750E-005  0.3731894E+04  0.7818608E-02  0.8060930E-01
          2   -1    0    0  501    0  0.00000000000E+00  0.00000000000E+00  0.36673304864E+04  0.36673304864E+04  0.00000000000E+00 0. -1.
         -2   -1    0    0    0  501 -0.00000000000E+00 -0.00000000000E+00 -0.94939844245E+03  0.94939844245E+03  0.00000000000E+00 0.  1.
         23    2    1    2    0    0  0.16408467108E+04 -0.83725603121E+03  0.10006427466E+04  0.20983051915E+04  0.90681751673E+02 0.  0.
         11    1    3    3    0    0  0.55887964097E+03 -0.26697662524E+03  0.29160840051E+03  0.68458632090E+03  0.00000000000E+00 0.  1.
        -11    1    3    3    0    0  0.10819670699E+04 -0.57027940597E+03  0.70903434612E+03  0.14137188706E+04  0.00000000000E+00 0. -1.
         22    1    1    2    0    0 -0.16408467108E+04  0.83725603121E+03  0.17172892973E+04  0.25184237374E+04  0.00000000000E+00 0.  1.
<mgrwt>
<rscale>  0 0.37318938E+04</rscale>
<asrwt>0</asrwt>
<pdfrwt beam="1">  1        2 0.56420468E+00 0.37318938E+04</pdfrwt>
<pdfrwt beam="2">  1       -2 0.14606130E+00 0.37318938E+04</pdfrwt>
<totfact> 0.15954598E-01</totfact>
</mgrwt>
</event>
<event>
 6    1  0.1588846E-005  0.5212409E+04  0.7818608E-02  0.7796551E-01
          2   -1    0    0  501    0  0.00000000000E+00  0.00000000000E+00  0.19003771646E+04  0.19003771646E+04  0.00000000000E+00 0. -1.
         -2   -1    0    0    0  501 -0.00000000000E+00 -0.00000000000E+00 -0.35741865728E+04  0.35741865728E+04  0.00000000000E+00 0.  1.
         23    2    1    2    0    0  0.14279147062E+04  0.30442942436E+01  0.14515824367E+04  0.20384287196E+04  0.95657714997E+02 0.  0.
         11    1    3    3    0    0  0.50591072625E+03  0.85438562796E+01  0.57956705151E+03  0.76936118151E+03  0.00000000000E+00 0. -1.
        -11    1    3    3    0    0  0.92200397996E+03 -0.54995620360E+01  0.87201538517E+03  0.12690675381E+04  0.00000000000E+00 0.  1.
         22    1    1    2    0    0 -0.14279147062E+04 -0.30442942436E+01 -0.31253918449E+04  0.34361350177E+04  0.00000000000E+00 0.  1.
<mgrwt>
<rscale>  0 0.52124092E+04</rscale>
<asrwt>0</asrwt>
<pdfrwt beam="1">  1        2 0.29236572E+00 0.52124092E+04</pdfrwt>
<pdfrwt beam="2">  1       -2 0.54987485E+00 0.52124092E+04</pdfrwt>
<totfact> 0.47010402E-03</totfact>
</mgrwt>
</event>
<event>
 6    1  0.1588846E-005  0.4507086E+04  0.7818608E-02  0.7909397E-01
          2   -1    0    0  501    0  0.00000000000E+00  0.00000000000E+00  0.14658933994E+04  0.14658933994E+04  0.00000000000E+00 0. -1.
         -2   -1    0    0    0  501 -0.00000000000E+00 -0.00000000000E+00 -0.34644098557E+04  0.34644098557E+04  0.00000000000E+00 0.  1.
         23    2    1    2    0    0  0.90889395394E+03  0.14757648654E+04  0.57433386016E+03  0.18281219405E+04  0.90555447259E+02 0.  0.
         13    1    3    3    0    0  0.29596042966E+03  0.54037920814E+03  0.17263616886E+03  0.63984803768E+03  0.00000000000E+00 0. -1.
        -13    1    3    3    0    0  0.61293352427E+03  0.93538565727E+03  0.40169769130E+03  0.11882739029E+04  0.00000000000E+00 0.  1.
         22    1    1    2    0    0 -0.90889395394E+03 -0.14757648654E+04 -0.25728503165E+04  0.31021813146E+04  0.00000000000E+00 0.  1.
<mgrwt>
<rscale>  0 0.45070858E+04</rscale>
<asrwt>0</asrwt>
<pdfrwt beam="1">  1        2 0.22552207E+00 0.45070858E+04</pdfrwt>
<pdfrwt beam="2">  1       -2 0.53298612E+00 0.45070858E+04</pdfrwt>
<totfact> 0.10640762E-02</totfact>
</mgrwt>
</event>
<event>
 6    1  0.1588846E-005  0.2459314E+04  0.7818608E-02  0.8417625E-01
          1   -1    0    0  501    0  0.00000000000E+00  0.00000000000E+00  0.13051607505E+04  0.13051607505E+04  0.00000000000E+00 0. -1.
         -1   -1    0    0    0  501 -0.00000000000E+00 -0.00000000000E+00 -0.11585209930E+04  0.11585209930E+04  0.00000000000E+00 0.  1.
         23    2    1    2    0    0 -0.34696905110E+03  0.49960612535E+02 -0.11055370963E+04  0.11633623757E+04  0.91192986092E+02 0.  0.
         11    1    3    3    0    0 -0.17493203167E+03 -0.20076980415E+02 -0.56492263963E+03  0.59172788477E+03  0.00000000000E+00 0. -1.
        -11    1    3    3    0    0 -0.17203701943E+03  0.70037592950E+02 -0.54061445666E+03  0.57163449093E+03  0.00000000000E+00 0.  1.
         22    1    1    2    0    0  0.34696905110E+03 -0.49960612535E+02  0.12521768538E+04  0.13003193679E+04  0.00000000000E+00 0. -1.
<mgrwt>
<rscale>  0 0.24593138E+04</rscale>
<asrwt>0</asrwt>
<pdfrwt beam="1">  1        1 0.20079396E+00 0.24593138E+04</pdfrwt>
<pdfrwt beam="2">  1       -1 0.17823400E+00 0.24593138E+04</pdfrwt>
<totfact> 0.17136892E+00</totfact>
</mgrwt>
</event>
<event>
 6    1  0.1588846E-005  0.1834094E+04  0.7818608E-02  0.8688376E-01
          1   -1    0    0  501    0  0.00000000000E+00  0.00000000000E+00  0.76812151525E+03  0.76812151525E+03  0.00000000000E+00 0. -1.
         -1   -1    0    0    0  501 -0.00000000000E+00 -0.00000000000E+00 -0.10948469412E+04  0.10948469412E+04  0.00000000000E+00 0.  1.
         23    2    1    2    0    0 -0.49344984524E+03 -0.10741949557E+03 -0.93851655338E+03  0.10696714872E+04  0.91389670166E+02 0.  0.
         13    1    3    3    0    0 -0.16066838102E+03  0.67915502007E+01 -0.31802567433E+03  0.35637169269E+03  0.00000000000E+00 0. -1.
        -13    1    3    3    0    0 -0.33278146422E+03 -0.11421104577E+03 -0.62049087905E+03  0.71329979453E+03  0.00000000000E+00 0.  1.
         22    1    1    2    0    0  0.49344984524E+03  0.10741949557E+03  0.61179112743E+03  0.79329696923E+03  0.00000000000E+00 0. -1.
<mgrwt>
<rscale>  0 0.18340943E+04</rscale>
<asrwt>0</asrwt>
<pdfrwt beam="1">  1        1 0.11817254E+00 0.18340943E+04</pdfrwt>
<pdfrwt beam="2">  1       -1 0.16843799E+00 0.18340943E+04</pdfrwt>
<totfact> 0.56082632E+00</totfact>
</mgrwt>
</event>
<event>
 6    1  0.1588846E-005  0.2484422E+04  0.7818608E-02  0.8408556E-01
          2   -1    0    0  501    0  0.00000000000E+00  0.00000000000E+00  0.14879529513E+04  0.14879529513E+04  0.00000000000E+00 0. -1.
         -2   -1    0    0    0  501 -0.00000000000E+00 -0.00000000000E+00 -0.10370543415E+04  0.10370543415E+04  0.00000000000E+00 0.  1.
         23    2    1    2    0    0 -0.55463271969E+03 -0.76569156809E+03 -0.59043983935E+03  0.11184914569E+04  0.92211192924E+02 0.  0.
         11    1    3    3    0    0 -0.26579515336E+03 -0.40246618857E+03 -0.25245632373E+03  0.54438983448E+03  0.00000000000E+00 0. -1.
        -11    1    3    3    0    0 -0.28883756632E+03 -0.36322537951E+03 -0.33798351562E+03  0.57410162243E+03  0.00000000000E+00 0.  1.
         22    1    1    2    0    0  0.55463271969E+03  0.76569156809E+03  0.10413384491E+04  0.14065158360E+04  0.00000000000E+00 0. -1.
<mgrwt>
<rscale>  0 0.24844219E+04</rscale>
<asrwt>0</asrwt>
<pdfrwt beam="1">  1        2 0.22891584E+00 0.24844219E+04</pdfrwt>
<pdfrwt beam="2">  1       -2 0.15954682E+00 0.24844219E+04</pdfrwt>
<totfact> 0.29235355E+00</totfact>
</mgrwt>
</event>
<event>
 6    1  0.1588846E-005  0.1200749E+04  0.7818608E-02  0.9112201E-01
         -2   -1    0    0    0  501 -0.00000000000E+00  0.00000000000E+00  0.33197723347E+03  0.33197723347E+03  0.00000000000E+00 0.  1.
          2   -1    0    0  501    0  0.00000000000E+00 -0.00000000000E+00 -0.10857653830E+04  0.10857653830E+04  0.00000000000E+00 0. -1.
         23    2    1    2    0    0 -0.21941931859E+02  0.54888213249E+03 -0.65477168003E+03  0.85956943100E+03  0.91545671692E+02 0.  0.
         11    1    3    3    0    0 -0.25335058832E+02  0.52768099492E+03 -0.59308892059E+03  0.79425661177E+03  0.00000000000E+00 0. -1.
        -11    1    3    3    0    0  0.33931269724E+01  0.21201137570E+02 -0.61682759434E+02  0.65312819234E+02  0.00000000000E+00 0.  1.
         22    1    1    2    0    0  0.21941931859E+02 -0.54888213249E+03 -0.99016469493E+02  0.55817318546E+03  0.00000000000E+00 0.  1.
<mgrwt>
<rscale>  0 0.12007487E+04</rscale>
<asrwt>0</asrwt>
<pdfrwt beam="1">  1        2 0.16704083E+00 0.12007487E+04</pdfrwt>
<pdfrwt beam="2">  1       -2 0.51073421E-01 0.12007487E+04</pdfrwt>
<totfact> 0.79468232E+01</totfact>
</mgrwt>
</event>
<event>
 6    1  0.1588846E-005  0.2014401E+04  0.7818608E-02  0.8599917E-01
         -1   -1    0    0    0  501 -0.00000000000E+00  0.00000000000E+00  0.13914030345E+04  0.13914030345E+04  0.00000000000E+00 0.  1.
          1   -1    0    0  501    0  0.00000000000E+00 -0.00000000000E+00 -0.72908653348E+03  0.72908653348E+03  0.00000000000E+00 0. -1.
         23    2    1    2    0    0  0.31739269543E+03  0.84770068132E+03 -0.12838026199E+03  0.91860107929E+03  0.89509122387E+02 0.  0.
         11    1    3    3    0    0  0.61874160592E+02  0.10157953311E+03  0.34871481789E+01  0.11899148498E+03  0.00000000000E+00 0. -1.
        -11    1    3    3    0    0  0.25551853484E+03  0.74612114821E+03 -0.13186741017E+03  0.79960959431E+03  0.00000000000E+00 0.  1.
         22    1    1    2    0    0 -0.31739269543E+03 -0.84770068132E+03  0.79069676299E+03  0.12018884887E+04  0.00000000000E+00 0.  1.
<mgrwt>
<rscale>  0 0.20144014E+04</rscale>
<asrwt>0</asrwt>
<pdfrwt beam="1">  1        1 0.11216716E+00 0.20144014E+04</pdfrwt>
<pdfrwt beam="2">  1       -1 0.21406201E+00 0.20144014E+04</pdfrwt>
<totfact> 0.28607999E+00</totfact>
</mgrwt>
</event>
<event>
 6    1  0.1588846E-005  0.3031270E+04  0.7818608E-02  0.8234858E-01
         -1   -1    0    0    0  501 -0.00000000000E+00  0.00000000000E+00  0.11058919291E+04  0.11058919291E+04  0.00000000000E+00 0.  1.
          1   -1    0    0  501    0  0.00000000000E+00 -0.00000000000E+00 -0.20771913069E+04  0.20771913069E+04  0.00000000000E+00 0. -1.
         23    2    1    2    0    0 -0.11960043550E+04 -0.63343628493E+03 -0.11990786244E+04  0.18106578903E+04  0.94997389428E+02 0.  0.
         11    1    3    3    0    0 -0.58790263280E+03 -0.35022769023E+03 -0.56170632497E+03  0.88532645740E+03  0.00000000000E+00 0. -1.
        -11    1    3    3    0    0 -0.60810172219E+03 -0.28320859470E+03 -0.63737229939E+03  0.92533143288E+03  0.00000000000E+00 0.  1.
         22    1    1    2    0    0  0.11960043550E+04  0.63343628493E+03  0.22777924659E+03  0.13724253457E+04  0.00000000000E+00 0.  1.
<mgrwt>
<rscale>  0 0.30312698E+04</rscale>
<asrwt>0</asrwt>
<pdfrwt beam="1">  1        1 0.31956789E+00 0.30312698E+04</pdfrwt>
<pdfrwt beam="2">  1       -1 0.17013722E+00 0.30312698E+04</pdfrwt>
<totfact> 0.55029824E-01</totfact>
</mgrwt>
</event>
<event>
 6    1  0.1588846E-005  0.1158727E+04  0.7818608E-02  0.9149770E-01
         -2   -1    0    0    0  501 -0.00000000000E+00  0.00000000000E+00  0.41476424671E+03  0.41476424671E+03  0.00000000000E+00 0.  1.
          2   -1    0    0  501    0  0.00000000000E+00 -0.00000000000E+00 -0.80928465972E+03  0.80928465972E+03  0.00000000000E+00 0. -1.
         23    2    1    2    0    0  0.22475321732E+03 -0.52803471864E+03 -0.24676196573E+03  0.63145525854E+03  0.92247509583E+02 0.  0.
         11    1    3    3    0    0  0.10464836817E+03 -0.35846951494E+03 -0.16101299689E+03  0.40666553735E+03  0.00000000000E+00 0.  1.
        -11    1    3    3    0    0  0.12010484915E+03 -0.16956520369E+03 -0.85748968836E+02  0.22478972118E+03  0.00000000000E+00 0. -1.
         22    1    1    2    0    0 -0.22475321732E+03  0.52803471864E+03 -0.14775844727E+03  0.59259364789E+03  0.00000000000E+00 0. -1.
<mgrwt>
<rscale>  0 0.11587275E+04</rscale>
<asrwt>0</asrwt>
<pdfrwt beam="1">  1        2 0.12450533E+00 0.11587275E+04</pdfrwt>
<pdfrwt beam="2">  1       -2 0.63809885E-01 0.11587275E+04</pdfrwt>
<totfact> 0.76256767E+01</totfact>
</mgrwt>
</event>
<event>
 6    1  0.1588846E-005  0.1431636E+04  0.7818608E-02  0.8931232E-01
         -2   -1    0    0    0  501 -0.00000000000E+00  0.00000000000E+00  0.26368892327E+03  0.26368892327E+03  0.00000000000E+00 0.  1.
          2   -1    0    0  501    0  0.00000000000E+00 -0.00000000000E+00 -0.19431825991E+04  0.19431825991E+04  0.00000000000E+00 0. -1.
         23    2    1    2    0    0  0.63747565151E+03 -0.18321603608E+03 -0.44013710213E+03  0.80118733349E+03  0.90758760026E+02 0.  0.
         11    1    3    3    0    0  0.44176604211E+03 -0.11382076745E+03 -0.34918435180E+03  0.57449291955E+03  0.00000000000E+00 0.  1.
        -11    1    3    3    0    0  0.19570960939E+03 -0.69395268634E+02 -0.90952750330E+02  0.22669441394E+03  0.00000000000E+00 0. -1.
         22    1    1    2    0    0 -0.63747565151E+03  0.18321603608E+03 -0.12393565737E+04  0.14056841889E+04  0.00000000000E+00 0. -1.
<mgrwt>
<rscale>  0 0.14316364E+04</rscale>
<asrwt>0</asrwt>
<pdfrwt beam="1">  1        2 0.29895118E+00 0.14316364E+04</pdfrwt>
<pdfrwt beam="2">  1       -2 0.40567526E-01 0.14316364E+04</pdfrwt>
<totfact> 0.40156088E+01</totfact>
</mgrwt>
</event>
<event>
 6    1  0.1588846E-005  0.3735745E+04  0.7818608E-02  0.8060086E-01
         -1   -1    0    0    0  501 -0.00000000000E+00  0.00000000000E+00  0.17488652427E+04  0.17488652427E+04  0.00000000000E+00 0.  1.
          1   -1    0    0  501    0  0.00000000000E+00 -0.00000000000E+00 -0.19949776559E+04  0.19949776559E+04  0.00000000000E+00 0. -1.
         23    2    1    2    0    0  0.77247882336E+03 -0.12859639292E+04 -0.12365974172E+04  0.19462090919E+04  0.90165944134E+02 0.  0.
         13    1    3    3    0    0  0.39061941841E+03 -0.60788817062E+03 -0.54440281488E+03  0.90470215146E+03  0.00000000000E+00 0.  1.
        -13    1    3    3    0    0  0.38185940496E+03 -0.67807575855E+03 -0.69219460229E+03  0.10415069404E+04  0.00000000000E+00 0. -1.
         22    1    1    2    0    0 -0.77247882336E+03  0.12859639292E+04  0.99048500399E+03  0.17976338066E+04  0.00000000000E+00 0.  1.
<mgrwt>
<rscale>  0 0.37357447E+04</rscale>
<asrwt>0</asrwt>
<pdfrwt beam="1">  1        1 0.30691964E+00 0.37357447E+04</pdfrwt>
<pdfrwt beam="2">  1       -1 0.26905619E+00 0.37357447E+04</pdfrwt>
<totfact> 0.12590945E-01</totfact>
</mgrwt>
</event>
<event>
 6    1  0.1588846E-005  0.2808035E+04  0.7818608E-02  0.8300778E-01
          1   -1    0    0  501    0  0.00000000000E+00  0.00000000000E+00  0.18784163995E+04  0.18784163995E+04  0.00000000000E+00 0. -1.
         -1   -1    0    0    0  501 -0.00000000000E+00 -0.00000000000E+00 -0.10494294378E+04  0.10494294378E+04  0.00000000000E+00 0.  1.
         23    2    1    2    0    0  0.98829268610E+03  0.20353682612E+03  0.14306004103E+04  0.17530741938E+04  0.92205868161E+02 0.  0.
         13    1    3    3    0    0  0.65618688159E+03  0.15513529983E+03  0.10206907735E+04  0.12232979359E+04  0.00000000000E+00 0. -1.
        -13    1    3    3    0    0  0.33210580451E+03  0.48401526294E+02  0.40990963673E+03  0.52977625788E+03  0.00000000000E+00 0.  1.
         22    1    1    2    0    0 -0.98829268610E+03 -0.20353682612E+03 -0.60161344859E+03  0.11747716436E+04  0.00000000000E+00 0.  1.
<mgrwt>
<rscale>  0 0.28080352E+04</rscale>
<asrwt>0</asrwt>
<pdfrwt beam="1">  1        1 0.28898714E+00 0.28080352E+04</pdfrwt>
<pdfrwt beam="2">  1       -1 0.16145068E+00 0.28080352E+04</pdfrwt>
<totfact> 0.88833599E-01</totfact>
</mgrwt>
</event>
<event>
 6    1  0.1588846E-005  0.3901169E+04  0.7818608E-02  0.8024786E-01
          2   -1    0    0  501    0  0.00000000000E+00  0.00000000000E+00  0.18917095847E+04  0.18917095847E+04  0.00000000000E+00 0. -1.
         -2   -1    0    0    0  501 -0.00000000000E+00 -0.00000000000E+00 -0.20112917174E+04  0.20112917174E+04  0.00000000000E+00 0.  1.
         23    2    1    2    0    0 -0.83966127692E+03 -0.17270760766E+04  0.27635248979E+03  0.19422394451E+04  0.90002938375E+02 0.  0.
         11    1    3    3    0    0 -0.42340445814E+03 -0.96057412330E+03  0.17283645565E+03  0.10638827106E+04  0.00000000000E+00 0. -1.
        -11    1    3    3    0    0 -0.41625681878E+03 -0.76650195333E+03  0.10351603414E+03  0.87835673446E+03  0.00000000000E+00 0.  1.
         22    1    1    2    0    0  0.83966127692E+03  0.17270760766E+04 -0.39593462249E+03  0.19607618570E+04  0.00000000000E+00 0.  1.
<mgrwt>
<rscale>  0 0.39011690E+04</rscale>
<asrwt>0</asrwt>
<pdfrwt beam="1">  1        2 0.29103224E+00 0.39011690E+04</pdfrwt>
<pdfrwt beam="2">  1       -2 0.30942949E+00 0.39011690E+04</pdfrwt>
<totfact> 0.16976339E-01</totfact>
</mgrwt>
</event>
<event>
 6    1  0.1588846E-005  0.1586943E+04  0.7818608E-02  0.8828610E-01
         -2   -1    0    0    0  501 -0.00000000000E+00  0.00000000000E+00  0.44646176539E+03  0.44646176539E+03  0.00000000000E+00 0.  1.
          2   -1    0    0  501    0  0.00000000000E+00 -0.00000000000E+00 -0.14101920564E+04  0.14101920564E+04  0.00000000000E+00 0. -1.
         23    2    1    2    0    0 -0.12659267760E+03  0.72226731556E+03 -0.82984332969E+03  0.11112535940E+04  0.92459813811E+02 0.  0.
         11    1    3    3    0    0 -0.42715552498E+02  0.16705268475E+03 -0.25363247616E+03  0.30669308905E+03  0.00000000000E+00 0. -1.
        -11    1    3    3    0    0 -0.83877125098E+02  0.55521463081E+03 -0.57621085353E+03  0.80456050494E+03  0.00000000000E+00 0.  1.
         22    1    1    2    0    0  0.12659267760E+03 -0.72226731556E+03 -0.13388696127E+03  0.74540022776E+03  0.00000000000E+00 0.  1.
<mgrwt>
<rscale>  0 0.15869428E+04</rscale>
<asrwt>0</asrwt>
<pdfrwt beam="1">  1        2 0.21695262E+00 0.15869428E+04</pdfrwt>
<pdfrwt beam="2">  1       -2 0.68686426E-01 0.15869428E+04</pdfrwt>
<totfact> 0.26550162E+01</totfact>
</mgrwt>
</event>
<event>
 6    1  0.1588846E-005  0.2289401E+04  0.7818608E-02  0.8482112E-01
         -2   -1    0    0    0  501 -0.00000000000E+00  0.00000000000E+00  0.38661777189E+03  0.38661777189E+03  0.00000000000E+00 0. -1.
          2   -1    0    0  501    0  0.00000000000E+00 -0.00000000000E+00 -0.33892375412E+04  0.33892375412E+04  0.00000000000E+00 0.  1.
         23    2    1    2    0    0  0.31250956036E+03 -0.62328803419E+03 -0.29971277665E+04  0.30785889644E+04  0.93728137569E+02 0.  0.
         13    1    3    3    0    0  0.14013523969E+03 -0.22321315387E+03 -0.12996392308E+04  0.13260935591E+04  0.00000000000E+00 0. -1.
        -13    1    3    3    0    0  0.17237432067E+03 -0.40007488032E+03 -0.16974885358E+04  0.17524954052E+04  0.00000000000E+00 0.  1.
         22    1    1    2    0    0 -0.31250956036E+03  0.62328803419E+03 -0.54920027218E+01  0.69726634866E+03  0.00000000000E+00 0. -1.
<mgrwt>
<rscale>  0 0.22894012E+04</rscale>
<asrwt>0</asrwt>
<pdfrwt beam="1">  1        2 0.52142118E+00 0.22894012E+04</pdfrwt>
<pdfrwt beam="2">  1       -2 0.59479655E-01 0.22894012E+04</pdfrwt>
<totfact> 0.23264156E+00</totfact>
</mgrwt>
</event>
<event>
 6    1  0.1588846E-005  0.1918947E+04  0.7818608E-02  0.8645482E-01
         -1   -1    0    0    0  501 -0.00000000000E+00  0.00000000000E+00  0.65318357913E+03  0.65318357913E+03  0.00000000000E+00 0.  1.
          1   -1    0    0  501    0  0.00000000000E+00 -0.00000000000E+00 -0.14093883468E+04  0.14093883468E+04  0.00000000000E+00 0. -1.
         23    2    1    2    0    0 -0.49874629018E+03 -0.21775081982E+03  0.46764290829E+03  0.72318161109E+03  0.90213477114E+02 0.  0.
         13    1    3    3    0    0 -0.26276447709E+03 -0.92303836810E+02  0.29116967893E+03  0.40292052645E+03  0.00000000000E+00 0.  1.
        -13    1    3    3    0    0 -0.23598181308E+03 -0.12544698301E+03  0.17647322936E+03  0.32026108464E+03  0.00000000000E+00 0. -1.
         22    1    1    2    0    0  0.49874629018E+03  0.21775081982E+03 -0.12238476759E+04  0.13393903148E+04  0.00000000000E+00 0. -1.
<mgrwt>
<rscale>  0 0.19189469E+04</rscale>
<asrwt>0</asrwt>
<pdfrwt beam="1">  1        1 0.21682898E+00 0.19189469E+04</pdfrwt>
<pdfrwt beam="2">  1       -1 0.10048978E+00 0.19189469E+04</pdfrwt>
<totfact> 0.66619381E+00</totfact>
</mgrwt>
</event>
<event>
 6    1  0.1588846E-005  0.5718495E+04  0.7818608E-02  0.7726320E-01
         -2   -1    0    0    0  501 -0.00000000000E+00  0.00000000000E+00  0.17720325092E+04  0.17720325092E+04  0.00000000000E+00 0.  1.
          2   -1    0    0  501    0  0.00000000000E+00 -0.00000000000E+00 -0.46135136730E+04  0.46135136730E+04  0.00000000000E+00 0. -1.
         23    2    1    2    0    0 -0.23392624537E+04  0.11198627691E+04 -0.78737074965E+02  0.25962195469E+04  0.88966059307E+02 0.  0.
         13    1    3    3    0    0 -0.10173814590E+04  0.52234398175E+03 -0.65342657193E+02  0.11455033528E+04  0.00000000000E+00 0. -1.
        -13    1    3    3    0    0 -0.13218809947E+04  0.59751878736E+03 -0.13394417772E+02  0.14507161941E+04  0.00000000000E+00 0.  1.
         22    1    1    2    0    0  0.23392624537E+04 -0.11198627691E+04 -0.27627440888E+04  0.37893266353E+04  0.00000000000E+00 0. -1.
<mgrwt>
<rscale>  0 0.57184950E+04</rscale>
<asrwt>0</asrwt>
<pdfrwt beam="1">  1        2 0.70977132E+00 0.57184950E+04</pdfrwt>
<pdfrwt beam="2">  1       -2 0.27262039E+00 0.57184950E+04</pdfrwt>
<totfact> 0.30017993E-03</totfact>
</mgrwt>
</event>
<event>
 6    1  0.1588846E-005  0.1599683E+04  0.7818608E-02  0.8820743E-01
         -1   -1    0    0    0  501 -0.00000000000E+00  0.00000000000E+00  0.51941020623E+03  0.51941020623E+03  0.00000000000E+00 0.  1.
          1   -1    0    0  501    0  0.00000000000E+00 -0.00000000000E+00 -0.12316784585E+04  0.12316784585E+04  0.00000000000E+00 0. -1.
         23    2    1    2    0    0 -0.63551401373E+03 -0.46416559548E+03 -0.49752748960E+03  0.93534277487E+03  0.89469223304E+02 0.  0.
         13    1    3    3    0    0 -0.33639883773E+03 -0.23231898080E+03 -0.20702235052E+03  0.45825161263E+03  0.00000000000E+00 0. -1.
        -13    1    3    3    0    0 -0.29911517600E+03 -0.23184661468E+03 -0.29050513908E+03  0.47709116223E+03  0.00000000000E+00 0.  1.
         22    1    1    2    0    0  0.63551401373E+03  0.46416559548E+03 -0.21474076265E+03  0.81574588985E+03  0.00000000000E+00 0. -1.
<mgrwt>
<rscale>  0 0.15996829E+04</rscale>
<asrwt>0</asrwt>
<pdfrwt beam="1">  1        1 0.18948899E+00 0.15996829E+04</pdfrwt>
<pdfrwt beam="2">  1       -1 0.79909263E-01 0.15996829E+04</pdfrwt>
<totfact> 0.15203559E+01</totfact>
</mgrwt>
</event>
<event>
 6    1  0.1588846E-005  0.2248276E+04  0.7818608E-02  0.8498599E-01
          2   -1    0    0  501    0  0.00000000000E+00  0.00000000000E+00  0.23891996462E+04  0.23891996462E+04  0.00000000000E+00 0. -1.
         -2   -1    0    0    0  501 -0.00000000000E+00 -0.00000000000E+00 -0.52891614637E+03  0.52891614637E+03  0.00000000000E+00 0.  1.
         23    2    1    2    0    0  0.74776011315E+03  0.28437369631E+03 -0.90088022380E+02  0.81004495395E+03  0.89684946753E+02 0.  0.
         13    1    3    3    0    0  0.60678265353E+03  0.26399119456E+03 -0.88322322795E+02  0.66759072202E+03  0.00000000000E+00 0.  1.
        -13    1    3    3    0    0  0.14097745962E+03  0.20382501751E+02 -0.17656995842E+01  0.14245423193E+03  0.00000000000E+00 0. -1.
         22    1    1    2    0    0 -0.74776011315E+03 -0.28437369631E+03  0.19503715222E+04  0.21080708386E+04  0.00000000000E+00 0. -1.
<mgrwt>
<rscale>  0 0.22482760E+04</rscale>
<asrwt>0</asrwt>
<pdfrwt beam="1">  1        2 0.36756917E+00 0.22482760E+04</pdfrwt>
<pdfrwt beam="2">  1       -2 0.81371716E-01 0.22482760E+04</pdfrwt>
<totfact> 0.48837692E+00</totfact>
</mgrwt>
</event>
<event>
 6    1  0.1588846E-005  0.3286921E+04  0.7818608E-02  0.8166231E-01
         -2   -1    0    0    0  501 -0.00000000000E+00  0.00000000000E+00  0.14057692230E+04  0.14057692230E+04  0.00000000000E+00 0.  1.
          2   -1    0    0  501    0  0.00000000000E+00 -0.00000000000E+00 -0.19213418272E+04  0.19213418272E+04  0.00000000000E+00 0. -1.
         23    2    1    2    0    0  0.11986171749E+04 -0.28017275014E+03 -0.13582843242E+04  0.18353527102E+04  0.91669862145E+02 0.  0.
         11    1    3    3    0    0  0.83863793038E+03 -0.15359388709E+03 -0.95203827322E+03  0.12779990352E+04  0.00000000000E+00 0.  1.
        -11    1    3    3    0    0  0.35997924450E+03 -0.12657886305E+03 -0.40624605099E+03  0.55735367496E+03  0.00000000000E+00 0. -1.
         22    1    1    2    0    0 -0.11986171749E+04  0.28017275014E+03  0.84271172004E+03  0.14917583400E+04  0.00000000000E+00 0.  1.
<mgrwt>
<rscale>  0 0.32869215E+04</rscale>
<asrwt>0</asrwt>
<pdfrwt beam="1">  1        2 0.29559105E+00 0.32869215E+04</pdfrwt>
<pdfrwt beam="2">  1       -2 0.21627219E+00 0.32869215E+04</pdfrwt>
<totfact> 0.64490533E-01</totfact>
</mgrwt>
</event>
<event>
 6    1  0.1588846E-005  0.1952687E+04  0.7818608E-02  0.8629066E-01
         -2   -1    0    0    0  501 -0.00000000000E+00  0.00000000000E+00  0.80820220761E+03  0.80820220761E+03  0.00000000000E+00 0.  1.
          2   -1    0    0  501    0  0.00000000000E+00 -0.00000000000E+00 -0.11794656570E+04  0.11794656570E+04  0.00000000000E+00 0. -1.
         23    2    1    2    0    0 -0.17832018140E+03 -0.22924203942E+03  0.76048243017E+03  0.81925067215E+03  0.92131088617E+02 0.  0.
         13    1    3    3    0    0 -0.95664099162E+02 -0.11047391327E+03  0.25982933848E+03  0.29810634096E+03  0.00000000000E+00 0.  1.
        -13    1    3    3    0    0 -0.82656082243E+02 -0.11876812615E+03  0.50065309169E+03  0.52114433120E+03  0.00000000000E+00 0. -1.
         22    1    1    2    0    0  0.17832018140E+03  0.22924203942E+03 -0.11317458795E+04  0.11684171924E+04  0.00000000000E+00 0. -1.
<mgrwt>
<rscale>  0 0.19526871E+04</rscale>
<asrwt>0</asrwt>
<pdfrwt beam="1">  1        2 0.18145625E+00 0.19526871E+04</pdfrwt>
<pdfrwt beam="2">  1       -2 0.12433880E+00 0.19526871E+04</pdfrwt>
<totfact> 0.88317039E+00</totfact>
</mgrwt>
</event>
<event>
 6    1  0.1588846E-005  0.1980424E+04  0.7818608E-02  0.8615828E-01
          2   -1    0    0  501    0  0.00000000000E+00  0.00000000000E+00  0.18447428613E+04  0.18447428613E+04  0.00000000000E+00 0. -1.
         -2   -1    0    0    0  501 -0.00000000000E+00 -0.00000000000E+00 -0.53152126789E+03  0.53152126789E+03  0.00000000000E+00 0.  1.
         23    2    1    2    0    0  0.59660019767E+03 -0.67551573817E+03  0.17195694778E+03  0.92205014916E+03  0.91400094550E+02 0.  0.
         11    1    3    3    0    0  0.27857259267E+03 -0.37553565710E+03  0.66041745824E+02  0.47221947369E+03  0.00000000000E+00 0. -1.
        -11    1    3    3    0    0  0.31802760500E+03 -0.29998008108E+03  0.10591520195E+03  0.44983067547E+03  0.00000000000E+00 0.  1.
         22    1    1    2    0    0 -0.59660019767E+03  0.67551573817E+03  0.11412646457E+04  0.14542139801E+04  0.00000000000E+00 0. -1.
<mgrwt>
<rscale>  0 0.19804243E+04</rscale>
<asrwt>0</asrwt>
<pdfrwt beam="1">  1        2 0.28380659E+00 0.19804243E+04</pdfrwt>
<pdfrwt beam="2">  1       -2 0.81772504E-01 0.19804243E+04</pdfrwt>
<totfact> 0.99755090E+00</totfact>
</mgrwt>
</event>
<event>
 6    1  0.1833769E-005  0.2938408E+04  0.7818608E-02  0.8261541E-01
         -2   -1    0    0    0  501 -0.00000000000E+00  0.00000000000E+00  0.12418282918E+04  0.12418282918E+04  0.00000000000E+00 0.  1.
          2   -1    0    0  501    0  0.00000000000E+00 -0.00000000000E+00 -0.17382118188E+04  0.17382118188E+04  0.00000000000E+00 0. -1.
         23    2    1    2    0    0 -0.10182338014E+04 -0.10392933535E+04 -0.44460764240E+03  0.15241515534E+04  0.91821854747E+02 0.  0.
         11    1    3    3    0    0 -0.50266579772E+03 -0.57766366411E+03 -0.24153527299E+03  0.80293679772E+03  0.00000000000E+00 0. -1.
        -11    1    3    3    0    0 -0.51556800373E+03 -0.46162968937E+03 -0.20307236941E+03  0.72121475567E+03  0.00000000000E+00 0.  1.
         22    1    1    2    0    0  0.10182338014E+04  0.10392933535E+04 -0.51775884617E+02  0.14558885573E+04  0.00000000000E+00 0.  1.
<mgrwt>
<rscale>  0 0.29384081E+04</rscale>
<asrwt>0</asrwt>
<pdfrwt beam="1">  1        2 0.26741720E+00 0.29384081E+04</pdfrwt>
<pdfrwt beam="2">  1       -2 0.19105051E+00 0.29384081E+04</pdfrwt>
<totfact> 0.12254459E+00</totfact>
</mgrwt>
</event>
<event>
 6    1  0.1588846E-005  0.2557197E+04  0.7818608E-02  0.8382888E-01
          1   -1    0    0  501    0  0.00000000000E+00  0.00000000000E+00  0.12696163303E+04  0.12696163303E+04  0.00000000000E+00 0.  1.
         -1   -1    0    0    0  501 -0.00000000000E+00 -0.00000000000E+00 -0.12876440226E+04  0.12876440226E+04  0.00000000000E+00 0. -1.
         23    2    1    2    0    0  0.11774834935E+04 -0.27858645263E+03 -0.41748118448E+03  0.12830386762E+04  0.88430288719E+02 0.  0.
         13    1    3    3    0    0  0.10289036175E+04 -0.22816144874E+03 -0.33551436082E+03  0.11060154552E+04  0.00000000000E+00 0. -1.
        -13    1    3    3    0    0  0.14857987608E+03 -0.50425003894E+02 -0.81966823664E+02  0.17702322100E+03  0.00000000000E+00 0.  1.
         22    1    1    2    0    0 -0.11774834935E+04  0.27858645263E+03  0.39945349220E+03  0.12742216768E+04  0.00000000000E+00 0. -1.
<mgrwt>
<rscale>  0 0.25571968E+04</rscale>
<asrwt>0</asrwt>
<pdfrwt beam="1">  1        1 0.19532559E+00 0.25571968E+04</pdfrwt>
<pdfrwt beam="2">  1       -1 0.19809908E+00 0.25571968E+04</pdfrwt>
<totfact> 0.13044433E+00</totfact>
</mgrwt>
</event>
<event>
 6    1  0.1588846E-005  0.2586807E+04  0.7818608E-02  0.8372696E-01
         -2   -1    0    0    0  501 -0.00000000000E+00  0.00000000000E+00  0.43929136598E+03  0.43929136598E+03  0.00000000000E+00 0. -1.
          2   -1    0    0  501    0  0.00000000000E+00 -0.00000000000E+00 -0.38081621029E+04  0.38081621029E+04  0.00000000000E+00 0.  1.
         23    2    1    2    0    0 -0.17988356915E+03 -0.12788451093E+04 -0.17371174157E+04  0.21664869114E+04  0.91025871509E+02 0.  0.
         11    1    3    3    0    0 -0.13600101997E+03 -0.70589678983E+03 -0.92021677392E+03  0.11677266231E+04  0.00000000000E+00 0.  1.
        -11    1    3    3    0    0 -0.43882549179E+02 -0.57294831947E+03 -0.81690064177E+03  0.99876028827E+03  0.00000000000E+00 0. -1.
         22    1    1    2    0    0  0.17988356915E+03  0.12788451093E+04 -0.16317533212E+04  0.20809665575E+04  0.00000000000E+00 0. -1.
<mgrwt>
<rscale>  0 0.25868071E+04</rscale>
<asrwt>0</asrwt>
<pdfrwt beam="1">  1        2 0.58587110E+00 0.25868071E+04</pdfrwt>
<pdfrwt beam="2">  1       -2 0.67583286E-01 0.25868071E+04</pdfrwt>
<totfact> 0.86185767E-01</totfact>
</mgrwt>
</event>
<event>
 6    1  0.1588846E-005  0.1451972E+04  0.7818608E-02  0.8917034E-01
          1   -1    0    0  501    0  0.00000000000E+00  0.00000000000E+00  0.10550749057E+04  0.10550749057E+04  0.00000000000E+00 0. -1.
         -1   -1    0    0    0  501 -0.00000000000E+00 -0.00000000000E+00 -0.49954369395E+03  0.49954369395E+03  0.00000000000E+00 0.  1.
         23    2    1    2    0    0  0.36532627506E+03  0.11578602430E+03 -0.37786623236E+03  0.54560894691E+03  0.89646766390E+02 0.  0.
         13    1    3    3    0    0  0.12606068989E+03  0.12338753828E+02 -0.80105251641E+02  0.14986792092E+03  0.00000000000E+00 0.  1.
        -13    1    3    3    0    0  0.23926558517E+03  0.10344727047E+03 -0.29776098072E+03  0.39574102599E+03  0.00000000000E+00 0. -1.
         22    1    1    2    0    0 -0.36532627506E+03 -0.11578602430E+03  0.93339744413E+03  0.10090096528E+04  0.00000000000E+00 0. -1.
<mgrwt>
<rscale>  0 0.14519725E+04</rscale>
<asrwt>0</asrwt>
<pdfrwt beam="1">  1        1 0.16231922E+00 0.14519725E+04</pdfrwt>
<pdfrwt beam="2">  1       -1 0.76852876E-01 0.14519725E+04</pdfrwt>
<totfact> 0.22626488E+01</totfact>
</mgrwt>
</event>
<event>
 6    1  0.1588846E-005  0.3807693E+04  0.7818608E-02  0.8044506E-01
         -2   -1    0    0    0  501 -0.00000000000E+00  0.00000000000E+00  0.76208732575E+03  0.76208732575E+03  0.00000000000E+00 0.  1.
          2   -1    0    0  501    0  0.00000000000E+00 -0.00000000000E+00 -0.47561893490E+04  0.47561893490E+04  0.00000000000E+00 0. -1.
         23    2    1    2    0    0 -0.84631054270E+03  0.76330399141E+03  0.20933601350E+03  0.11630768117E+04  0.10025759546E+03 0.  0.
         13    1    3    3    0    0 -0.74141357732E+03  0.68143624438E+03  0.15290605360E+03  0.10185429343E+04  0.00000000000E+00 0. -1.
        -13    1    3    3    0    0 -0.10489696538E+03  0.81867747026E+02  0.56429959901E+02  0.14453387742E+03  0.00000000000E+00 0.  1.
         22    1    1    2    0    0  0.84631054270E+03 -0.76330399141E+03 -0.42034380367E+04  0.43551998630E+04  0.00000000000E+00 0. -1.
<mgrwt>
<rscale>  0 0.38076931E+04</rscale>
<asrwt>0</asrwt>
<pdfrwt beam="1">  1        2 0.73172143E+00 0.38076931E+04</pdfrwt>
<pdfrwt beam="2">  1       -2 0.11724421E+00 0.38076931E+04</pdfrwt>
<totfact> 0.29782252E-02</totfact>
</mgrwt>
</event>
<event>
 6    1  0.1588846E-005  0.2677707E+04  0.7818608E-02  0.8342275E-01
         -1   -1    0    0    0  501 -0.00000000000E+00  0.00000000000E+00  0.21962760023E+04  0.21962760023E+04  0.00000000000E+00 0.  1.
          1   -1    0    0  501    0  0.00000000000E+00 -0.00000000000E+00 -0.81616752577E+03  0.81616752577E+03  0.00000000000E+00 0. -1.
         23    2    1    2    0    0 -0.86836635912E+03  0.15751653022E+03 -0.43877856686E+03  0.99075570163E+03  0.10098830943E+03 0.  0.
         13    1    3    3    0    0 -0.61684024126E+03  0.12437832228E+03 -0.36074309708E+03  0.72532574226E+03  0.00000000000E+00 0. -1.
        -13    1    3    3    0    0 -0.25152611785E+03  0.33138207934E+02 -0.78035469781E+02  0.26542995937E+03  0.00000000000E+00 0.  1.
         22    1    1    2    0    0  0.86836635912E+03 -0.15751653022E+03  0.18188870434E+04  0.20216878264E+04  0.00000000000E+00 0.  1.
<mgrwt>
<rscale>  0 0.26777073E+04</rscale>
<asrwt>0</asrwt>
<pdfrwt beam="1">  1        1 0.12556424E+00 0.26777073E+04</pdfrwt>
<pdfrwt beam="2">  1       -1 0.33788861E+00 0.26777073E+04</pdfrwt>
<totfact> 0.34987194E-01</totfact>
</mgrwt>
</event>
<event>
 6    1  0.1588846E-005  0.1927236E+04  0.7818608E-02  0.8641417E-01
          2   -1    0    0  501    0  0.00000000000E+00  0.00000000000E+00  0.27554956444E+04  0.27554956444E+04  0.00000000000E+00 0. -1.
         -2   -1    0    0    0  501 -0.00000000000E+00 -0.00000000000E+00 -0.33698450049E+03  0.33698450049E+03  0.00000000000E+00 0.  1.
         23    2    1    2    0    0 -0.11435386443E+03  0.90638486542E+03  0.73136051868E+03  0.11738640909E+04  0.91969369730E+02 0.  0.
         11    1    3    3    0    0 -0.43445836197E+02  0.45149988290E+03  0.30675528370E+03  0.54757509898E+03  0.00000000000E+00 0.  1.
        -11    1    3    3    0    0 -0.70908028236E+02  0.45488498252E+03  0.42460523497E+03  0.62628899188E+03  0.00000000000E+00 0. -1.
         22    1    1    2    0    0  0.11435386443E+03 -0.90638486542E+03  0.16871506252E+04  0.19186160540E+04  0.00000000000E+00 0. -1.
<mgrwt>
<rscale>  0 0.19272357E+04</rscale>
<asrwt>0</asrwt>
<pdfrwt beam="1">  1        2 0.42392239E+00 0.19272357E+04</pdfrwt>
<pdfrwt beam="2">  1       -2 0.51843771E-01 0.19272357E+04</pdfrwt>
<totfact> 0.80903937E+00</totfact>
</mgrwt>
</event>
<event>
 6    1  0.1588846E-005  0.6417192E+03  0.7818608E-02  0.9822443E-01
          1   -1    0    0  501    0  0.00000000000E+00  0.00000000000E+00  0.11098551014E+04  0.11098551014E+04  0.00000000000E+00 0. -1.
         -1   -1    0    0    0  501 -0.00000000000E+00 -0.00000000000E+00 -0.92760642117E+02  0.92760642117E+02  0.00000000000E+00 0.  1.
         23    2    1    2    0    0 -0.17232891239E+03  0.14784224915E+03  0.92631955445E+03  0.95808626057E+03  0.91141544123E+02 0.  0.
         11    1    3    3    0    0 -0.12740458758E+03  0.11668385790E+03  0.51630552861E+03  0.54444324820E+03  0.00000000000E+00 0. -1.
        -11    1    3    3    0    0 -0.44924324803E+02  0.31158391252E+02  0.41001402583E+03  0.41364301237E+03  0.00000000000E+00 0.  1.
         22    1    1    2    0    0  0.17232891239E+03 -0.14784224915E+03  0.90774904826E+02  0.24452948294E+03  0.00000000000E+00 0.  1.
<mgrwt>
<rscale>  0 0.64171917E+03</rscale>
<asrwt>0</asrwt>
<pdfrwt beam="1">  1        1 0.17074693E+00 0.64171917E+03</pdfrwt>
<pdfrwt beam="2">  1       -1 0.14270869E-01 0.64171917E+03</pdfrwt>
<totfact> 0.45170158E+02</totfact>
</mgrwt>
</event>
<event>
 6    1  0.1588846E-005  0.3773083E+04  0.7818608E-02  0.8051956E-01
          1   -1    0    0  501    0  0.00000000000E+00  0.00000000000E+00  0.24670229105E+04  0.24670229105E+04  0.00000000000E+00 0. -1.
         -1   -1    0    0    0  501 -0.00000000000E+00 -0.00000000000E+00 -0.14426454791E+04  0.14426454791E+04  0.00000000000E+00 0.  1.
         23    2    1    2    0    0 -0.98570299284E+03 -0.43816944050E+03 -0.10898297458E+04  0.15361741645E+04  0.92191866179E+02 0.  0.
         11    1    3    3    0    0 -0.10077820356E+03 -0.15579072936E+02 -0.10060552980E+03  0.14324952514E+03  0.00000000000E+00 0.  1.
        -11    1    3    3    0    0 -0.88492478929E+03 -0.42259036756E+03 -0.98922421595E+03  0.13929246393E+04  0.00000000000E+00 0. -1.
         22    1    1    2    0    0  0.98570299284E+03  0.43816944050E+03  0.21142071771E+04  0.23734942251E+04  0.00000000000E+00 0. -1.
<mgrwt>
<rscale>  0 0.37730833E+04</rscale>
<asrwt>0</asrwt>
<pdfrwt beam="1">  1        1 0.37954198E+00 0.37730833E+04</pdfrwt>
<pdfrwt beam="2">  1       -1 0.22194546E+00 0.37730833E+04</pdfrwt>
<totfact> 0.12161450E-01</totfact>
</mgrwt>
</event>
<event>
 6    1  0.1588846E-005  0.3237739E+04  0.7818608E-02  0.8178921E-01
          2   -1    0    0  501    0  0.00000000000E+00  0.00000000000E+00  0.12944342343E+04  0.12944342343E+04  0.00000000000E+00 0. -1.
         -2   -1    0    0    0  501 -0.00000000000E+00 -0.00000000000E+00 -0.20246204699E+04  0.20246204699E+04  0.00000000000E+00 0.  1.
         23    2    1    2    0    0 -0.68418845002E+03 -0.14132388106E+04 -0.76405330521E+03  0.17485437206E+04  0.90939094062E+02 0.  0.
         11    1    3    3    0    0 -0.39167850804E+03 -0.88632336477E+03 -0.43909498017E+03  0.10638541076E+04  0.00000000000E+00 0.  1.
        -11    1    3    3    0    0 -0.29250994198E+03 -0.52691544583E+03 -0.32495832504E+03  0.68468961306E+03  0.00000000000E+00 0. -1.
         22    1    1    2    0    0  0.68418845002E+03  0.14132388106E+04  0.33867069621E+02  0.15705109835E+04  0.00000000000E+00 0. -1.
<mgrwt>
<rscale>  0 0.32377387E+04</rscale>
<asrwt>0</asrwt>
<pdfrwt beam="1">  1        2 0.19914373E+00 0.32377387E+04</pdfrwt>
<pdfrwt beam="2">  1       -2 0.31148007E+00 0.32377387E+04</pdfrwt>
<totfact> 0.37775686E-01</totfact>
</mgrwt>
</event>
<event>
 6    1  0.1588846E-005  0.1478307E+04  0.7818608E-02  0.8899008E-01
         -1   -1    0    0    0  501 -0.00000000000E+00  0.00000000000E+00  0.72242331716E+03  0.72242331716E+03  0.00000000000E+00 0.  1.
          1   -1    0    0  501    0  0.00000000000E+00 -0.00000000000E+00 -0.75627109872E+03  0.75627109872E+03  0.00000000000E+00 0. -1.
         23    2    1    2    0    0  0.32966113136E+02  0.27408473644E+03 -0.69974712688E+03  0.75783996077E+03  0.92011723130E+02 0.  0.
         13    1    3    3    0    0  0.63958759996E+02  0.20899403187E+03 -0.51004862883E+03  0.55490434501E+03  0.00000000000E+00 0.  1.
        -13    1    3    3    0    0 -0.30992646860E+02  0.65090704567E+02 -0.18969849805E+03  0.20293561576E+03  0.00000000000E+00 0. -1.
         22    1    1    2    0    0 -0.32966113136E+02 -0.27408473644E+03  0.66589934532E+03  0.72085445512E+03  0.00000000000E+00 0.  1.
<mgrwt>
<rscale>  0 0.14783070E+04</rscale>
<asrwt>0</asrwt>
<pdfrwt beam="1">  1        1 0.11634940E+00 0.14783070E+04</pdfrwt>
<pdfrwt beam="2">  1       -1 0.11114205E+00 0.14783070E+04</pdfrwt>
<totfact> 0.17452495E+01</totfact>
</mgrwt>
</event>
<event>
 6    1  0.1588846E-005  0.1191311E+04  0.7818608E-02  0.9120496E-01
          2   -1    0    0  501    0  0.00000000000E+00  0.00000000000E+00  0.13885221487E+04  0.13885221487E+04  0.00000000000E+00 0. -1.
         -2   -1    0    0    0  501 -0.00000000000E+00 -0.00000000000E+00 -0.25552737907E+03  0.25552737907E+03  0.00000000000E+00 0.  1.
         23    2    1    2    0    0 -0.33030186802E+03  0.16990810684E+03  0.12063133953E+04  0.12654419346E+04  0.90461004269E+02 0.  0.
         11    1    3    3    0    0 -0.26542093959E+02 -0.77166372224E+01  0.13562407084E+03  0.13841213037E+03  0.00000000000E+00 0.  1.
        -11    1    3    3    0    0 -0.30375977406E+03  0.17762474406E+03  0.10706893245E+04  0.11270298042E+04  0.00000000000E+00 0. -1.
         22    1    1    2    0    0  0.33030186802E+03 -0.16990810684E+03 -0.73318625638E+02  0.37860759323E+03  0.00000000000E+00 0.  1.
<mgrwt>
<rscale>  0 0.11913109E+04</rscale>
<asrwt>0</asrwt>
<pdfrwt beam="1">  1        2 0.21361879E+00 0.11913109E+04</pdfrwt>
<pdfrwt beam="2">  1       -2 0.39311905E-01 0.11913109E+04</pdfrwt>
<totfact> 0.88694167E+01</totfact>
</mgrwt>
</event>
<event>
 6    1  0.1588846E-005  0.1942819E+04  0.7818608E-02  0.8633832E-01
          1   -1    0    0  501    0  0.00000000000E+00  0.00000000000E+00  0.22625633487E+04  0.22625633487E+04  0.00000000000E+00 0. -1.
         -1   -1    0    0    0  501 -0.00000000000E+00 -0.00000000000E+00 -0.41706498578E+03  0.41706498578E+03  0.00000000000E+00 0.  1.
         23    2    1    2    0    0  0.92170893651E+03  0.97927726007E+02  0.13154253200E+04  0.16118668283E+04  0.92917687533E+02 0.  0.
         11    1    3    3    0    0  0.54211022483E+03  0.29823658719E+02  0.70520439813E+03  0.88999224133E+03  0.00000000000E+00 0.  1.
        -11    1    3    3    0    0  0.37959871167E+03  0.68104067288E+02  0.61022092185E+03  0.72187458699E+03  0.00000000000E+00 0. -1.
         22    1    1    2    0    0 -0.92170893651E+03 -0.97927726007E+02  0.53007304295E+03  0.10677615062E+04  0.00000000000E+00 0.  1.
<mgrwt>
<rscale>  0 0.19428185E+04</rscale>
<asrwt>0</asrwt>
<pdfrwt beam="1">  1        1 0.34808666E+00 0.19428185E+04</pdfrwt>
<pdfrwt beam="2">  1       -1 0.64163845E-01 0.19428185E+04</pdfrwt>
<totfact> 0.45344406E+00</totfact>
</mgrwt>
</event>
<event>
 6    1  0.1588846E-005  0.1922702E+04  0.7818608E-02  0.8643638E-01
         -1   -1    0    0    0  501 -0.00000000000E+00  0.00000000000E+00  0.19940045656E+04  0.19940045656E+04  0.00000000000E+00 0.  1.
          1   -1    0    0  501    0  0.00000000000E+00 -0.00000000000E+00 -0.46348735081E+03  0.46348735081E+03  0.00000000000E+00 0. -1.
         23    2    1    2    0    0 -0.10291102636E+03  0.48536189873E+03 -0.28230837512E+03  0.57799637996E+03  0.90636331005E+02 0.  0.
         13    1    3    3    0    0 -0.54480120859E+02  0.37878327829E+03 -0.18165151559E+03  0.42360610075E+03  0.00000000000E+00 0. -1.
        -13    1    3    3    0    0 -0.48430905499E+02  0.10657862044E+03 -0.10065685953E+03  0.15439027921E+03  0.00000000000E+00 0.  1.
         22    1    1    2    0    0  0.10291102636E+03 -0.48536189873E+03  0.18128255899E+04  0.18794955364E+04  0.00000000000E+00 0.  1.
<mgrwt>
<rscale>  0 0.19227022E+04</rscale>
<asrwt>0</asrwt>
<pdfrwt beam="1">  1        1 0.71305747E-01 0.19227022E+04</pdfrwt>
<pdfrwt beam="2">  1       -1 0.30676993E+00 0.19227022E+04</pdfrwt>
<totfact> 0.13722126E+00</totfact>
</mgrwt>
</event>
<event>
 6    1  0.1588846E-005  0.1091892E+04  0.7818608E-02  0.9213131E-01
          1   -1    0    0  501    0  0.00000000000E+00  0.00000000000E+00  0.11333501690E+04  0.11333501690E+04  0.00000000000E+00 0. -1.
         -1   -1    0    0    0  501 -0.00000000000E+00 -0.00000000000E+00 -0.26298761953E+03  0.26298761953E+03  0.00000000000E+00 0.  1.
         23    2    1    2    0    0 -0.53916188546E+02 -0.30629348799E+03  0.10050554343E+04  0.10574206462E+04  0.10620424113E+03 0.  0.
         11    1    3    3    0    0  0.21193454964E+02 -0.10978147410E+03  0.25531729259E+03  0.27872576932E+03  0.00000000000E+00 0.  1.
        -11    1    3    3    0    0 -0.75109643510E+02 -0.19651201390E+03  0.74973814169E+03  0.77869487687E+03  0.00000000000E+00 0. -1.
         22    1    1    2    0    0  0.53916188546E+02  0.30629348799E+03 -0.13469288479E+03  0.33891714236E+03  0.00000000000E+00 0.  1.
<mgrwt>
<rscale>  0 0.10918921E+04</rscale>
<asrwt>0</asrwt>
<pdfrwt beam="1">  1        1 0.17436156E+00 0.10918921E+04</pdfrwt>
<pdfrwt beam="2">  1       -1 0.40459634E-01 0.10918921E+04</pdfrwt>
<totfact> 0.71124369E+01</totfact>
</mgrwt>
</event>
<event>
 6    1  0.1588846E-005  0.1010941E+04  0.7818608E-02  0.9296625E-01
          2   -1    0    0  501    0  0.00000000000E+00  0.00000000000E+00  0.22198997147E+04  0.22198997147E+04  0.00000000000E+00 0. -1.
         -2   -1    0    0    0  501 -0.00000000000E+00 -0.00000000000E+00 -0.11509553887E+03  0.11509553887E+03  0.00000000000E+00 0.  1.
         23    2    1    2    0    0 -0.19933796033E+03  0.61888435891E+02  0.21139166999E+04  0.21260722079E+04  0.89293997581E+02 0.  0.
         13    1    3    3    0    0 -0.14655009541E+03  0.28442586789E+02  0.10800056106E+04  0.10902742912E+04  0.00000000000E+00 0.  1.
        -13    1    3    3    0    0 -0.52787864919E+02  0.33445849102E+02  0.10339110893E+04  0.10357979167E+04  0.00000000000E+00 0. -1.
         22    1    1    2    0    0  0.19933796033E+03 -0.61888435891E+02 -0.91125240856E+01  0.20892304569E+03  0.00000000000E+00 0.  1.
<mgrwt>
<rscale>  0 0.10109413E+04</rscale>
<asrwt>0</asrwt>
<pdfrwt beam="1">  1        2 0.34152300E+00 0.10109413E+04</pdfrwt>
<pdfrwt beam="2">  1       -2 0.17707008E-01 0.10109413E+04</pdfrwt>
<totfact> 0.13362115E+02</totfact>
</mgrwt>
</event>
<event>
 6    1  0.1588846E-005  0.1654656E+04  0.7818608E-02  0.8787657E-01
          1   -1    0    0  501    0  0.00000000000E+00  0.00000000000E+00  0.27947479187E+04  0.27947479187E+04  0.00000000000E+00 0. -1.
         -1   -1    0    0    0  501 -0.00000000000E+00 -0.00000000000E+00 -0.24491360811E+03  0.24491360811E+03  0.00000000000E+00 0.  1.
         23    2    1    2    0    0  0.32416905846E+03  0.68054809571E+03  0.66483149140E+03  0.10095218968E+04  0.94351783831E+02 0.  0.
         13    1    3    3    0    0  0.93652544848E+02  0.26974481510E+03  0.29569668915E+03  0.41105911546E+03  0.00000000000E+00 0.  1.
        -13    1    3    3    0    0  0.23051651362E+03  0.41080328061E+03  0.36913480225E+03  0.59846278133E+03  0.00000000000E+00 0. -1.
         22    1    1    2    0    0 -0.32416905846E+03 -0.68054809571E+03  0.18850028192E+04  0.20301396300E+04  0.00000000000E+00 0. -1.
<mgrwt>
<rscale>  0 0.16546562E+04</rscale>
<asrwt>0</asrwt>
<pdfrwt beam="1">  1        1 0.42996120E+00 0.16546562E+04</pdfrwt>
<pdfrwt beam="2">  1       -1 0.37679019E-01 0.16546562E+04</pdfrwt>
<totfact> 0.54714481E+00</totfact>
</mgrwt>
</event>
<event>
 6    1  0.1588846E-005  0.4488135E+04  0.7818608E-02  0.7912717E-01
         -2   -1    0    0    0  501 -0.00000000000E+00  0.00000000000E+00  0.14164220861E+04  0.14164220861E+04  0.00000000000E+00 0.  1.
          2   -1    0    0  501    0  0.00000000000E+00 -0.00000000000E+00 -0.35553238911E+04  0.35553238911E+04  0.00000000000E+00 0. -1.
         23    2    1    2    0    0  0.20126842834E+03 -0.19098723351E+04 -0.23538664071E+04  0.30393042325E+04  0.92530204379E+02 0.  0.
         11    1    3    3    0    0  0.37356691809E+02 -0.78837705638E+03 -0.96939548216E+03  0.12500646008E+04  0.00000000000E+00 0.  1.
        -11    1    3    3    0    0  0.16391173653E+03 -0.11214952787E+04 -0.13844709249E+04  0.17892396317E+04  0.00000000000E+00 0. -1.
         22    1    1    2    0    0 -0.20126842834E+03  0.19098723351E+04  0.21496460205E+03  0.19324417447E+04  0.00000000000E+00 0.  1.
<mgrwt>
<rscale>  0 0.44881352E+04</rscale>
<asrwt>0</asrwt>
<pdfrwt beam="1">  1        2 0.54697290E+00 0.44881352E+04</pdfrwt>
<pdfrwt beam="2">  1       -2 0.21791109E+00 0.44881352E+04</pdfrwt>
<totfact> 0.57308298E-02</totfact>
</mgrwt>
</event>
<event>
 6    1  0.1588846E-005  0.4472877E+04  0.7818608E-02  0.7915403E-01
         -2   -1    0    0    0  501 -0.00000000000E+00  0.00000000000E+00  0.16663364240E+04  0.16663364240E+04  0.00000000000E+00 0.  1.
          2   -1    0    0  501    0  0.00000000000E+00 -0.00000000000E+00 -0.30015884693E+04  0.30015884693E+04  0.00000000000E+00 0. -1.
         23    2    1    2    0    0  0.16992824449E+02 -0.11515928580E+04 -0.26674199720E+04  0.29069234023E+04  0.92841223372E+02 0.  0.
         11    1    3    3    0    0 -0.74026454416E+01 -0.84977085235E+03 -0.18737554727E+04  0.20574559223E+04  0.00000000000E+00 0.  1.
        -11    1    3    3    0    0  0.24395469891E+02 -0.30182200562E+03 -0.79366449930E+03  0.84946747994E+03  0.00000000000E+00 0. -1.
         22    1    1    2    0    0 -0.16992824449E+02  0.11515928580E+04  0.13321679267E+04  0.17610014911E+04  0.00000000000E+00 0.  1.
<mgrwt>
<rscale>  0 0.44728766E+04</rscale>
<asrwt>0</asrwt>
<pdfrwt beam="1">  1        2 0.46178283E+00 0.44728766E+04</pdfrwt>
<pdfrwt beam="2">  1       -2 0.25635945E+00 0.44728766E+04</pdfrwt>
<totfact> 0.77435440E-02</totfact>
</mgrwt>
</event>
<event>
 6    1  0.1588846E-005  0.2810588E+04  0.7818608E-02  0.8299989E-01
         -1   -1    0    0    0  501 -0.00000000000E+00  0.00000000000E+00  0.59538352488E+03  0.59538352488E+03  0.00000000000E+00 0.  1.
          1   -1    0    0  501    0  0.00000000000E+00 -0.00000000000E+00 -0.33169389470E+04  0.33169389470E+04  0.00000000000E+00 0. -1.
         23    2    1    2    0    0 -0.10131415442E+03 -0.13992550490E+04 -0.14313215895E+04  0.20063102492E+04  0.91760958224E+02 0.  0.
         11    1    3    3    0    0 -0.29117803809E+02 -0.54280078330E+03 -0.49304579706E+03  0.73387648474E+03  0.00000000000E+00 0. -1.
        -11    1    3    3    0    0 -0.72196350611E+02 -0.85645426571E+03 -0.93827579248E+03  0.12724337645E+04  0.00000000000E+00 0.  1.
         22    1    1    2    0    0  0.10131415442E+03  0.13992550490E+04 -0.12902338325E+04  0.19060122226E+04  0.00000000000E+00 0.  1.
<mgrwt>
<rscale>  0 0.28105877E+04</rscale>
<asrwt>0</asrwt>
<pdfrwt beam="1">  1        1 0.51029829E+00 0.28105877E+04</pdfrwt>
<pdfrwt beam="2">  1       -1 0.91597467E-01 0.28105877E+04</pdfrwt>
<totfact> 0.34815305E-01</totfact>
</mgrwt>
</event>
<event>
 6    1  0.1588846E-005  0.1482601E+04  0.7818608E-02  0.8896106E-01
         -2   -1    0    0    0  501 -0.00000000000E+00  0.00000000000E+00  0.14771748972E+03  0.14771748972E+03  0.00000000000E+00 0. -1.
          2   -1    0    0  501    0  0.00000000000E+00 -0.00000000000E+00 -0.37201156491E+04  0.37201156491E+04  0.00000000000E+00 0.  1.
         23    2    1    2    0    0  0.32813354407E+03  0.27327549167E+03 -0.33648769860E+04  0.33930530271E+04  0.89780826396E+02 0.  0.
         11    1    3    3    0    0  0.26510647618E+03  0.17292667724E+03 -0.23251286931E+04  0.23465737829E+04  0.00000000000E+00 0. -1.
        -11    1    3    3    0    0  0.63027067884E+02  0.10034881443E+03 -0.10397482929E+04  0.10464792442E+04  0.00000000000E+00 0.  1.
         22    1    1    2    0    0 -0.32813354407E+03 -0.27327549167E+03 -0.20752117341E+03  0.47478011174E+03  0.00000000000E+00 0. -1.
<mgrwt>
<rscale>  0 0.14826006E+04</rscale>
<asrwt>0</asrwt>
<pdfrwt beam="1">  1        2 0.57232549E+00 0.14826006E+04</pdfrwt>
<pdfrwt beam="2">  1       -2 0.22725768E-01 0.14826006E+04</pdfrwt>
<totfact> 0.94717334E+00</totfact>
</mgrwt>
</event>
<event>
 6    1  0.1588846E-005  0.4024712E+04  0.7818608E-02  0.7999580E-01
          2   -1    0    0  501    0  0.00000000000E+00  0.00000000000E+00  0.24695632427E+04  0.24695632427E+04  0.00000000000E+00 0. -1.
         -2   -1    0    0    0  501 -0.00000000000E+00 -0.00000000000E+00 -0.16397950585E+04  0.16397950585E+04  0.00000000000E+00 0.  1.
         23    2    1    2    0    0  0.36901525429E+03  0.52194191565E+02  0.24331394926E+04  0.24632428605E+04  0.92201452474E+02 0.  0.
         11    1    3    3    0    0  0.25666164987E+02  0.25205709148E+02  0.34762530158E+03  0.34948165917E+03  0.00000000000E+00 0. -1.
        -11    1    3    3    0    0  0.34334908931E+03  0.26988482417E+02  0.20855141911E+04  0.21137612014E+04  0.00000000000E+00 0.  1.
         22    1    1    2    0    0 -0.36901525429E+03 -0.52194191565E+02 -0.16033713084E+04  0.16461154407E+04  0.00000000000E+00 0.  1.
<mgrwt>
<rscale>  0 0.40247125E+04</rscale>
<asrwt>0</asrwt>
<pdfrwt beam="1">  1        2 0.37993281E+00 0.40247125E+04</pdfrwt>
<pdfrwt beam="2">  1       -2 0.25227616E+00 0.40247125E+04</pdfrwt>
<totfact> 0.17760280E-01</totfact>
</mgrwt>
</event>
<event>
 6    1  0.1588846E-005  0.4243206E+04  0.7818608E-02  0.7957204E-01
         -1   -1    0    0    0  501 -0.00000000000E+00  0.00000000000E+00  0.17817769926E+04  0.17817769926E+04  0.00000000000E+00 0.  1.
          1   -1    0    0  501    0  0.00000000000E+00 -0.00000000000E+00 -0.25262422536E+04  0.25262422536E+04  0.00000000000E+00 0. -1.
         23    2    1    2    0    0  0.51646391206E+03  0.15131267381E+04 -0.17867840940E+04  0.23994291783E+04  0.91517676476E+02 0.  0.
         13    1    3    3    0    0  0.76002526501E+02  0.31055202292E+03 -0.39222002717E+03  0.50601926118E+03  0.00000000000E+00 0. -1.
        -13    1    3    3    0    0  0.44046138555E+03  0.12025747151E+04 -0.13945640668E+04  0.18934099171E+04  0.00000000000E+00 0.  1.
         22    1    1    2    0    0 -0.51646391206E+03 -0.15131267381E+04  0.10423188330E+04  0.19085900680E+04  0.00000000000E+00 0.  1.
<mgrwt>
<rscale>  0 0.42432065E+04</rscale>
<asrwt>0</asrwt>
<pdfrwt beam="1">  1        1 0.38865265E+00 0.42432065E+04</pdfrwt>
<pdfrwt beam="2">  1       -1 0.27411954E+00 0.42432065E+04</pdfrwt>
<totfact> 0.48429151E-02</totfact>
</mgrwt>
</event>
<event>
 6    1  0.1588846E-005  0.3070527E+04  0.7818608E-02  0.8223873E-01
          1   -1    0    0  501    0  0.00000000000E+00  0.00000000000E+00  0.26020995980E+04  0.26020995980E+04  0.00000000000E+00 0. -1.
         -1   -1    0    0    0  501 -0.00000000000E+00 -0.00000000000E+00 -0.90582017386E+03  0.90582017386E+03  0.00000000000E+00 0.  1.
         23    2    1    2    0    0  0.85597034473E+03 -0.84410479411E+02  0.22997446534E+04  0.24572149403E+04  0.96277890646E+02 0.  0.
         11    1    3    3    0    0  0.60517673686E+03 -0.10226761572E+03  0.16012921684E+04  0.17148860477E+04  0.00000000000E+00 0. -1.
        -11    1    3    3    0    0  0.25079360787E+03  0.17857136310E+02  0.69845248497E+03  0.74232889263E+03  0.00000000000E+00 0.  1.
         22    1    1    2    0    0 -0.85597034473E+03  0.84410479411E+02 -0.60346522923E+03  0.10507048315E+04  0.00000000000E+00 0.  1.
<mgrwt>
<rscale>  0 0.30705272E+04</rscale>
<asrwt>0</asrwt>
<pdfrwt beam="1">  1        1 0.40032301E+00 0.30705272E+04</pdfrwt>
<pdfrwt beam="2">  1       -1 0.13935695E+00 0.30705272E+04</pdfrwt>
<totfact> 0.41250862E-01</totfact>
</mgrwt>
</event>
<event>
 6    1  0.1588846E-005  0.3472279E+04  0.7818608E-02  0.8120391E-01
          2   -1    0    0  501    0  0.00000000000E+00  0.00000000000E+00  0.14782698461E+04  0.14782698461E+04  0.00000000000E+00 0. -1.
         -2   -1    0    0    0  501 -0.00000000000E+00 -0.00000000000E+00 -0.20389916648E+04  0.20389916648E+04  0.00000000000E+00 0.  1.
         23    2    1    2    0    0 -0.14397169605E+04 -0.74080793746E+03  0.35089517297E+03  0.16591369547E+04  0.89591771903E+02 0.  0.
         13    1    3    3    0    0 -0.55945158801E+03 -0.29109831560E+03  0.92185192432E+02  0.63735580203E+03  0.00000000000E+00 0. -1.
        -13    1    3    3    0    0 -0.88026537249E+03 -0.44970962186E+03  0.25870998054E+03  0.10217811527E+04  0.00000000000E+00 0.  1.
         22    1    1    2    0    0  0.14397169605E+04  0.74080793746E+03 -0.91161699171E+03  0.18581245561E+04  0.00000000000E+00 0.  1.
<mgrwt>
<rscale>  0 0.34722787E+04</rscale>
<asrwt>0</asrwt>
<pdfrwt beam="1">  1        2 0.22742613E+00 0.34722787E+04</pdfrwt>
<pdfrwt beam="2">  1       -2 0.31369103E+00 0.34722787E+04</pdfrwt>
<totfact> 0.28160146E-01</totfact>
</mgrwt>
</event>
<event>
 6    1  0.1588846E-005  0.1104096E+04  0.7818608E-02  0.9201208E-01
         -1   -1    0    0    0  501 -0.00000000000E+00  0.00000000000E+00  0.10054635023E+03  0.10054635023E+03  0.00000000000E+00 0.  1.
          1   -1    0    0  501    0  0.00000000000E+00 -0.00000000000E+00 -0.30310125010E+04  0.30310125010E+04  0.00000000000E+00 0. -1.
         23    2    1    2    0    0  0.16286790878E+03 -0.33482060649E+03 -0.26165210034E+04  0.26445348787E+04  0.93550891550E+02 0.  0.
         13    1    3    3    0    0  0.16147936417E+02 -0.11919416652E+03 -0.68422522852E+03  0.69471732994E+03  0.00000000000E+00 0. -1.
        -13    1    3    3    0    0  0.14671997236E+03 -0.21562643997E+03 -0.19322957749E+04  0.19498175488E+04  0.00000000000E+00 0.  1.
         22    1    1    2    0    0 -0.16286790878E+03  0.33482060649E+03 -0.31394514737E+03  0.48702397251E+03  0.00000000000E+00 0.  1.
<mgrwt>
<rscale>  0 0.11040965E+04</rscale>
<asrwt>0</asrwt>
<pdfrwt beam="1">  1        1 0.46630955E+00 0.11040965E+04</pdfrwt>
<pdfrwt beam="2">  1       -1 0.15468672E-01 0.11040965E+04</pdfrwt>
<totfact> 0.18001700E+01</totfact>
</mgrwt>
</event>
<event>
 6    1  0.1588846E-005  0.1970683E+04  0.7818608E-02  0.8620451E-01
         -2   -1    0    0    0  501 -0.00000000000E+00  0.00000000000E+00  0.14776008536E+04  0.14776008536E+04  0.00000000000E+00 0. -1.
          2   -1    0    0  501    0  0.00000000000E+00 -0.00000000000E+00 -0.65707747712E+03  0.65707747712E+03  0.00000000000E+00 0.  1.
         23    2    1    2    0    0  0.63355442274E+03 -0.37425857975E+03 -0.29585253845E+03  0.79760844677E+03  0.84792798976E+02 0.  0.
         13    1    3    3    0    0  0.50327608829E+03 -0.26503046124E+03 -0.20327635861E+03  0.60402751957E+03  0.00000000000E+00 0.  1.
        -13    1    3    3    0    0  0.13027833445E+03 -0.10922811852E+03 -0.92576179841E+02  0.19358092720E+03  0.00000000000E+00 0. -1.
         22    1    1    2    0    0 -0.63355442274E+03  0.37425857975E+03  0.11163759149E+04  0.13370698839E+04  0.00000000000E+00 0. -1.
<mgrwt>
<rscale>  0 0.19706834E+04</rscale>
<asrwt>0</asrwt>
<pdfrwt beam="1">  1        2 0.10108884E+00 0.19706834E+04</pdfrwt>
<pdfrwt beam="2">  1       -2 0.22732321E+00 0.19706834E+04</pdfrwt>
<totfact> 0.36694662E+00</totfact>
</mgrwt>
</event>
<event>
 6    1  0.1588846E-005  0.2952737E+04  0.7818608E-02  0.8257357E-01
          1   -1    0    0  501    0  0.00000000000E+00  0.00000000000E+00  0.38110997375E+04  0.38110997375E+04  0.00000000000E+00 0.  1.
         -1   -1    0    0    0  501 -0.00000000000E+00 -0.00000000000E+00 -0.57192509674E+03  0.57192509674E+03  0.00000000000E+00 0. -1.
         23    2    1    2    0    0 -0.53617608093E+02  0.10459245064E+04  0.31627543372E+04  0.33329424643E+04  0.93045964387E+02 0.  0.
         13    1    3    3    0    0 -0.13156479210E+02  0.59529044227E+03  0.19310859300E+04  0.20208009978E+04  0.00000000000E+00 0. -1.
        -13    1    3    3    0    0 -0.40461128883E+02  0.45063406414E+03  0.12316684072E+04  0.13121414665E+04  0.00000000000E+00 0.  1.
         22    1    1    2    0    0  0.53617608093E+02 -0.10459245064E+04  0.76420303568E+02  0.10500823700E+04  0.00000000000E+00 0. -1.
<mgrwt>
<rscale>  0 0.29527368E+04</rscale>
<asrwt>0</asrwt>
<pdfrwt beam="1">  1        1 0.58632302E+00 0.29527368E+04</pdfrwt>
<pdfrwt beam="2">  1       -1 0.87988479E-01 0.29527368E+04</pdfrwt>
<totfact> 0.15124462E-01</totfact>
</mgrwt>
</event>
<event>
 6    1  0.1588846E-005  0.2113236E+04  0.7818608E-02  0.8555435E-01
          1   -1    0    0  501    0  0.00000000000E+00  0.00000000000E+00  0.10300616056E+04  0.10300616056E+04  0.00000000000E+00 0. -1.
         -1   -1    0    0    0  501 -0.00000000000E+00 -0.00000000000E+00 -0.10838591326E+04  0.10838591326E+04  0.00000000000E+00 0.  1.
         23    2    1    2    0    0  0.98828942426E+03 -0.35299505842E+03  0.76891052014E+02  0.10563759391E+04  0.93254455371E+02 0.  0.
         11    1    3    3    0    0  0.46671228559E+03 -0.21526003246E+03  0.28465078073E+02  0.51474993906E+03  0.00000000000E+00 0.  1.
        -11    1    3    3    0    0  0.52157713868E+03 -0.13773502596E+03  0.48425973941E+02  0.54162600004E+03  0.00000000000E+00 0. -1.
         22    1    1    2    0    0 -0.98828942426E+03  0.35299505842E+03 -0.13068857902E+03  0.10575447991E+04  0.00000000000E+00 0.  1.
<mgrwt>
<rscale>  0 0.21132361E+04</rscale>
<asrwt>0</asrwt>
<pdfrwt beam="1">  1        1 0.15847102E+00 0.21132361E+04</pdfrwt>
<pdfrwt beam="2">  1       -1 0.16674756E+00 0.21132361E+04</pdfrwt>
<totfact> 0.34255325E+00</totfact>
</mgrwt>
</event>
<event>
 6    1  0.1588846E-005  0.5264401E+04  0.7818608E-02  0.7788967E-01
         -1   -1    0    0    0  501 -0.00000000000E+00  0.00000000000E+00  0.19394884144E+04  0.19394884144E+04  0.00000000000E+00 0.  1.
          1   -1    0    0  501    0  0.00000000000E+00 -0.00000000000E+00 -0.35723233735E+04  0.35723233735E+04  0.00000000000E+00 0. -1.
         23    2    1    2    0    0  0.22110316626E+04  0.22607236840E+03  0.65828291978E+03  0.23197919159E+04  0.91260079531E+02 0.  0.
         11    1    3    3    0    0  0.10231295630E+04  0.14991369115E+03  0.31268051786E+03  0.10802950170E+04  0.00000000000E+00 0.  1.
        -11    1    3    3    0    0  0.11879020996E+04  0.76158677245E+02  0.34560240193E+03  0.12394968990E+04  0.00000000000E+00 0. -1.
         22    1    1    2    0    0 -0.22110316626E+04 -0.22607236840E+03 -0.22911178788E+04  0.31920198720E+04  0.00000000000E+00 0. -1.
<mgrwt>
<rscale>  0 0.52644011E+04</rscale>
<asrwt>0</asrwt>
<pdfrwt beam="1">  1        1 0.54958821E+00 0.52644011E+04</pdfrwt>
<pdfrwt beam="2">  1       -1 0.29838284E+00 0.52644011E+04</pdfrwt>
<totfact> 0.52301764E-03</totfact>
</mgrwt>
</event>
<event>
 6    1  0.1588846E-005  0.4107561E+04  0.7818608E-02  0.7983193E-01
         -2   -1    0    0    0  501 -0.00000000000E+00  0.00000000000E+00  0.19519885019E+04  0.19519885019E+04  0.00000000000E+00 0.  1.
          2   -1    0    0  501    0  0.00000000000E+00 -0.00000000000E+00 -0.21608804999E+04  0.21608804999E+04  0.00000000000E+00 0. -1.
         23    2    1    2    0    0 -0.39582470969E+03 -0.97681648286E+03  0.16593255322E+04  0.19678551599E+04  0.90802348193E+02 0.  0.
         11    1    3    3    0    0 -0.33226386029E+03 -0.74536385917E+03  0.13285688814E+04  0.15591862711E+04  0.00000000000E+00 0.  1.
        -11    1    3    3    0    0 -0.63560849393E+02 -0.23145262369E+03  0.33075665082E+03  0.40866888877E+03  0.00000000000E+00 0. -1.
         22    1    1    2    0    0  0.39582470969E+03  0.97681648286E+03 -0.18682175302E+04  0.21450138419E+04  0.00000000000E+00 0. -1.
<mgrwt>
<rscale>  0 0.41075608E+04</rscale>
<asrwt>0</asrwt>
<pdfrwt beam="1">  1        2 0.33244315E+00 0.41075608E+04</pdfrwt>
<pdfrwt beam="2">  1       -2 0.30030592E+00 0.41075608E+04</pdfrwt>
<totfact> 0.13444807E-01</totfact>
</mgrwt>
</event>
<event>
 6    1  0.1962845E-005  0.4208895E+04  0.7818608E-02  0.7963682E-01
          2   -1    0    0  501    0  0.00000000000E+00  0.00000000000E+00  0.27682421469E+04  0.27682421469E+04  0.00000000000E+00 0. -1.
         -2   -1    0    0    0  501 -0.00000000000E+00 -0.00000000000E+00 -0.15998238365E+04  0.15998238365E+04  0.00000000000E+00 0.  1.
         23    2    1    2    0    0  0.19075174796E+04  0.83619910746E+03  0.89009486038E+03  0.22668006919E+04  0.90910033186E+02 0.  0.
         11    1    3    3    0    0  0.54157686767E+03  0.22332701590E+03  0.20848634698E+03  0.62180946962E+03  0.00000000000E+00 0. -1.
        -11    1    3    3    0    0  0.13659406119E+04  0.61287209156E+03  0.68160851339E+03  0.16449912223E+04  0.00000000000E+00 0.  1.
         22    1    1    2    0    0 -0.19075174796E+04 -0.83619910746E+03  0.27832344998E+03  0.21012652915E+04  0.00000000000E+00 0.  1.
<mgrwt>
<rscale>  0 0.42088952E+04</rscale>
<asrwt>0</asrwt>
<pdfrwt beam="1">  1        2 0.42588341E+00 0.42088952E+04</pdfrwt>
<pdfrwt beam="2">  1       -2 0.24612674E+00 0.42088952E+04</pdfrwt>
<totfact> 0.12725533E-01</totfact>
</mgrwt>
</event>
<event>
 6    1  0.1588846E-005  0.1381150E+04  0.7818608E-02  0.8967577E-01
          2   -1    0    0  501    0  0.00000000000E+00  0.00000000000E+00  0.52110664801E+03  0.52110664801E+03  0.00000000000E+00 0. -1.
         -2   -1    0    0    0  501 -0.00000000000E+00 -0.00000000000E+00 -0.91515619062E+03  0.91515619062E+03  0.00000000000E+00 0.  1.
         23    2    1    2    0    0  0.30700077923E+03  0.10082404815E+02  0.43866475486E+03  0.54870200435E+03  0.11956583577E+03 0.  0.
         11    1    3    3    0    0  0.46595594769E+02  0.14480771939E+02  0.14397249387E+02  0.50873598239E+02  0.00000000000E+00 0. -1.
        -11    1    3    3    0    0  0.26040518447E+03 -0.43983671243E+01  0.42426750547E+03  0.49782840611E+03  0.00000000000E+00 0.  1.
         22    1    1    2    0    0 -0.30700077923E+03 -0.10082404815E+02 -0.83271429747E+03  0.88756083428E+03  0.00000000000E+00 0.  1.
<mgrwt>
<rscale>  0 0.13811502E+04</rscale>
<asrwt>0</asrwt>
<pdfrwt beam="1">  1        2 0.80170253E-01 0.13811502E+04</pdfrwt>
<pdfrwt beam="2">  1       -2 0.14079326E+00 0.13811502E+04</pdfrwt>
<totfact> 0.20223799E+01</totfact>
</mgrwt>
</event>
<event>
 6    1  0.1588846E-005  0.2098281E+04  0.7818608E-02  0.8562001E-01
         -2   -1    0    0    0  501 -0.00000000000E+00  0.00000000000E+00  0.56240076141E+03  0.56240076141E+03  0.00000000000E+00 0. -1.
          2   -1    0    0  501    0  0.00000000000E+00 -0.00000000000E+00 -0.19571386226E+04  0.19571386226E+04  0.00000000000E+00 0.  1.
         23    2    1    2    0    0  0.52875682723E+03 -0.89862959431E+03 -0.81482203692E+03  0.13264671761E+04  0.91985255736E+02 0.  0.
         11    1    3    3    0    0  0.42254085660E+03 -0.74466333634E+03 -0.70842933934E+03  0.11112769182E+04  0.00000000000E+00 0. -1.
        -11    1    3    3    0    0  0.10621597063E+03 -0.15396625797E+03 -0.10639269758E+03  0.21519025793E+03  0.00000000000E+00 0.  1.
         22    1    1    2    0    0 -0.52875682723E+03  0.89862959431E+03 -0.57991582430E+03  0.11930722080E+04  0.00000000000E+00 0.  1.
<mgrwt>
<rscale>  0 0.20982814E+04</rscale>
<asrwt>0</asrwt>
<pdfrwt beam="1">  1        2 0.30109825E+00 0.20982814E+04</pdfrwt>
<pdfrwt beam="2">  1       -2 0.86523195E-01 0.20982814E+04</pdfrwt>
<totfact> 0.75261879E+00</totfact>
</mgrwt>
</event>
<event>
 6    1  0.1588846E-005  0.3091323E+04  0.7818608E-02  0.8218123E-01
          2   -1    0    0  501    0  0.00000000000E+00  0.00000000000E+00  0.35885766164E+04  0.35885766164E+04  0.00000000000E+00 0. -1.
         -2   -1    0    0    0  501 -0.00000000000E+00 -0.00000000000E+00 -0.66574280203E+03  0.66574280203E+03  0.00000000000E+00 0.  1.
         23    2    1    2    0    0  0.85458540030E+03  0.12620465343E+04  0.18046415259E+04  0.23639671615E+04  0.92369057740E+02 0.  0.
         13    1    3    3    0    0  0.54576205370E+03  0.82900815622E+03  0.12392461717E+04  0.15877159118E+04  0.00000000000E+00 0. -1.
        -13    1    3    3    0    0  0.30882334661E+03  0.43303837806E+03  0.56539535412E+03  0.77625124975E+03  0.00000000000E+00 0.  1.
         22    1    1    2    0    0 -0.85458540030E+03 -0.12620465343E+04  0.11181922885E+04  0.18903522569E+04  0.00000000000E+00 0. -1.
<mgrwt>
<rscale>  0 0.30913227E+04</rscale>
<asrwt>0</asrwt>
<pdfrwt beam="1">  1        2 0.55208870E+00 0.30913227E+04</pdfrwt>
<pdfrwt beam="2">  1       -2 0.10242197E+00 0.30913227E+04</pdfrwt>
<totfact> 0.46587882E-01</totfact>
</mgrwt>
</event>
<event>
 6    1  0.1588846E-005  0.2745216E+04  0.7818608E-02  0.8320481E-01
         -1   -1    0    0    0  501 -0.00000000000E+00  0.00000000000E+00  0.90714642968E+03  0.90714642968E+03  0.00000000000E+00 0.  1.
          1   -1    0    0  501    0  0.00000000000E+00 -0.00000000000E+00 -0.20768997269E+04  0.20768997269E+04  0.00000000000E+00 0. -1.
         23    2    1    2    0    0 -0.10672203100E+04 -0.64194582940E+03  0.37700560910E+02  0.12493996630E+04  0.92328477218E+02 0.  0.
         11    1    3    3    0    0 -0.13640260016E+03 -0.81470675777E+02 -0.26030531858E+02  0.16099915817E+03  0.00000000000E+00 0. -1.
        -11    1    3    3    0    0 -0.93081770987E+03 -0.56047515362E+03  0.63731092768E+02  0.10884005049E+04  0.00000000000E+00 0.  1.
         22    1    1    2    0    0  0.10672203100E+04  0.64194582940E+03 -0.12074538582E+04  0.17346464936E+04  0.00000000000E+00 0. -1.
<mgrwt>
<rscale>  0 0.27452156E+04</rscale>
<asrwt>0</asrwt>
<pdfrwt beam="1">  1        1 0.31952303E+00 0.27452156E+04</pdfrwt>
<pdfrwt beam="2">  1       -1 0.13956099E+00 0.27452156E+04</pdfrwt>
<totfact> 0.97112520E-01</totfact>
</mgrwt>
</event>
<event>
 6    1  0.1602550E-005  0.2543316E+04  0.7818608E-02  0.8387715E-01
         -1   -1    0    0    0  501 -0.00000000000E+00  0.00000000000E+00  0.98787531141E+03  0.98787531141E+03  0.00000000000E+00 0.  1.
          1   -1    0    0  501    0  0.00000000000E+00 -0.00000000000E+00 -0.16369612976E+04  0.16369612976E+04  0.00000000000E+00 0. -1.
         23    2    1    2    0    0 -0.39872576996E+02  0.43131752979E+03  0.90711434927E+03  0.10094777888E+04  0.92543662974E+02 0.  0.
         11    1    3    3    0    0 -0.42095242674E+02  0.24334033549E+03  0.60741973822E+03  0.65570211736E+03  0.00000000000E+00 0. -1.
        -11    1    3    3    0    0  0.22226656781E+01  0.18797719430E+03  0.29969461106E+03  0.35377567146E+03  0.00000000000E+00 0.  1.
         22    1    1    2    0    0  0.39872576996E+02 -0.43131752979E+03 -0.15562003355E+04  0.16153588202E+04  0.00000000000E+00 0. -1.
<mgrwt>
<rscale>  0 0.25433157E+04</rscale>
<asrwt>0</asrwt>
<pdfrwt beam="1">  1        1 0.25184020E+00 0.25433157E+04</pdfrwt>
<pdfrwt beam="2">  1       -1 0.15198082E+00 0.25433157E+04</pdfrwt>
<totfact> 0.15686838E+00</totfact>
</mgrwt>
</event>
<event>
 6    1  0.1588846E-005  0.2972459E+04  0.7818608E-02  0.8251639E-01
         -1   -1    0    0    0  501 -0.00000000000E+00  0.00000000000E+00  0.14067721408E+04  0.14067721408E+04  0.00000000000E+00 0.  1.
          1   -1    0    0  501    0  0.00000000000E+00 -0.00000000000E+00 -0.15701744960E+04  0.15701744960E+04  0.00000000000E+00 0. -1.
         23    2    1    2    0    0 -0.11590241106E+04  0.21645867913E+03 -0.98587552813E+03  0.15393606850E+04  0.86541971113E+02 0.  0.
         11    1    3    3    0    0 -0.34111386275E+03  0.24300150385E+02 -0.29321108818E+03  0.45046854152E+03  0.00000000000E+00 0.  1.
        -11    1    3    3    0    0 -0.81791024789E+03  0.19215852875E+03 -0.69266443995E+03  0.10888921435E+04  0.00000000000E+00 0. -1.
         22    1    1    2    0    0  0.11590241106E+04 -0.21645867913E+03  0.82247317285E+03  0.14375859518E+04  0.00000000000E+00 0.  1.
<mgrwt>
<rscale>  0 0.29724587E+04</rscale>
<asrwt>0</asrwt>
<pdfrwt beam="1">  1        1 0.24156531E+00 0.29724587E+04</pdfrwt>
<pdfrwt beam="2">  1       -1 0.21642648E+00 0.29724587E+04</pdfrwt>
<totfact> 0.58047108E-01</totfact>
</mgrwt>
</event>
<event>
 6    1  0.1588846E-005  0.1146782E+04  0.7818608E-02  0.9160757E-01
         -1   -1    0    0    0  501 -0.00000000000E+00  0.00000000000E+00  0.16173228669E+04  0.16173228669E+04  0.00000000000E+00 0.  1.
          1   -1    0    0  501    0  0.00000000000E+00 -0.00000000000E+00 -0.20328501770E+03  0.20328501770E+03  0.00000000000E+00 0. -1.
         23    2    1    2    0    0 -0.30750030391E+03  0.40692294195E+03  0.30828790931E+03  0.60289459849E+03  0.91091955062E+02 0.  0.
         13    1    3    3    0    0 -0.14579582358E+03  0.13321377651E+03  0.88530288604E+02  0.21642537842E+03  0.00000000000E+00 0. -1.
        -13    1    3    3    0    0 -0.16170448033E+03  0.27370916543E+03  0.21975762070E+03  0.38646922006E+03  0.00000000000E+00 0.  1.
         22    1    1    2    0    0  0.30750030391E+03 -0.40692294195E+03  0.11057499399E+04  0.12177132861E+04  0.00000000000E+00 0.  1.
<mgrwt>
<rscale>  0 0.11467825E+04</rscale>
<asrwt>0</asrwt>
<pdfrwt beam="1">  1        1 0.31274619E-01 0.11467825E+04</pdfrwt>
<pdfrwt beam="2">  1       -1 0.24881889E+00 0.11467825E+04</pdfrwt>
<totfact> 0.10299965E+01</totfact>
</mgrwt>
</event>
<event>
 6    1  0.1588846E-005  0.3447551E+04  0.7818608E-02  0.8126333E-01
         -2   -1    0    0    0  501 -0.00000000000E+00  0.00000000000E+00  0.11445907127E+04  0.11445907127E+04  0.00000000000E+00 0.  1.
          2   -1    0    0  501    0  0.00000000000E+00 -0.00000000000E+00 -0.25960383511E+04  0.25960383511E+04  0.00000000000E+00 0. -1.
         23    2    1    2    0    0  0.15214904547E+04  0.42696061048E+03 -0.14702317873E+04  0.21602552438E+04  0.88840550882E+02 0.  0.
         13    1    3    3    0    0  0.93537107448E+03  0.28447753183E+03 -0.85751104433E+03  0.13004505774E+04  0.00000000000E+00 0.  1.
        -13    1    3    3    0    0  0.58611938023E+03  0.14248307865E+03 -0.61272074297E+03  0.85980466645E+03  0.00000000000E+00 0. -1.
         22    1    1    2    0    0 -0.15214904547E+04 -0.42696061048E+03  0.18784148962E+02  0.15803738200E+04  0.00000000000E+00 0.  1.
<mgrwt>
<rscale>  0 0.34475507E+04</rscale>
<asrwt>0</asrwt>
<pdfrwt beam="1">  1        2 0.39939051E+00 0.34475507E+04</pdfrwt>
<pdfrwt beam="2">  1       -2 0.17609088E+00 0.34475507E+04</pdfrwt>
<totfact> 0.48731745E-01</totfact>
</mgrwt>
</event>
<event>
 6    1  0.1588846E-005  0.3633512E+04  0.7818608E-02  0.8082858E-01
         -2   -1    0    0    0  501 -0.00000000000E+00  0.00000000000E+00  0.17201791919E+04  0.17201791919E+04  0.00000000000E+00 0.  1.
          2   -1    0    0  501    0  0.00000000000E+00 -0.00000000000E+00 -0.19187547750E+04  0.19187547750E+04  0.00000000000E+00 0. -1.
         23    2    1    2    0    0 -0.16032844027E+04 -0.59816910192E+03  0.50837276958E+03  0.17874202285E+04  0.90005832451E+02 0.  0.
         13    1    3    3    0    0 -0.61603414398E+03 -0.18348893809E+03  0.18693986004E+03  0.66941225580E+03  0.00000000000E+00 0. -1.
        -13    1    3    3    0    0 -0.98725025872E+03 -0.41468016383E+03  0.32143290953E+03  0.11180079727E+04  0.00000000000E+00 0.  1.
         22    1    1    2    0    0  0.16032844027E+04  0.59816910192E+03 -0.70694835264E+03  0.18515137385E+04  0.00000000000E+00 0. -1.
<mgrwt>
<rscale>  0 0.36335118E+04</rscale>
<asrwt>0</asrwt>
<pdfrwt beam="1">  1        2 0.29519304E+00 0.36335118E+04</pdfrwt>
<pdfrwt beam="2">  1       -2 0.26464295E+00 0.36335118E+04</pdfrwt>
<totfact> 0.31493401E-01</totfact>
</mgrwt>
</event>
<event>
 6    1  0.1588846E-005  0.2422208E+04  0.7818608E-02  0.8431236E-01
          2   -1    0    0  501    0  0.00000000000E+00  0.00000000000E+00  0.88217106524E+03  0.88217106524E+03  0.00000000000E+00 0. -1.
         -2   -1    0    0    0  501 -0.00000000000E+00 -0.00000000000E+00 -0.16626858814E+04  0.16626858814E+04  0.00000000000E+00 0.  1.
         23    2    1    2    0    0  0.56892812895E+03 -0.10426122686E+04 -0.15177432677E+03  0.12009692424E+04  0.92585724737E+02 0.  0.
         11    1    3    3    0    0  0.53537416636E+03 -0.10076524231E+04 -0.13209159337E+03  0.11486675293E+04  0.00000000000E+00 0. -1.
        -11    1    3    3    0    0  0.33553962586E+02 -0.34959845480E+02 -0.19682733396E+02  0.52301713118E+02  0.00000000000E+00 0.  1.
         22    1    1    2    0    0 -0.56892812895E+03  0.10426122686E+04 -0.62874048941E+03  0.13438877042E+04  0.00000000000E+00 0.  1.
<mgrwt>
<rscale>  0 0.24222084E+04</rscale>
<asrwt>0</asrwt>
<pdfrwt beam="1">  1        2 0.13571863E+00 0.24222084E+04</pdfrwt>
<pdfrwt beam="2">  1       -2 0.25579783E+00 0.24222084E+04</pdfrwt>
<totfact> 0.16021000E+00</totfact>
</mgrwt>
</event>
<event>
 6    1  0.1588846E-005  0.2529367E+04  0.7818608E-02  0.8392597E-01
          2   -1    0    0  501    0  0.00000000000E+00  0.00000000000E+00  0.40935448960E+04  0.40935448960E+04  0.00000000000E+00 0. -1.
         -2   -1    0    0    0  501 -0.00000000000E+00 -0.00000000000E+00 -0.39071875390E+03  0.39071875390E+03  0.00000000000E+00 0.  1.
         23    2    1    2    0    0  0.83670350320E+03 -0.25456096839E+02  0.35305977573E+04  0.36296389476E+04  0.91856415990E+02 0.  0.
         11    1    3    3    0    0  0.17042038201E+03  0.29823153721E+02  0.77931597588E+03  0.79828936944E+03  0.00000000000E+00 0. -1.
        -11    1    3    3    0    0  0.66628312119E+03 -0.55279250560E+02  0.27512817814E+04  0.28313495782E+04  0.00000000000E+00 0.  1.
         22    1    1    2    0    0 -0.83670350320E+03  0.25456096839E+02  0.17222838474E+03  0.85462470222E+03  0.00000000000E+00 0.  1.
<mgrwt>
<rscale>  0 0.25293673E+04</rscale>
<asrwt>0</asrwt>
<pdfrwt beam="1">  1        2 0.62977611E+00 0.25293673E+04</pdfrwt>
<pdfrwt beam="2">  1       -2 0.60110580E-01 0.25293673E+04</pdfrwt>
<totfact> 0.66006497E-01</totfact>
</mgrwt>
</event>
<event>
 6    1  0.1588846E-005  0.1484964E+04  0.7818608E-02  0.8894514E-01
          2   -1    0    0  501    0  0.00000000000E+00  0.00000000000E+00  0.16504061409E+04  0.16504061409E+04  0.00000000000E+00 0.  1.
         -2   -1    0    0    0  501 -0.00000000000E+00 -0.00000000000E+00 -0.33402668265E+03  0.33402668265E+03  0.00000000000E+00 0. -1.
         23    2    1    2    0    0  0.23641829089E+03  0.31012133024E+03 -0.17939527189E+03  0.43866088337E+03  0.90398336752E+02 0.  0.
         13    1    3    3    0    0  0.12896624449E+03  0.22341203199E+03 -0.14673491438E+03  0.29677662198E+03  0.00000000000E+00 0. -1.
        -13    1    3    3    0    0  0.10745204640E+03  0.86709298254E+02 -0.32660357508E+02  0.14188426139E+03  0.00000000000E+00 0.  1.
         22    1    1    2    0    0 -0.23641829089E+03 -0.31012133024E+03  0.14957747301E+04  0.15457719402E+04  0.00000000000E+00 0.  1.
<mgrwt>
<rscale>  0 0.14849642E+04</rscale>
<asrwt>0</asrwt>
<pdfrwt beam="1">  1        2 0.25390863E+00 0.14849642E+04</pdfrwt>
<pdfrwt beam="2">  1       -2 0.51388721E-01 0.14849642E+04</pdfrwt>
<totfact> 0.36162956E+01</totfact>
</mgrwt>
</event>
<event>
 6    1  0.1588846E-005  0.1285010E+04  0.7818608E-02  0.9041537E-01
          2   -1    0    0  501    0  0.00000000000E+00  0.00000000000E+00  0.25178993022E+04  0.25178993022E+04  0.00000000000E+00 0.  1.
         -2   -1    0    0    0  501 -0.00000000000E+00 -0.00000000000E+00 -0.16395127954E+03  0.16395127954E+03  0.00000000000E+00 0. -1.
         23    2    1    2    0    0 -0.14852403687E+03 -0.40489236528E+03  0.21677218864E+04  0.22120874597E+04  0.91189559572E+02 0.  0.
         13    1    3    3    0    0 -0.11752785158E+03 -0.37843733718E+03  0.20360647738E+04  0.20742679135E+04  0.00000000000E+00 0. -1.
        -13    1    3    3    0    0 -0.30996185294E+02 -0.26455028095E+02  0.13165711260E+03  0.13781954619E+03  0.00000000000E+00 0.  1.
         22    1    1    2    0    0  0.14852403687E+03  0.40489236528E+03  0.18622613631E+03  0.46976312204E+03  0.00000000000E+00 0. -1.
<mgrwt>
<rscale>  0 0.12850102E+04</rscale>
<asrwt>0</asrwt>
<pdfrwt beam="1">  1        2 0.38736909E+00 0.12850102E+04</pdfrwt>
<pdfrwt beam="2">  1       -2 0.25223276E-01 0.12850102E+04</pdfrwt>
<totfact> 0.47319174E+01</totfact>
</mgrwt>
</event>
<event>
 6    1  0.1588846E-005  0.2119560E+04  0.7818608E-02  0.8552676E-01
          2   -1    0    0  501    0  0.00000000000E+00  0.00000000000E+00  0.31246852910E+04  0.31246852910E+04  0.00000000000E+00 0. -1.
         -2   -1    0    0    0  501 -0.00000000000E+00 -0.00000000000E+00 -0.35943891115E+03  0.35943891115E+03  0.00000000000E+00 0.  1.
         23    2    1    2    0    0  0.63511225320E+03 -0.65769185598E+03  0.50988575474E+03  0.10504895334E+04  0.87284737116E+02 0.  0.
         13    1    3    3    0    0  0.14575591213E+03 -0.19922437125E+03  0.15950147253E+03  0.29389769608E+03  0.00000000000E+00 0.  1.
        -13    1    3    3    0    0  0.48935634107E+03 -0.45846748473E+03  0.35038428221E+03  0.75659183733E+03  0.00000000000E+00 0. -1.
         22    1    1    2    0    0 -0.63511225320E+03  0.65769185598E+03  0.22553606251E+04  0.24336346688E+04  0.00000000000E+00 0. -1.
<mgrwt>
<rscale>  0 0.21195598E+04</rscale>
<asrwt>0</asrwt>
<pdfrwt beam="1">  1        2 0.48072080E+00 0.21195598E+04</pdfrwt>
<pdfrwt beam="2">  1       -2 0.55298296E-01 0.21195598E+04</pdfrwt>
<totfact> 0.41131494E+00</totfact>
</mgrwt>
</event>
<event>
 6    1  0.1588846E-005  0.1486383E+04  0.7818608E-02  0.8893559E-01
          4   -1    0    0  501    0  0.00000000000E+00  0.00000000000E+00  0.99031433532E+03  0.99031433532E+03  0.00000000000E+00 0. -1.
         -4   -1    0    0    0  501 -0.00000000000E+00 -0.00000000000E+00 -0.55773600568E+03  0.55773600568E+03  0.00000000000E+00 0.  1.
         23    2    1    2    0    0  0.71371448573E+03 -0.84002033895E+02  0.40403414051E+03  0.82884280519E+03  0.85393794706E+02 0.  0.
         13    1    3    3    0    0  0.22598336415E+02  0.63414759155E+01  0.53694823801E+00  0.23477381433E+02  0.00000000000E+00 0.  1.
        -13    1    3    3    0    0  0.69111614931E+03 -0.90343509811E+02  0.40349719227E+03  0.80536542376E+03  0.00000000000E+00 0. -1.
         22    1    1    2    0    0 -0.71371448573E+03  0.84002033895E+02  0.28544189136E+02  0.71920753581E+03  0.00000000000E+00 0. -1.
<mgrwt>
<rscale>  0 0.14863835E+04</rscale>
<asrwt>0</asrwt>
<pdfrwt beam="1">  1        4 0.15235605E+00 0.14863835E+04</pdfrwt>
<pdfrwt beam="2">  1       -4 0.85805540E-01 0.14863835E+04</pdfrwt>
<totfact> 0.65301927E-01</totfact>
</mgrwt>
</event>
<event>
 6    1  0.1588846E-005  0.2179668E+04  0.7818608E-02  0.8526939E-01
          2   -1    0    0  501    0  0.00000000000E+00  0.00000000000E+00  0.16672422058E+04  0.16672422058E+04  0.00000000000E+00 0.  1.
         -2   -1    0    0    0  501 -0.00000000000E+00 -0.00000000000E+00 -0.71239677129E+03  0.71239677129E+03  0.00000000000E+00 0. -1.
         23    2    1    2    0    0 -0.79271801923E+03 -0.73334940354E+03  0.33452444659E+03  0.11342469369E+04  0.91685892400E+02 0.  0.
         11    1    3    3    0    0 -0.50465390698E+03 -0.43548549208E+03  0.16613284020E+03  0.68696673882E+03  0.00000000000E+00 0.  1.
        -11    1    3    3    0    0 -0.28806411224E+03 -0.29786391146E+03  0.16839160639E+03  0.44728019810E+03  0.00000000000E+00 0. -1.
         22    1    1    2    0    0  0.79271801923E+03  0.73334940354E+03  0.62032098794E+03  0.12453920402E+04  0.00000000000E+00 0.  1.
<mgrwt>
<rscale>  0 0.21796678E+04</rscale>
<asrwt>0</asrwt>
<pdfrwt beam="1">  1        2 0.25649880E+00 0.21796678E+04</pdfrwt>
<pdfrwt beam="2">  1       -2 0.10959950E+00 0.21796678E+04</pdfrwt>
<totfact> 0.62076564E+00</totfact>
</mgrwt>
</event>
<event>
 6    1  0.1588846E-005  0.2452907E+04  0.7818608E-02  0.8419957E-01
          1   -1    0    0  501    0  0.00000000000E+00  0.00000000000E+00  0.31005047762E+04  0.31005047762E+04  0.00000000000E+00 0. -1.
         -1   -1    0    0    0  501 -0.00000000000E+00 -0.00000000000E+00 -0.48514319712E+03  0.48514319712E+03  0.00000000000E+00 0.  1.
         23    2    1    2    0    0  0.39962408809E+03  0.10943939873E+04  0.75920593268E+03  0.13941390422E+04  0.99158507354E+02 0.  0.
         11    1    3    3    0    0  0.29671968249E+02  0.18351626958E+03  0.11035080239E+03  0.21618498211E+03  0.00000000000E+00 0. -1.
        -11    1    3    3    0    0  0.36995211984E+03  0.91087771776E+03  0.64885513029E+03  0.11779540601E+04  0.00000000000E+00 0.  1.
         22    1    1    2    0    0 -0.39962408809E+03 -0.10943939873E+04  0.18561556464E+04  0.21915089311E+04  0.00000000000E+00 0. -1.
<mgrwt>
<rscale>  0 0.24529075E+04</rscale>
<asrwt>0</asrwt>
<pdfrwt beam="1">  1        1 0.47700072E+00 0.24529075E+04</pdfrwt>
<pdfrwt beam="2">  1       -1 0.74637417E-01 0.24529075E+04</pdfrwt>
<totfact> 0.81258485E-01</totfact>
</mgrwt>
</event>
<event>
 6    1  0.1588846E-005  0.2416668E+04  0.7818608E-02  0.8433290E-01
          2   -1    0    0  501    0  0.00000000000E+00  0.00000000000E+00  0.49540281481E+03  0.49540281481E+03  0.00000000000E+00 0. -1.
         -2   -1    0    0    0  501 -0.00000000000E+00 -0.00000000000E+00 -0.29472391565E+04  0.29472391565E+04  0.00000000000E+00 0.  1.
         23    2    1    2    0    0 -0.64899300448E+03  0.43925118237E+03 -0.25346606179E+04  0.26546106383E+04  0.91212235631E+02 0.  0.
         11    1    3    3    0    0 -0.33673996432E+03  0.26011691888E+03 -0.12482918722E+04  0.13188203871E+04  0.00000000000E+00 0. -1.
        -11    1    3    3    0    0 -0.31225304016E+03  0.17913426349E+03 -0.12863687456E+04  0.13357902512E+04  0.00000000000E+00 0.  1.
         22    1    1    2    0    0  0.64899300448E+03 -0.43925118237E+03  0.82824276214E+02  0.78803133301E+03  0.00000000000E+00 0. -1.
<mgrwt>
<rscale>  0 0.24166676E+04</rscale>
<asrwt>0</asrwt>
<pdfrwt beam="1">  1        2 0.76215817E-01 0.24166676E+04</pdfrwt>
<pdfrwt beam="2">  1       -2 0.45342141E+00 0.24166676E+04</pdfrwt>
<totfact> 0.18402609E-01</totfact>
</mgrwt>
</event>
<event>
 6    1  0.1588846E-005  0.1702180E+04  0.7818608E-02  0.8760122E-01
         -2   -1    0    0    0  501 -0.00000000000E+00  0.00000000000E+00  0.44719062240E+03  0.44719062240E+03  0.00000000000E+00 0.  1.
          2   -1    0    0  501    0  0.00000000000E+00 -0.00000000000E+00 -0.16197875914E+04  0.16197875914E+04  0.00000000000E+00 0. -1.
         23    2    1    2    0    0 -0.85044210879E+01  0.81814982971E+03 -0.31257381760E+03  0.87993091484E+03  0.84466291538E+02 0.  0.
         13    1    3    3    0    0  0.21742015152E+02  0.11025202174E+03 -0.24200842658E+02  0.11495174773E+03  0.00000000000E+00 0. -1.
        -13    1    3    3    0    0 -0.30246436240E+02  0.70789780797E+03 -0.28837297494E+03  0.76497916711E+03  0.00000000000E+00 0.  1.
         22    1    1    2    0    0  0.85044210879E+01 -0.81814982971E+03 -0.86002315138E+03  0.11870472989E+04  0.00000000000E+00 0.  1.
<mgrwt>
<rscale>  0 0.17021796E+04</rscale>
<asrwt>0</asrwt>
<pdfrwt beam="1">  1        2 0.24919809E+00 0.17021796E+04</pdfrwt>
<pdfrwt beam="2">  1       -2 0.68798556E-01 0.17021796E+04</pdfrwt>
<totfact> 0.19964693E+01</totfact>
</mgrwt>
</event>
<event>
 6    1  0.1588846E-005  0.2737173E+04  0.7818608E-02  0.8323043E-01
          2   -1    0    0  501    0  0.00000000000E+00  0.00000000000E+00  0.11679278342E+04  0.11679278342E+04  0.00000000000E+00 0. -1.
         -2   -1    0    0    0  501 -0.00000000000E+00 -0.00000000000E+00 -0.16037198118E+04  0.16037198118E+04  0.00000000000E+00 0.  1.
         23    2    1    2    0    0  0.17047942343E+03  0.11303578057E+04  0.54109693324E+03  0.12679575360E+04  0.90323966996E+02 0.  0.
         13    1    3    3    0    0  0.17564152830E+03  0.94541555178E+03  0.45982826342E+03  0.10658811115E+04  0.00000000000E+00 0. -1.
        -13    1    3    3    0    0 -0.51621048717E+01  0.18494225396E+03  0.81268669820E+02  0.20207642446E+03  0.00000000000E+00 0.  1.
         22    1    1    2    0    0 -0.17047942343E+03 -0.11303578057E+04 -0.97688891081E+03  0.15036901100E+04  0.00000000000E+00 0.  1.
<mgrwt>
<rscale>  0 0.27371730E+04</rscale>
<asrwt>0</asrwt>
<pdfrwt beam="1">  1        2 0.17968120E+00 0.27371730E+04</pdfrwt>
<pdfrwt beam="2">  1       -2 0.24672613E+00 0.27371730E+04</pdfrwt>
<totfact> 0.11658027E+00</totfact>
</mgrwt>
</event>
<event>
 6    1  0.1588846E-005  0.2872451E+04  0.7818608E-02  0.8281121E-01
         -1   -1    0    0    0  501 -0.00000000000E+00  0.00000000000E+00  0.18378350719E+04  0.18378350719E+04  0.00000000000E+00 0.  1.
          1   -1    0    0  501    0  0.00000000000E+00 -0.00000000000E+00 -0.11223772884E+04  0.11223772884E+04  0.00000000000E+00 0. -1.
         23    2    1    2    0    0 -0.52054675058E+03  0.43176092131E+03  0.16620966183E+04  0.17968072304E+04  0.92545350904E+02 0.  0.
         11    1    3    3    0    0 -0.15671266546E+03  0.77943717035E+02  0.41471040436E+03  0.45013198289E+03  0.00000000000E+00 0. -1.
        -11    1    3    3    0    0 -0.36383408512E+03  0.35381720428E+03  0.12473862140E+04  0.13466752475E+04  0.00000000000E+00 0.  1.
         22    1    1    2    0    0  0.52054675058E+03 -0.43176092131E+03 -0.94663883481E+03  0.11634051299E+04  0.00000000000E+00 0. -1.
<mgrwt>
<rscale>  0 0.28724515E+04</rscale>
<asrwt>0</asrwt>
<pdfrwt beam="1">  1        1 0.17267343E+00 0.28724515E+04</pdfrwt>
<pdfrwt beam="2">  1       -1 0.28274386E+00 0.28724515E+04</pdfrwt>
<totfact> 0.44831782E-01</totfact>
</mgrwt>
</event>
<event>
 6    1  0.1588846E-005  0.2118853E+04  0.7818608E-02  0.8552984E-01
          2   -1    0    0  501    0  0.00000000000E+00  0.00000000000E+00  0.11473783312E+04  0.11473783312E+04  0.00000000000E+00 0.  1.
         -2   -1    0    0    0  501 -0.00000000000E+00 -0.00000000000E+00 -0.97821673097E+03  0.97821673097E+03  0.00000000000E+00 0. -1.
         23    2    1    2    0    0 -0.12511982569E+03 -0.52296093597E+03 -0.82874179645E+03  0.99203681468E+03  0.90448688097E+02 0.  0.
         11    1    3    3    0    0 -0.62912939104E+02 -0.20921472864E+03 -0.41588092397E+03  0.46977205484E+03  0.00000000000E+00 0. -1.
        -11    1    3    3    0    0 -0.62206886591E+02 -0.31374620732E+03 -0.41286087248E+03  0.52226475984E+03  0.00000000000E+00 0.  1.
         22    1    1    2    0    0  0.12511982569E+03  0.52296093597E+03  0.99790339671E+03  0.11335582475E+04  0.00000000000E+00 0.  1.
<mgrwt>
<rscale>  0 0.21188532E+04</rscale>
<asrwt>0</asrwt>
<pdfrwt beam="1">  1        2 0.17651974E+00 0.21188532E+04</pdfrwt>
<pdfrwt beam="2">  1       -2 0.15049488E+00 0.21188532E+04</pdfrwt>
<totfact> 0.55690259E+00</totfact>
</mgrwt>
</event>
<event>
 6    1  0.1588846E-005  0.1061816E+04  0.7818608E-02  0.9243229E-01
         -2   -1    0    0    0  501 -0.00000000000E+00  0.00000000000E+00  0.47874149591E+03  0.47874149591E+03  0.00000000000E+00 0.  1.
          2   -1    0    0  501    0  0.00000000000E+00 -0.00000000000E+00 -0.58875930802E+03  0.58875930802E+03  0.00000000000E+00 0. -1.
         23    2    1    2    0    0  0.43614045262E+03  0.30202550565E+02  0.24087870460E+03  0.50691267178E+03  0.88358463186E+02 0.  0.
         11    1    3    3    0    0  0.17955981098E+03 -0.31016623671E+02  0.10092921863E+03  0.20830377778E+03  0.00000000000E+00 0. -1.
        -11    1    3    3    0    0  0.25658064164E+03  0.61219174236E+02  0.13994948597E+03  0.29860889401E+03  0.00000000000E+00 0.  1.
         22    1    1    2    0    0 -0.43614045262E+03 -0.30202550565E+02 -0.35089651671E+03  0.56058813215E+03  0.00000000000E+00 0. -1.
<mgrwt>
<rscale>  0 0.10618164E+04</rscale>
<asrwt>0</asrwt>
<pdfrwt beam="1">  1        2 0.90578355E-01 0.10618164E+04</pdfrwt>
<pdfrwt beam="2">  1       -2 0.73652538E-01 0.10618164E+04</pdfrwt>
<totfact> 0.83989855E+01</totfact>
</mgrwt>
</event>
<event>
 6    1  0.1588846E-005  0.8312465E+03  0.7818608E-02  0.9515859E-01
          2   -1    0    0  501    0  0.00000000000E+00  0.00000000000E+00  0.51690823551E+03  0.51690823551E+03  0.00000000000E+00 0.  1.
         -2   -1    0    0    0  501 -0.00000000000E+00 -0.00000000000E+00 -0.33418441232E+03  0.33418441232E+03  0.00000000000E+00 0. -1.
         23    2    1    2    0    0 -0.22203978293E+03  0.34503258253E+03  0.99410233860E+02  0.43241580063E+03  0.93551492928E+02 0.  0.
         13    1    3    3    0    0 -0.86857009421E+02  0.22040079449E+03  0.52120610104E+02  0.24256382314E+03  0.00000000000E+00 0.  1.
        -13    1    3    3    0    0 -0.13518277351E+03  0.12463178804E+03  0.47289623755E+02  0.18985197749E+03  0.00000000000E+00 0. -1.
         22    1    1    2    0    0  0.22203978293E+03 -0.34503258253E+03  0.83313589337E+02  0.41867684720E+03  0.00000000000E+00 0. -1.
<mgrwt>
<rscale>  0 0.83124647E+03</rscale>
<asrwt>0</asrwt>
<pdfrwt beam="1">  1        2 0.79524344E-01 0.83124647E+03</pdfrwt>
<pdfrwt beam="2">  1       -2 0.51412986E-01 0.83124647E+03</pdfrwt>
<totfact> 0.21301634E+02</totfact>
</mgrwt>
</event>
<event>
 6    1  0.1588846E-005  0.2890085E+04  0.7818608E-02  0.8275833E-01
          2   -1    0    0  501    0  0.00000000000E+00  0.00000000000E+00  0.12248767508E+04  0.12248767508E+04  0.00000000000E+00 0. -1.
         -2   -1    0    0    0  501 -0.00000000000E+00 -0.00000000000E+00 -0.17047824136E+04  0.17047824136E+04  0.00000000000E+00 0.  1.
         23    2    1    2    0    0  0.12590746355E+04  0.67833990789E+03 -0.35986297636E+02  0.14321684729E+04  0.66314044668E+02 0.  0.
         11    1    3    3    0    0  0.44048576162E+03  0.27063839232E+03 -0.25408486426E+02  0.51760838167E+03  0.00000000000E+00 0.  1.
        -11    1    3    3    0    0  0.81858887392E+03  0.40770151557E+03 -0.10577811210E+02  0.91456009119E+03  0.00000000000E+00 0. -1.
         22    1    1    2    0    0 -0.12590746355E+04 -0.67833990789E+03 -0.44391936516E+03  0.14974906916E+04  0.00000000000E+00 0.  1.
<mgrwt>
<rscale>  0 0.28900854E+04</rscale>
<asrwt>0</asrwt>
<pdfrwt beam="1">  1        2 0.18844258E+00 0.28900854E+04</pdfrwt>
<pdfrwt beam="2">  1       -2 0.26227422E+00 0.28900854E+04</pdfrwt>
<totfact> 0.85430452E-01</totfact>
</mgrwt>
</event>
<event>
 6    1  0.1588846E-005  0.2738029E+04  0.7818608E-02  0.8322770E-01
          2   -1    0    0  501    0  0.00000000000E+00  0.00000000000E+00  0.38729434511E+04  0.38729434511E+04  0.00000000000E+00 0. -1.
         -2   -1    0    0    0  501 -0.00000000000E+00 -0.00000000000E+00 -0.48392146489E+03  0.48392146489E+03  0.00000000000E+00 0.  1.
         23    2    1    2    0    0 -0.12938373872E+04  0.60211590061E+02  0.99850955209E+03  0.16380066413E+04  0.91672304896E+02 0.  0.
         11    1    3    3    0    0 -0.19719128197E+03 -0.20065408182E+02  0.17205340660E+03  0.26246789710E+03  0.00000000000E+00 0. -1.
        -11    1    3    3    0    0 -0.10966461052E+04  0.80276998243E+02  0.82645614550E+03  0.13755387442E+04  0.00000000000E+00 0.  1.
         22    1    1    2    0    0  0.12938373872E+04 -0.60211590061E+02  0.23905124341E+04  0.27188582746E+04  0.00000000000E+00 0. -1.
<mgrwt>
<rscale>  0 0.27380288E+04</rscale>
<asrwt>0</asrwt>
<pdfrwt beam="1">  1        2 0.59583743E+00 0.27380288E+04</pdfrwt>
<pdfrwt beam="2">  1       -2 0.74449459E-01 0.27380288E+04</pdfrwt>
<totfact> 0.61314617E-01</totfact>
</mgrwt>
</event>
<event>
 6    1  0.1588846E-005  0.2090712E+04  0.7818608E-02  0.8565346E-01
          2   -1    0    0  501    0  0.00000000000E+00  0.00000000000E+00  0.13998017242E+04  0.13998017242E+04  0.00000000000E+00 0. -1.
         -2   -1    0    0    0  501 -0.00000000000E+00 -0.00000000000E+00 -0.78065982628E+03  0.78065982628E+03  0.00000000000E+00 0.  1.
         23    2    1    2    0    0  0.62956139843E+03 -0.15447447381E+03 -0.54256031516E+03  0.85013754884E+03  0.90289749750E+02 0.  0.
         11    1    3    3    0    0  0.43227741160E+03 -0.13876825923E+03 -0.34230647028E+03  0.56858957953E+03  0.00000000000E+00 0. -1.
        -11    1    3    3    0    0  0.19728398683E+03 -0.15706214577E+02 -0.20025384488E+03  0.28154796931E+03  0.00000000000E+00 0.  1.
         22    1    1    2    0    0 -0.62956139843E+03  0.15447447381E+03  0.11617022131E+04  0.13303240016E+04  0.00000000000E+00 0. -1.
<mgrwt>
<rscale>  0 0.20907118E+04</rscale>
<asrwt>0</asrwt>
<pdfrwt beam="1">  1        2 0.21535411E+00 0.20907118E+04</pdfrwt>
<pdfrwt beam="2">  1       -2 0.12010151E+00 0.20907118E+04</pdfrwt>
<totfact> 0.70747063E+00</totfact>
</mgrwt>
</event>
<event>
 6    1  0.1588846E-005  0.2024436E+04  0.7818608E-02  0.8595280E-01
          2   -1    0    0  501    0  0.00000000000E+00  0.00000000000E+00  0.17695008723E+04  0.17695008723E+04  0.00000000000E+00 0. -1.
         -2   -1    0    0    0  501 -0.00000000000E+00 -0.00000000000E+00 -0.57902530422E+03  0.57902530422E+03  0.00000000000E+00 0.  1.
         23    2    1    2    0    0  0.39531319920E+03 -0.86294629663E+03  0.99637446548E+03  0.13797000444E+04  0.99304081837E+02 0.  0.
         13    1    3    3    0    0  0.29854045102E+03 -0.69644350053E+03  0.74080841797E+03  0.10596966842E+04  0.00000000000E+00 0.  1.
        -13    1    3    3    0    0  0.96772748185E+02 -0.16650279611E+03  0.25556604751E+03  0.32000336021E+03  0.00000000000E+00 0. -1.
         22    1    1    2    0    0 -0.39531319920E+03  0.86294629663E+03  0.19410110265E+03  0.96882613218E+03  0.00000000000E+00 0.  1.
<mgrwt>
<rscale>  0 0.20244365E+04</rscale>
<asrwt>0</asrwt>
<pdfrwt beam="1">  1        2 0.27223090E+00 0.20244365E+04</pdfrwt>
<pdfrwt beam="2">  1       -2 0.89080817E-01 0.20244365E+04</pdfrwt>
<totfact> 0.90020441E+00</totfact>
</mgrwt>
</event>
<event>
 6    1  0.1588846E-005  0.2271089E+04  0.7818608E-02  0.8489408E-01
          2   -1    0    0  501    0  0.00000000000E+00  0.00000000000E+00  0.16293097706E+04  0.16293097706E+04  0.00000000000E+00 0. -1.
         -2   -1    0    0    0  501 -0.00000000000E+00 -0.00000000000E+00 -0.79141555471E+03  0.79141555471E+03  0.00000000000E+00 0.  1.
         23    2    1    2    0    0  0.73265838147E+03 -0.48065656554E+03  0.11864111304E+04  0.14777072568E+04  0.90710134128E+02 0.  0.
         11    1    3    3    0    0  0.52471994468E+03 -0.32286612663E+03  0.76843843574E+03  0.98492191852E+03  0.00000000000E+00 0. -1.
        -11    1    3    3    0    0  0.20793843679E+03 -0.15779043891E+03  0.41797269466E+03  0.49278533824E+03  0.00000000000E+00 0.  1.
         22    1    1    2    0    0 -0.73265838147E+03  0.48065656554E+03 -0.34851691450E+03  0.94301806856E+03  0.00000000000E+00 0.  1.
<mgrwt>
<rscale>  0 0.22710888E+04</rscale>
<asrwt>0</asrwt>
<pdfrwt beam="1">  1        2 0.25066304E+00 0.22710888E+04</pdfrwt>
<pdfrwt beam="2">  1       -2 0.12175624E+00 0.22710888E+04</pdfrwt>
<totfact> 0.49983909E+00</totfact>
</mgrwt>
</event>
<event>
 6    1  0.1588846E-005  0.2153533E+04  0.7818608E-02  0.8538021E-01
          2   -1    0    0  501    0  0.00000000000E+00  0.00000000000E+00  0.44040658550E+03  0.44040658550E+03  0.00000000000E+00 0. -1.
         -2   -1    0    0    0  501 -0.00000000000E+00 -0.00000000000E+00 -0.26326271595E+04  0.26326271595E+04  0.00000000000E+00 0.  1.
         23    2    1    2    0    0  0.73605726324E+03  0.15442967658E+03 -0.28757451090E+01  0.75811266653E+03  0.95381997590E+02 0.  0.
         11    1    3    3    0    0  0.65947532486E+03  0.12110223638E+03  0.22325070348E+02  0.67087395576E+03  0.00000000000E+00 0. -1.
        -11    1    3    3    0    0  0.76581938388E+02  0.33327440204E+02 -0.25200815457E+02  0.87238710774E+02  0.00000000000E+00 0.  1.
         22    1    1    2    0    0 -0.73605726324E+03 -0.15442967658E+03 -0.21893448289E+04  0.23149210785E+04  0.00000000000E+00 0.  1.
<mgrwt>
<rscale>  0 0.21535332E+04</rscale>
<asrwt>0</asrwt>
<pdfrwt beam="1">  1        2 0.67754861E-01 0.21535332E+04</pdfrwt>
<pdfrwt beam="2">  1       -2 0.40501956E+00 0.21535332E+04</pdfrwt>
<totfact> 0.45088083E-01</totfact>
</mgrwt>
</event>
<event>
 6    1  0.1588846E-005  0.1255430E+04  0.7818608E-02  0.9065676E-01
         -2   -1    0    0    0  501 -0.00000000000E+00  0.00000000000E+00  0.76775697057E+03  0.76775697057E+03  0.00000000000E+00 0. -1.
          2   -1    0    0  501    0  0.00000000000E+00 -0.00000000000E+00 -0.51321748949E+03  0.51321748949E+03  0.00000000000E+00 0.  1.
         23    2    1    2    0    0  0.10317920154E+03 -0.24827445995E+03  0.70302241853E+03  0.75807571241E+03  0.90289034213E+02 0.  0.
         13    1    3    3    0    0  0.47619199623E+02 -0.21092245155E+03  0.51836245648E+03  0.56165425755E+03  0.00000000000E+00 0. -1.
        -13    1    3    3    0    0  0.55560001917E+02 -0.37352008406E+02  0.18465996205E+03  0.19642145486E+03  0.00000000000E+00 0.  1.
         22    1    1    2    0    0 -0.10317920154E+03  0.24827445995E+03 -0.44848293745E+03  0.52289874764E+03  0.00000000000E+00 0.  1.
<mgrwt>
<rscale>  0 0.12554303E+04</rscale>
<asrwt>0</asrwt>
<pdfrwt beam="1">  1        2 0.78956536E-01 0.12554303E+04</pdfrwt>
<pdfrwt beam="2">  1       -2 0.11811646E+00 0.12554303E+04</pdfrwt>
<totfact> 0.32423107E+01</totfact>
</mgrwt>
</event>
<event>
 6    1  0.1588846E-005  0.1650469E+04  0.7818608E-02  0.8790129E-01
         -1   -1    0    0    0  501 -0.00000000000E+00  0.00000000000E+00  0.16766763894E+04  0.16766763894E+04  0.00000000000E+00 0.  1.
          1   -1    0    0  501    0  0.00000000000E+00 -0.00000000000E+00 -0.40616796321E+03  0.40616796321E+03  0.00000000000E+00 0. -1.
         23    2    1    2    0    0 -0.11274011794E+03 -0.53834774379E+03 -0.13472147442E+03  0.57380502210E+03  0.92594277797E+02 0.  0.
         13    1    3    3    0    0 -0.45912054733E+02 -0.36920501653E+03 -0.12180803842E+03  0.39148110966E+03  0.00000000000E+00 0.  1.
        -13    1    3    3    0    0 -0.66828063203E+02 -0.16914272726E+03 -0.12913436004E+02  0.18232391244E+03  0.00000000000E+00 0. -1.
         22    1    1    2    0    0  0.11274011794E+03  0.53834774379E+03  0.14052299006E+04  0.15090393305E+04  0.00000000000E+00 0.  1.
<mgrwt>
<rscale>  0 0.16504693E+04</rscale>
<asrwt>0</asrwt>
<pdfrwt beam="1">  1        1 0.62487380E-01 0.16504693E+04</pdfrwt>
<pdfrwt beam="2">  1       -1 0.25795021E+00 0.16504693E+04</pdfrwt>
<totfact> 0.34769936E+00</totfact>
</mgrwt>
</event>
<event>
 6    1  0.1588846E-005  0.9865128E+03  0.7818608E-02  0.9323462E-01
          2   -1    0    0  501    0  0.00000000000E+00  0.00000000000E+00  0.13389035729E+04  0.13389035729E+04  0.00000000000E+00 0. -1.
         -2   -1    0    0    0  501 -0.00000000000E+00 -0.00000000000E+00 -0.18171725105E+03  0.18171725105E+03  0.00000000000E+00 0.  1.
         23    2    1    2    0    0 -0.10551612769E+03  0.29835728151E+03  0.30578548480E+01  0.32389059580E+03  0.68884301123E+02 0.  0.
         11    1    3    3    0    0 -0.15752264560E+02  0.14623612406E+03 -0.37326288409E+01  0.14712943396E+03  0.00000000000E+00 0. -1.
        -11    1    3    3    0    0 -0.89763863132E+02  0.15212115745E+03  0.67904836889E+01  0.17676116184E+03  0.00000000000E+00 0.  1.
         22    1    1    2    0    0  0.10551612769E+03 -0.29835728151E+03  0.11541284670E+04  0.11967302282E+04  0.00000000000E+00 0. -1.
<mgrwt>
<rscale>  0 0.98651280E+03</rscale>
<asrwt>0</asrwt>
<pdfrwt beam="1">  1        2 0.20598516E+00 0.98651280E+03</pdfrwt>
<pdfrwt beam="2">  1       -2 0.27956501E-01 0.98651280E+03</pdfrwt>
<totfact> 0.18302718E+02</totfact>
</mgrwt>
</event>
<event>
 6    1  0.1588846E-005  0.1473165E+04  0.7818608E-02  0.8902497E-01
         -1   -1    0    0    0  501 -0.00000000000E+00  0.00000000000E+00  0.46419613119E+03  0.46419613119E+03  0.00000000000E+00 0.  1.
          1   -1    0    0  501    0  0.00000000000E+00 -0.00000000000E+00 -0.11688029447E+04  0.11688029447E+04  0.00000000000E+00 0. -1.
         23    2    1    2    0    0  0.26667376965E+03 -0.24792611515E+02  0.40353569786E+03  0.49295109511E+03  0.91815846769E+02 0.  0.
         11    1    3    3    0    0  0.12962002542E+03 -0.50224119556E+02  0.15667419054E+03  0.20945313356E+03  0.00000000000E+00 0. -1.
        -11    1    3    3    0    0  0.13705374422E+03  0.25431508041E+02  0.24686150732E+03  0.28349796155E+03  0.00000000000E+00 0.  1.
         22    1    1    2    0    0 -0.26667376965E+03  0.24792611515E+02 -0.11081425113E+04  0.11400479808E+04  0.00000000000E+00 0. -1.
<mgrwt>
<rscale>  0 0.14731650E+04</rscale>
<asrwt>0</asrwt>
<pdfrwt beam="1">  1        1 0.17981584E+00 0.14731650E+04</pdfrwt>
<pdfrwt beam="2">  1       -1 0.71414789E-01 0.14731650E+04</pdfrwt>
<totfact> 0.21623189E+01</totfact>
</mgrwt>
</event>
<event>
 6    1  0.1588846E-005  0.2069610E+04  0.7818608E-02  0.8574750E-01
          2   -1    0    0  501    0  0.00000000000E+00  0.00000000000E+00  0.17571536775E+04  0.17571536775E+04  0.00000000000E+00 0. -1.
         -2   -1    0    0    0  501 -0.00000000000E+00 -0.00000000000E+00 -0.60940663862E+03  0.60940663862E+03  0.00000000000E+00 0.  1.
         23    2    1    2    0    0  0.20442480519E+03 -0.10117969253E+04  0.61128302048E+03  0.12032391386E+04  0.92709086382E+02 0.  0.
         13    1    3    3    0    0  0.14287269489E+03 -0.53747748119E+03  0.36540720154E+03  0.66544501851E+03  0.00000000000E+00 0. -1.
        -13    1    3    3    0    0  0.61552110301E+02 -0.47431944407E+03  0.24587581894E+03  0.53779412012E+03  0.00000000000E+00 0.  1.
         22    1    1    2    0    0 -0.20442480519E+03  0.10117969253E+04  0.53646401839E+03  0.11633211775E+04  0.00000000000E+00 0.  1.
<mgrwt>
<rscale>  0 0.20696097E+04</rscale>
<asrwt>0</asrwt>
<pdfrwt beam="1">  1        2 0.27033133E+00 0.20696097E+04</pdfrwt>
<pdfrwt beam="2">  1       -2 0.93754868E-01 0.20696097E+04</pdfrwt>
<totfact> 0.80935601E+00</totfact>
</mgrwt>
</event>
<event>
 6    1  0.1588846E-005  0.6675787E+03  0.7818608E-02  0.9774342E-01
          2   -1    0    0  501    0  0.00000000000E+00  0.00000000000E+00  0.75238218228E+03  0.75238218228E+03  0.00000000000E+00 0. -1.
         -2   -1    0    0    0  501 -0.00000000000E+00 -0.00000000000E+00 -0.14808340289E+03  0.14808340289E+03  0.00000000000E+00 0.  1.
         23    2    1    2    0    0 -0.15374769202E+03 -0.22974619242E+03  0.69877425443E+02  0.29877808382E+03  0.89240254660E+02 0.  0.
         11    1    3    3    0    0 -0.71578143056E+02 -0.63155131358E+02  0.60030253465E+02  0.11276361342E+03  0.00000000000E+00 0. -1.
        -11    1    3    3    0    0 -0.82169548963E+02 -0.16659106106E+03  0.98471719775E+01  0.18601447040E+03  0.00000000000E+00 0.  1.
         22    1    1    2    0    0  0.15374769202E+03  0.22974619242E+03  0.53442135395E+03  0.60168750136E+03  0.00000000000E+00 0. -1.
<mgrwt>
<rscale>  0 0.66757865E+03</rscale>
<asrwt>0</asrwt>
<pdfrwt beam="1">  1        2 0.11575110E+00 0.66757865E+03</pdfrwt>
<pdfrwt beam="2">  1       -2 0.22782062E-01 0.66757865E+03</pdfrwt>
<totfact> 0.63641611E+02</totfact>
</mgrwt>
</event>
<event>
 6    1  0.1588846E-005  0.3019696E+04  0.7818608E-02  0.8238129E-01
          2   -1    0    0  501    0  0.00000000000E+00  0.00000000000E+00  0.38173423955E+04  0.38173423955E+04  0.00000000000E+00 0. -1.
         -2   -1    0    0    0  501 -0.00000000000E+00 -0.00000000000E+00 -0.59717996694E+03  0.59717996694E+03  0.00000000000E+00 0.  1.
         23    2    1    2    0    0 -0.42281900067E+03 -0.13367951046E+04  0.24250936846E+04  0.28027123964E+04  0.91215890069E+02 0.  0.
         13    1    3    3    0    0 -0.29356781085E+02 -0.17296482578E+03  0.34031057145E+03  0.38287065256E+03  0.00000000000E+00 0. -1.
        -13    1    3    3    0    0 -0.39346221958E+03 -0.11638302789E+04  0.20847831131E+04  0.24198417438E+04  0.00000000000E+00 0.  1.
         22    1    1    2    0    0  0.42281900067E+03  0.13367951046E+04  0.79506874401E+03  0.16118099661E+04  0.00000000000E+00 0. -1.
<mgrwt>
<rscale>  0 0.30196956E+04</rscale>
<asrwt>0</asrwt>
<pdfrwt beam="1">  1        2 0.58728343E+00 0.30196956E+04</pdfrwt>
<pdfrwt beam="2">  1       -2 0.91873844E-01 0.30196956E+04</pdfrwt>
<totfact> 0.40988990E-01</totfact>
</mgrwt>
</event>
<event>
 6    1  0.1588846E-005  0.3499417E+04  0.7818608E-02  0.8113928E-01
          2   -1    0    0  501    0  0.00000000000E+00  0.00000000000E+00  0.21447564684E+04  0.21447564684E+04  0.00000000000E+00 0. -1.
         -2   -1    0    0    0  501 -0.00000000000E+00 -0.00000000000E+00 -0.14274250945E+04  0.14274250945E+04  0.00000000000E+00 0.  1.
         23    2    1    2    0    0 -0.79704457103E+03  0.80295186066E+03  0.17197599013E+04  0.20606013660E+04  0.92152768315E+02 0.  0.
         13    1    3    3    0    0 -0.31981777924E+03  0.30734541828E+03  0.75471719623E+03  0.87540999785E+03  0.00000000000E+00 0. -1.
        -13    1    3    3    0    0 -0.47722679179E+03  0.49560644238E+03  0.96504270511E+03  0.11851913682E+04  0.00000000000E+00 0.  1.
         22    1    1    2    0    0  0.79704457103E+03 -0.80295186066E+03 -0.10024285275E+04  0.15115801968E+04  0.00000000000E+00 0.  1.
<mgrwt>
<rscale>  0 0.34994166E+04</rscale>
<asrwt>0</asrwt>
<pdfrwt beam="1">  1        2 0.32996253E+00 0.34994166E+04</pdfrwt>
<pdfrwt beam="2">  1       -2 0.21960386E+00 0.34994166E+04</pdfrwt>
<totfact> 0.45309993E-01</totfact>
</mgrwt>
</event>
<event>
 6    1  0.1588846E-005  0.3621190E+04  0.7818608E-02  0.8085655E-01
         -1   -1    0    0    0  501 -0.00000000000E+00  0.00000000000E+00  0.27349735109E+04  0.27349735109E+04  0.00000000000E+00 0.  1.
          1   -1    0    0  501    0  0.00000000000E+00 -0.00000000000E+00 -0.11986420098E+04  0.11986420098E+04  0.00000000000E+00 0. -1.
         23    2    1    2    0    0 -0.14362934678E+04 -0.59225446695E+03  0.17769838956E+04  0.23614775324E+04  0.72111661132E+02 0.  0.
         13    1    3    3    0    0 -0.74825333429E+03 -0.32852110207E+03  0.98128390855E+03  0.12769993250E+04  0.00000000000E+00 0.  1.
        -13    1    3    3    0    0 -0.68804013350E+03 -0.26373336488E+03  0.79569998707E+03  0.10844782075E+04  0.00000000000E+00 0. -1.
         22    1    1    2    0    0  0.14362934678E+04  0.59225446695E+03 -0.24065239450E+03  0.15721379883E+04  0.00000000000E+00 0. -1.
<mgrwt>
<rscale>  0 0.36211899E+04</rscale>
<asrwt>0</asrwt>
<pdfrwt beam="1">  1        1 0.18440646E+00 0.36211899E+04</pdfrwt>
<pdfrwt beam="2">  1       -1 0.42076515E+00 0.36211899E+04</pdfrwt>
<totfact> 0.44514635E-02</totfact>
</mgrwt>
</event>
<event>
 6    1  0.1588846E-005  0.5150383E+04  0.7818608E-02  0.7805719E-01
         -2   -1    0    0    0  501 -0.00000000000E+00  0.00000000000E+00  0.15428744505E+04  0.15428744505E+04  0.00000000000E+00 0. -1.
          2   -1    0    0  501    0  0.00000000000E+00 -0.00000000000E+00 -0.42982175913E+04  0.42982175913E+04  0.00000000000E+00 0.  1.
         23    2    1    2    0    0 -0.10016948149E+04  0.22562107736E+04 -0.54973660946E+03  0.25307174816E+04  0.91875322503E+02 0.  0.
         11    1    3    3    0    0 -0.39106404588E+03  0.90745636703E+03 -0.26488262182E+03  0.10230205029E+04  0.00000000000E+00 0.  1.
        -11    1    3    3    0    0 -0.61063076906E+03  0.13487544066E+04 -0.28485398764E+03  0.15076969787E+04  0.00000000000E+00 0. -1.
         22    1    1    2    0    0  0.10016948149E+04 -0.22562107736E+04 -0.22056065314E+04  0.33103745601E+04  0.00000000000E+00 0.  1.
<mgrwt>
<rscale>  0 0.51503826E+04</rscale>
<asrwt>0</asrwt>
<pdfrwt beam="1">  1        2 0.66126424E+00 0.51503826E+04</pdfrwt>
<pdfrwt beam="2">  1       -2 0.23736530E+00 0.51503826E+04</pdfrwt>
<totfact> 0.10455072E-02</totfact>
</mgrwt>
</event>
<event>
 6    1  0.1588846E-005  0.1472171E+04  0.7818608E-02  0.8903173E-01
         -1   -1    0    0    0  501 -0.00000000000E+00  0.00000000000E+00  0.40188766705E+03  0.40188766705E+03  0.00000000000E+00 0.  1.
          1   -1    0    0  501    0  0.00000000000E+00 -0.00000000000E+00 -0.13481920495E+04  0.13481920495E+04  0.00000000000E+00 0. -1.
         23    2    1    2    0    0  0.55330541824E+03 -0.46807080261E+03 -0.34237979193E+03  0.80670170476E+03  0.91140311755E+02 0.  0.
         13    1    3    3    0    0  0.44891131139E+03 -0.42000853523E+03 -0.27483978432E+03  0.67339842753E+03  0.00000000000E+00 0.  1.
        -13    1    3    3    0    0  0.10439410685E+03 -0.48062267384E+02 -0.67540007611E+02  0.13330327723E+03  0.00000000000E+00 0. -1.
         22    1    1    2    0    0 -0.55330541824E+03  0.46807080261E+03 -0.60392459055E+03  0.94337801182E+03  0.00000000000E+00 0.  1.
<mgrwt>
<rscale>  0 0.14721709E+04</rscale>
<asrwt>0</asrwt>
<pdfrwt beam="1">  1        1 0.20741416E+00 0.14721709E+04</pdfrwt>
<pdfrwt beam="2">  1       -1 0.61828871E-01 0.14721709E+04</pdfrwt>
<totfact> 0.21498765E+01</totfact>
</mgrwt>
</event>
<event>
 6    1  0.1588846E-005  0.2235758E+04  0.7818608E-02  0.8503690E-01
         -2   -1    0    0    0  501 -0.00000000000E+00  0.00000000000E+00  0.13675592142E+04  0.13675592142E+04  0.00000000000E+00 0. -1.
          2   -1    0    0  501    0  0.00000000000E+00 -0.00000000000E+00 -0.91378409207E+03  0.91378409207E+03  0.00000000000E+00 0.  1.
         23    2    1    2    0    0  0.10343909005E+04 -0.33434125703E+03 -0.30287257377E+02  0.10913580129E+04  0.91631779660E+02 0.  0.
         11    1    3    3    0    0  0.38294555155E+03 -0.12027383925E+03 -0.55334260930E+02  0.40518510868E+03  0.00000000000E+00 0.  1.
        -11    1    3    3    0    0  0.65144534899E+03 -0.21406741779E+03  0.25047003554E+02  0.68617290420E+03  0.00000000000E+00 0. -1.
         22    1    1    2    0    0 -0.10343909005E+04  0.33434125703E+03  0.48406237954E+03  0.11899852934E+04  0.00000000000E+00 0. -1.
<mgrwt>
<rscale>  0 0.22357584E+04</rscale>
<asrwt>0</asrwt>
<pdfrwt beam="1">  1        2 0.14058217E+00 0.22357584E+04</pdfrwt>
<pdfrwt beam="2">  1       -2 0.21039373E+00 0.22357584E+04</pdfrwt>
<totfact> 0.29767682E+00</totfact>
</mgrwt>
</event>
<event>
 6    1  0.1588846E-005  0.2024580E+04  0.7818608E-02  0.8595214E-01
         -4   -1    0    0    0  501 -0.00000000000E+00  0.00000000000E+00  0.13165775721E+04  0.13165775721E+04  0.00000000000E+00 0.  1.
          4   -1    0    0  501    0  0.00000000000E+00 -0.00000000000E+00 -0.77832924597E+03  0.77832924597E+03  0.00000000000E+00 0. -1.
         23    2    1    2    0    0 -0.98385519006E+03  0.21904987747E+03  0.19946759012E+03  0.10315506826E+04  0.91409011683E+02 0.  0.
         13    1    3    3    0    0 -0.58917746138E+03  0.15857677017E+03  0.15696165464E+03  0.63001082059E+03  0.00000000000E+00 0. -1.
        -13    1    3    3    0    0 -0.39467772869E+03  0.60473107298E+02  0.42505935482E+02  0.40153986201E+03  0.00000000000E+00 0.  1.
         22    1    1    2    0    0  0.98385519006E+03 -0.21904987747E+03  0.33878073605E+03  0.10633561355E+04  0.00000000000E+00 0. -1.
<mgrwt>
<rscale>  0 0.20245798E+04</rscale>
<asrwt>0</asrwt>
<pdfrwt beam="1">  1        4 0.11974296E+00 0.20245798E+04</pdfrwt>
<pdfrwt beam="2">  1       -4 0.20255040E+00 0.20245798E+04</pdfrwt>
<totfact> 0.12493584E-01</totfact>
</mgrwt>
</event>
<event>
 6    1  0.1588846E-005  0.2434433E+04  0.7818608E-02  0.8426724E-01
         -1   -1    0    0    0  501 -0.00000000000E+00  0.00000000000E+00  0.11725931335E+04  0.11725931335E+04  0.00000000000E+00 0.  1.
          1   -1    0    0  501    0  0.00000000000E+00 -0.00000000000E+00 -0.12635382576E+04  0.12635382576E+04  0.00000000000E+00 0. -1.
         23    2    1    2    0    0  0.97274256745E+02 -0.57227783157E+03  0.10228993385E+04  0.11801004662E+04  0.96694653840E+02 0.  0.
         13    1    3    3    0    0  0.15364172229E+02 -0.32665837542E+03  0.62485788526E+03  0.70525820009E+03  0.00000000000E+00 0.  1.
        -13    1    3    3    0    0  0.81910084516E+02 -0.24561945615E+03  0.39804145324E+03  0.47484226610E+03  0.00000000000E+00 0. -1.
         22    1    1    2    0    0 -0.97274256745E+02  0.57227783157E+03 -0.11138444626E+04  0.12560309249E+04  0.00000000000E+00 0. -1.
<mgrwt>
<rscale>  0 0.24344332E+04</rscale>
<asrwt>0</asrwt>
<pdfrwt beam="1">  1        1 0.19439050E+00 0.24344332E+04</pdfrwt>
<pdfrwt beam="2">  1       -1 0.18039894E+00 0.24344332E+04</pdfrwt>
<totfact> 0.17748390E+00</totfact>
</mgrwt>
</event>
<event>
 6    1  0.1588846E-005  0.7424634E+03  0.7818608E-02  0.9647249E-01
          1   -1    0    0  501    0  0.00000000000E+00  0.00000000000E+00  0.13820003223E+03  0.13820003223E+03  0.00000000000E+00 0. -1.
         -1   -1    0    0    0  501 -0.00000000000E+00 -0.00000000000E+00 -0.99719943112E+03  0.99719943112E+03  0.00000000000E+00 0.  1.
         23    2    1    2    0    0  0.32457464471E+03  0.72464518512E+02 -0.20733557934E+03  0.40378102445E+03  0.97217626021E+02 0.  0.
         11    1    3    3    0    0  0.88690984642E+02  0.34126198994E+02 -0.11098296581E+03  0.14610922939E+03  0.00000000000E+00 0.  1.
        -11    1    3    3    0    0  0.23588366007E+03  0.38338319518E+02 -0.96352613537E+02  0.25767179506E+03  0.00000000000E+00 0. -1.
         22    1    1    2    0    0 -0.32457464471E+03 -0.72464518512E+02 -0.65166381955E+03  0.73161843890E+03  0.00000000000E+00 0.  1.
<mgrwt>
<rscale>  0 0.74246345E+03</rscale>
<asrwt>0</asrwt>
<pdfrwt beam="1">  1        1 0.21261543E-01 0.74246345E+03</pdfrwt>
<pdfrwt beam="2">  1       -1 0.15341530E+00 0.74246345E+03</pdfrwt>
<totfact> 0.80802053E+01</totfact>
</mgrwt>
</event>
<event>
 6    1  0.1588846E-005  0.6601475E+03  0.7818608E-02  0.9787922E-01
         -2   -1    0    0    0  501 -0.00000000000E+00  0.00000000000E+00  0.39940822692E+02  0.39940822692E+02  0.00000000000E+00 0. -1.
          2   -1    0    0  501    0  0.00000000000E+00 -0.00000000000E+00 -0.27277522075E+04  0.27277522075E+04  0.00000000000E+00 0.  1.
         23    2    1    2    0    0 -0.24481449070E+03  0.78881173438E+02 -0.21943522832E+04  0.22112235707E+04  0.90395588983E+02 0.  0.
         13    1    3    3    0    0 -0.13137451388E+03 -0.51140059752E+01 -0.10651631635E+04  0.10732464678E+04  0.00000000000E+00 0. -1.
        -13    1    3    3    0    0 -0.11343997682E+03  0.83995179413E+02 -0.11291891197E+04  0.11379771028E+04  0.00000000000E+00 0.  1.
         22    1    1    2    0    0  0.24481449070E+03 -0.78881173438E+02 -0.49345910164E+03  0.55646945951E+03  0.00000000000E+00 0. -1.
<mgrwt>
<rscale>  0 0.66014746E+03</rscale>
<asrwt>0</asrwt>
<pdfrwt beam="1">  1        2 0.41965411E+00 0.66014746E+03</pdfrwt>
<pdfrwt beam="2">  1       -2 0.61447431E-02 0.66014746E+03</pdfrwt>
<totfact> 0.40318324E+02</totfact>
</mgrwt>
</event>
<event>
 6    1  0.1588846E-005  0.3369023E+04  0.7818608E-02  0.8145551E-01
         -1   -1    0    0    0  501 -0.00000000000E+00  0.00000000000E+00  0.95554172050E+03  0.95554172050E+03  0.00000000000E+00 0.  1.
          1   -1    0    0  501    0  0.00000000000E+00 -0.00000000000E+00 -0.29696015830E+04  0.29696015830E+04  0.00000000000E+00 0. -1.
         23    2    1    2    0    0 -0.11724179050E+04 -0.10393372615E+04 -0.17246890506E+04  0.23318695812E+04  0.90982059938E+02 0.  0.
         13    1    3    3    0    0 -0.53276150721E+03 -0.42814580723E+03 -0.79751716368E+03  0.10503224658E+04  0.00000000000E+00 0.  1.
        -13    1    3    3    0    0 -0.63965639782E+03 -0.61119145431E+03 -0.92717188694E+03  0.12815471154E+04  0.00000000000E+00 0. -1.
         22    1    1    2    0    0  0.11724179050E+04  0.10393372615E+04 -0.28937081185E+03  0.15932737222E+04  0.00000000000E+00 0.  1.
<mgrwt>
<rscale>  0 0.33690225E+04</rscale>
<asrwt>0</asrwt>
<pdfrwt beam="1">  1        1 0.45686179E+00 0.33690225E+04</pdfrwt>
<pdfrwt beam="2">  1       -1 0.14700642E+00 0.33690225E+04</pdfrwt>
<totfact> 0.19095820E-01</totfact>
</mgrwt>
</event>
<event>
 6    1  0.1588846E-005  0.7821014E+03  0.7818608E-02  0.9586292E-01
         -2   -1    0    0    0  501 -0.00000000000E+00  0.00000000000E+00  0.74267312911E+02  0.74267312911E+02  0.00000000000E+00 0.  1.
          2   -1    0    0  501    0  0.00000000000E+00 -0.00000000000E+00 -0.20590574377E+04  0.20590574377E+04  0.00000000000E+00 0. -1.
         23    2    1    2    0    0 -0.15779699625E+03  0.32082538376E+03 -0.60986361713E+03  0.71267288602E+03  0.90223013046E+02 0.  0.
         13    1    3    3    0    0  0.74112982348E+01  0.49699625831E+02 -0.66496855820E+02  0.83347537356E+02  0.00000000000E+00 0.  1.
        -13    1    3    3    0    0 -0.16520829448E+03  0.27112575793E+03 -0.54336676131E+03  0.62932534866E+03  0.00000000000E+00 0. -1.
         22    1    1    2    0    0  0.15779699625E+03 -0.32082538376E+03 -0.13749265076E+04  0.14206518646E+04  0.00000000000E+00 0. -1.
<mgrwt>
<rscale>  0 0.78210143E+03</rscale>
<asrwt>0</asrwt>
<pdfrwt beam="1">  1        2 0.31677805E+00 0.78210143E+03</pdfrwt>
<pdfrwt beam="2">  1       -2 0.11425741E-01 0.78210143E+03</pdfrwt>
<totfact> 0.34950628E+02</totfact>
</mgrwt>
</event>
<event>
 6    1  0.1588846E-005  0.8593028E+03  0.7818608E-02  0.9477935E-01
         -1   -1    0    0    0  501 -0.00000000000E+00  0.00000000000E+00  0.19297343680E+03  0.19297343680E+03  0.00000000000E+00 0.  1.
          1   -1    0    0  501    0  0.00000000000E+00 -0.00000000000E+00 -0.95661012235E+03  0.95661012235E+03  0.00000000000E+00 0. -1.
         23    2    1    2    0    0  0.12207604679E+03  0.61516304576E+02 -0.92414456606E+03  0.93875282934E+03  0.92341099580E+02 0.  0.
         11    1    3    3    0    0  0.52391161359E+02  0.11399917549E+01 -0.58356970604E+03  0.58591785702E+03  0.00000000000E+00 0.  1.
        -11    1    3    3    0    0  0.69684885427E+02  0.60376312821E+02 -0.34057486003E+03  0.35283497231E+03  0.00000000000E+00 0. -1.
         22    1    1    2    0    0 -0.12207604679E+03 -0.61516304576E+02  0.16050788051E+03  0.21083072981E+03  0.00000000000E+00 0.  1.
<mgrwt>
<rscale>  0 0.85930284E+03</rscale>
<asrwt>0</asrwt>
<pdfrwt beam="1">  1        1 0.14717078E+00 0.85930284E+03</pdfrwt>
<pdfrwt beam="2">  1       -1 0.29688222E-01 0.85930284E+03</pdfrwt>
<totfact> 0.17150151E+02</totfact>
</mgrwt>
</event>
<event>
 6    1  0.1588846E-005  0.2907031E+04  0.7818608E-02  0.8270789E-01
         -2   -1    0    0    0  501 -0.00000000000E+00  0.00000000000E+00  0.11297218304E+04  0.11297218304E+04  0.00000000000E+00 0.  1.
          2   -1    0    0  501    0  0.00000000000E+00 -0.00000000000E+00 -0.18701126033E+04  0.18701126033E+04  0.00000000000E+00 0. -1.
         23    2    1    2    0    0  0.45237264261E+02 -0.13247001357E+04  0.24161382280E+03  0.13502254238E+04  0.88626160067E+02 0.  0.
         11    1    3    3    0    0 -0.24166628743E+02 -0.22014244217E+03  0.49701450481E+02  0.22697346755E+03  0.00000000000E+00 0. -1.
        -11    1    3    3    0    0  0.69403893003E+02 -0.11045576935E+04  0.19191237232E+03  0.11232519563E+04  0.00000000000E+00 0.  1.
         22    1    1    2    0    0 -0.45237264261E+02  0.13247001357E+04 -0.98200459571E+03  0.16496090099E+04  0.00000000000E+00 0. -1.
<mgrwt>
<rscale>  0 0.29070308E+04</rscale>
<asrwt>0</asrwt>
<pdfrwt beam="1">  1        2 0.28770963E+00 0.29070308E+04</pdfrwt>
<pdfrwt beam="2">  1       -2 0.17380336E+00 0.29070308E+04</pdfrwt>
<totfact> 0.13633805E+00</totfact>
</mgrwt>
</event>
<event>
 6    1  0.1588846E-005  0.8539772E+03  0.7818608E-02  0.9485014E-01
          1   -1    0    0  501    0  0.00000000000E+00  0.00000000000E+00  0.13726811787E+04  0.13726811787E+04  0.00000000000E+00 0. -1.
         -1   -1    0    0    0  501 -0.00000000000E+00 -0.00000000000E+00 -0.13281983310E+03  0.13281983310E+03  0.00000000000E+00 0.  1.
         23    2    1    2    0    0  0.20653067094E+03  0.10343136399E+03  0.12498328581E+04  0.12743032692E+04  0.91726134080E+02 0.  0.
         13    1    3    3    0    0  0.93008774880E+02  0.45503914110E+02  0.33503731182E+03  0.35067255198E+03  0.00000000000E+00 0.  1.
        -13    1    3    3    0    0  0.11352189606E+03  0.57927449883E+02  0.91479554626E+03  0.92363071722E+03  0.00000000000E+00 0. -1.
         22    1    1    2    0    0 -0.20653067094E+03 -0.10343136399E+03 -0.99715125203E+01  0.23119774255E+03  0.00000000000E+00 0.  1.
<mgrwt>
<rscale>  0 0.85397725E+03</rscale>
<asrwt>0</asrwt>
<pdfrwt beam="1">  1        1 0.21118171E+00 0.85397725E+03</pdfrwt>
<pdfrwt beam="2">  1       -1 0.20433821E-01 0.85397725E+03</pdfrwt>
<totfact> 0.16006546E+02</totfact>
</mgrwt>
</event>
<event>
 6    1  0.1588846E-005  0.9118447E+03  0.7818608E-02  0.9410895E-01
          1   -1    0    0  501    0  0.00000000000E+00  0.00000000000E+00  0.25613471643E+03  0.25613471643E+03  0.00000000000E+00 0. -1.
         -1   -1    0    0    0  501 -0.00000000000E+00 -0.00000000000E+00 -0.81154624399E+03  0.81154624399E+03  0.00000000000E+00 0.  1.
         23    2    1    2    0    0  0.12811920846E+03  0.57026425231E+02 -0.78268773573E+03  0.80062100545E+03  0.93420329431E+02 0.  0.
         13    1    3    3    0    0  0.43482505397E+02 -0.25185815794E+02 -0.21380837604E+03  0.21963395743E+03  0.00000000000E+00 0.  1.
        -13    1    3    3    0    0  0.84636703064E+02  0.82212241025E+02 -0.56887935969E+03  0.58098704801E+03  0.00000000000E+00 0. -1.
         22    1    1    2    0    0 -0.12811920846E+03 -0.57026425231E+02  0.22727620817E+03  0.26705995498E+03  0.00000000000E+00 0. -1.
<mgrwt>
<rscale>  0 0.91184465E+03</rscale>
<asrwt>0</asrwt>
<pdfrwt beam="1">  1        1 0.39405342E-01 0.91184465E+03</pdfrwt>
<pdfrwt beam="2">  1       -1 0.12485327E+00 0.91184465E+03</pdfrwt>
<totfact> 0.60951344E+01</totfact>
</mgrwt>
</event>
<event>
 6    1  0.1588846E-005  0.2496523E+04  0.7818608E-02  0.8404225E-01
         -1   -1    0    0    0  501 -0.00000000000E+00  0.00000000000E+00  0.78240997935E+03  0.78240997935E+03  0.00000000000E+00 0.  1.
          1   -1    0    0  501    0  0.00000000000E+00 -0.00000000000E+00 -0.19914843552E+04  0.19914843552E+04  0.00000000000E+00 0. -1.
         23    2    1    2    0    0  0.52991912825E+03 -0.33957253960E+03  0.59026278878E+03  0.86765772170E+03  0.91082216032E+02 0.  0.
         13    1    3    3    0    0  0.71606403251E+02 -0.51308874596E+02  0.43748630353E+02  0.98356597422E+02  0.00000000000E+00 0. -1.
        -13    1    3    3    0    0  0.45831272500E+03 -0.28826366500E+03  0.54651415843E+03  0.76930112428E+03  0.00000000000E+00 0.  1.
         22    1    1    2    0    0 -0.52991912825E+03  0.33957253960E+03 -0.17993371646E+04  0.19062366128E+04  0.00000000000E+00 0. -1.
<mgrwt>
<rscale>  0 0.24965234E+04</rscale>
<asrwt>0</asrwt>
<pdfrwt beam="1">  1        1 0.30638221E+00 0.24965234E+04</pdfrwt>
<pdfrwt beam="2">  1       -1 0.12037077E+00 0.24965234E+04</pdfrwt>
<totfact> 0.16486291E+00</totfact>
</mgrwt>
</event>
<event>
 6    1  0.1588846E-005  0.1781964E+04  0.7818608E-02  0.8715950E-01
         -2   -1    0    0    0  501 -0.00000000000E+00  0.00000000000E+00  0.40458891686E+03  0.40458891686E+03  0.00000000000E+00 0.  1.
          2   -1    0    0  501    0  0.00000000000E+00 -0.00000000000E+00 -0.19621115930E+04  0.19621115930E+04  0.00000000000E+00 0. -1.
         23    2    1    2    0    0  0.24368708600E+03  0.28201496833E+03  0.29050446826E+03  0.48146308059E+03  0.92184671440E+02 0.  0.
         11    1    3    3    0    0  0.65212785814E+02  0.77013092376E+02  0.13423370211E+03  0.16793573358E+03  0.00000000000E+00 0.  1.
        -11    1    3    3    0    0  0.17847430019E+03  0.20500187595E+03  0.15627076616E+03  0.31352734702E+03  0.00000000000E+00 0. -1.
         22    1    1    2    0    0 -0.24368708600E+03 -0.28201496833E+03 -0.18480271444E+04  0.18852374293E+04  0.00000000000E+00 0. -1.
<mgrwt>
<rscale>  0 0.17819636E+04</rscale>
<asrwt>0</asrwt>
<pdfrwt beam="1">  1        2 0.30186332E+00 0.17819636E+04</pdfrwt>
<pdfrwt beam="2">  1       -2 0.62244450E-01 0.17819636E+04</pdfrwt>
<totfact> 0.15883423E+01</totfact>
</mgrwt>
</event>
<event>
 6    1  0.1588846E-005  0.4792451E+04  0.7818608E-02  0.7861346E-01
          1   -1    0    0  501    0  0.00000000000E+00  0.00000000000E+00  0.19220936720E+04  0.19220936720E+04  0.00000000000E+00 0. -1.
         -1   -1    0    0    0  501 -0.00000000000E+00 -0.00000000000E+00 -0.29873130819E+04  0.29873130819E+04  0.00000000000E+00 0.  1.
         23    2    1    2    0    0  0.57395257318E+03 -0.21584290603E+04  0.35409410159E+03  0.22631474302E+04  0.90642668751E+02 0.  0.
         13    1    3    3    0    0  0.25218019855E+03 -0.81448147317E+03  0.16295818107E+03  0.86806122564E+03  0.00000000000E+00 0. -1.
        -13    1    3    3    0    0  0.32177237464E+03 -0.13439475871E+04  0.19113592052E+03  0.13950862045E+04  0.00000000000E+00 0.  1.
         22    1    1    2    0    0 -0.57395257318E+03  0.21584290603E+04 -0.14193135115E+04  0.26462593237E+04  0.00000000000E+00 0. -1.
<mgrwt>
<rscale>  0 0.47924506E+04</rscale>
<asrwt>0</asrwt>
<pdfrwt beam="1">  1        1 0.29570672E+00 0.47924506E+04</pdfrwt>
<pdfrwt beam="2">  1       -1 0.45958663E+00 0.47924506E+04</pdfrwt>
<totfact> 0.68822074E-03</totfact>
</mgrwt>
</event>
<event>
 6    1  0.1588846E-005  0.6373344E+03  0.7818608E-02  0.9830840E-01
          2   -1    0    0  501    0  0.00000000000E+00  0.00000000000E+00  0.39903413111E+03  0.39903413111E+03  0.00000000000E+00 0.  1.
         -2   -1    0    0    0  501 -0.00000000000E+00 -0.00000000000E+00 -0.25448648457E+03  0.25448648457E+03  0.00000000000E+00 0. -1.
         23    2    1    2    0    0  0.11481514271E+03  0.51851831558E+02  0.36802609360E+03  0.39697871709E+03  0.79232359679E+02 0.  0.
         11    1    3    3    0    0  0.11112293582E+03  0.36005814604E+02  0.36068557643E+03  0.37912901577E+03  0.00000000000E+00 0. -1.
        -11    1    3    3    0    0  0.36922068942E+01  0.15846016954E+02  0.73405171679E+01  0.17849701324E+02  0.00000000000E+00 0.  1.
         22    1    1    2    0    0 -0.11481514271E+03 -0.51851831558E+02 -0.22347844706E+03  0.25654189859E+03  0.00000000000E+00 0. -1.
<mgrwt>
<rscale>  0 0.63733443E+03</rscale>
<asrwt>0</asrwt>
<pdfrwt beam="1">  1        2 0.61389866E-01 0.63733443E+03</pdfrwt>
<pdfrwt beam="2">  1       -2 0.39151767E-01 0.63733443E+03</pdfrwt>
<totfact> 0.49566934E+02</totfact>
</mgrwt>
</event>
<event>
 6    1  0.1588846E-005  0.2926571E+04  0.7818608E-02  0.8265015E-01
         -1   -1    0    0    0  501 -0.00000000000E+00  0.00000000000E+00  0.16066305661E+04  0.16066305661E+04  0.00000000000E+00 0.  1.
          1   -1    0    0  501    0  0.00000000000E+00 -0.00000000000E+00 -0.13327299295E+04  0.13327299295E+04  0.00000000000E+00 0. -1.
         23    2    1    2    0    0 -0.60473806118E+02  0.13519636695E+04 -0.41818656178E+03  0.14193448592E+04  0.90537197427E+02 0.  0.
         11    1    3    3    0    0 -0.97778952692E+01  0.64054367195E+03 -0.15492905657E+03  0.65908634903E+03  0.00000000000E+00 0.  1.
        -11    1    3    3    0    0 -0.50695910849E+02  0.71141999752E+03 -0.26325750521E+03  0.76025851018E+03  0.00000000000E+00 0. -1.
         22    1    1    2    0    0  0.60473806118E+02 -0.13519636695E+04  0.69208719843E+03  0.15200156364E+04  0.00000000000E+00 0.  1.
<mgrwt>
<rscale>  0 0.29265711E+04</rscale>
<asrwt>0</asrwt>
<pdfrwt beam="1">  1        1 0.20503538E+00 0.29265711E+04</pdfrwt>
<pdfrwt beam="2">  1       -1 0.24717393E+00 0.29265711E+04</pdfrwt>
<totfact> 0.53408009E-01</totfact>
</mgrwt>
</event>
<event>
 6    1  0.1588846E-005  0.6750760E+03  0.7818608E-02  0.9760831E-01
         -2   -1    0    0    0  501 -0.00000000000E+00  0.00000000000E+00  0.13706955701E+03  0.13706955701E+03  0.00000000000E+00 0.  1.
          2   -1    0    0  501    0  0.00000000000E+00 -0.00000000000E+00 -0.83119770549E+03  0.83119770549E+03  0.00000000000E+00 0. -1.
         23    2    1    2    0    0 -0.15841844481E+03  0.12006743297E+03 -0.73376458194E+03  0.76557626869E+03  0.90465293589E+02 0.  0.
         13    1    3    3    0    0 -0.83998975262E+02  0.10408343167E+03 -0.35774984978E+03  0.38193473737E+03  0.00000000000E+00 0.  1.
        -13    1    3    3    0    0 -0.74419469551E+02  0.15984001302E+02 -0.37601473216E+03  0.38364153132E+03  0.00000000000E+00 0. -1.
         22    1    1    2    0    0  0.15841844481E+03 -0.12006743297E+03  0.39636433464E+02  0.20269099382E+03  0.00000000000E+00 0.  1.
<mgrwt>
<rscale>  0 0.67507600E+03</rscale>
<asrwt>0</asrwt>
<pdfrwt beam="1">  1        2 0.12787657E+00 0.67507600E+03</pdfrwt>
<pdfrwt beam="2">  1       -2 0.21087624E-01 0.67507600E+03</pdfrwt>
<totfact> 0.63989353E+02</totfact>
</mgrwt>
</event>
<event>
 6    1  0.1588846E-005  0.3005750E+04  0.7818608E-02  0.8242091E-01
         -1   -1    0    0    0  501 -0.00000000000E+00  0.00000000000E+00  0.13346295959E+04  0.13346295959E+04  0.00000000000E+00 0.  1.
          1   -1    0    0  501    0  0.00000000000E+00 -0.00000000000E+00 -0.16923294286E+04  0.16923294286E+04  0.00000000000E+00 0. -1.
         23    2    1    2    0    0  0.39555447968E+03  0.13997859411E+04 -0.55371993704E+03  0.15592097582E+04  0.93087452922E+02 0.  0.
         11    1    3    3    0    0  0.10348943188E+03  0.51334032292E+03 -0.22032007647E+03  0.56812787798E+03  0.00000000000E+00 0.  1.
        -11    1    3    3    0    0  0.29206504780E+03  0.88644561823E+03 -0.33339986057E+03  0.99108188020E+03  0.00000000000E+00 0. -1.
         22    1    1    2    0    0 -0.39555447968E+03 -0.13997859411E+04  0.19602010436E+03  0.14677492663E+04  0.00000000000E+00 0.  1.
<mgrwt>
<rscale>  0 0.30057498E+04</rscale>
<asrwt>0</asrwt>
<pdfrwt beam="1">  1        1 0.26035837E+00 0.30057498E+04</pdfrwt>
<pdfrwt beam="2">  1       -1 0.20532763E+00 0.30057498E+04</pdfrwt>
<totfact> 0.56767842E-01</totfact>
</mgrwt>
</event>
<event>
 6    1  0.1588846E-005  0.2698443E+04  0.7818608E-02  0.8335510E-01
          1   -1    0    0  501    0  0.00000000000E+00  0.00000000000E+00  0.12715109673E+04  0.12715109673E+04  0.00000000000E+00 0. -1.
         -1   -1    0    0    0  501 -0.00000000000E+00 -0.00000000000E+00 -0.14316819158E+04  0.14316819158E+04  0.00000000000E+00 0.  1.
         23    2    1    2    0    0  0.41219994337E+03  0.79082229479E+03 -0.10924136672E+04  0.14130823523E+04  0.90141105242E+02 0.  0.
         13    1    3    3    0    0  0.86323438281E+02  0.19078501350E+03 -0.20158146066E+03  0.29066431266E+03  0.00000000000E+00 0. -1.
        -13    1    3    3    0    0  0.32587650509E+03  0.60003728129E+03 -0.89083220651E+03  0.11224180396E+04  0.00000000000E+00 0.  1.
         22    1    1    2    0    0 -0.41219994337E+03 -0.79082229479E+03  0.93224271861E+03  0.12901105308E+04  0.00000000000E+00 0. -1.
<mgrwt>
<rscale>  0 0.26984434E+04</rscale>
<asrwt>0</asrwt>
<pdfrwt beam="1">  1        1 0.19561707E+00 0.26984434E+04</pdfrwt>
<pdfrwt beam="2">  1       -1 0.22025876E+00 0.26984434E+04</pdfrwt>
<totfact> 0.90761104E-01</totfact>
</mgrwt>
</event>
<event>
 6    1  0.1588846E-005  0.2628956E+04  0.7818608E-02  0.8358432E-01
          2   -1    0    0  501    0  0.00000000000E+00  0.00000000000E+00  0.50480270543E+03  0.50480270543E+03  0.00000000000E+00 0. -1.
         -2   -1    0    0    0  501 -0.00000000000E+00 -0.00000000000E+00 -0.34228273941E+04  0.34228273941E+04  0.00000000000E+00 0.  1.
         23    2    1    2    0    0  0.58816340257E+03 -0.40738785623E+03 -0.31053972878E+04  0.31880291637E+04  0.90202992426E+02 0.  0.
         13    1    3    3    0    0  0.20103951543E+03 -0.19213059041E+03 -0.12244378072E+04  0.12556189686E+04  0.00000000000E+00 0. -1.
        -13    1    3    3    0    0  0.38712388714E+03 -0.21525726582E+03 -0.18809594805E+04  0.19324101951E+04  0.00000000000E+00 0.  1.
         22    1    1    2    0    0 -0.58816340257E+03  0.40738785623E+03  0.18737259907E+03  0.73960093591E+03  0.00000000000E+00 0. -1.
<mgrwt>
<rscale>  0 0.26289561E+04</rscale>
<asrwt>0</asrwt>
<pdfrwt beam="1">  1        2 0.77661955E-01 0.26289561E+04</pdfrwt>
<pdfrwt beam="2">  1       -2 0.52658882E+00 0.26289561E+04</pdfrwt>
<totfact> 0.61070256E-02</totfact>
</mgrwt>
</event>
<event>
 6    1  0.1588846E-005  0.1876831E+04  0.7818608E-02  0.8666476E-01
          2   -1    0    0  501    0  0.00000000000E+00  0.00000000000E+00  0.17346300023E+04  0.17346300023E+04  0.00000000000E+00 0.  1.
         -2   -1    0    0    0  501 -0.00000000000E+00 -0.00000000000E+00 -0.50767242003E+03  0.50767242003E+03  0.00000000000E+00 0. -1.
         23    2    1    2    0    0 -0.31057806542E+03 -0.21718933129E+03  0.16377168998E+04  0.16834167834E+04  0.90252326622E+02 0.  0.
         11    1    3    3    0    0 -0.14994833454E+03 -0.15798283145E+03  0.96211070610E+03  0.98645835637E+03  0.00000000000E+00 0.  1.
        -11    1    3    3    0    0 -0.16062973088E+03 -0.59206499842E+02  0.67560619373E+03  0.69695842707E+03  0.00000000000E+00 0. -1.
         22    1    1    2    0    0  0.31057806542E+03  0.21718933129E+03 -0.41075931758E+03  0.55888563886E+03  0.00000000000E+00 0. -1.
<mgrwt>
<rscale>  0 0.18768312E+04</rscale>
<asrwt>0</asrwt>
<pdfrwt beam="1">  1        2 0.26686615E+00 0.18768312E+04</pdfrwt>
<pdfrwt beam="2">  1       -2 0.78103450E-01 0.18768312E+04</pdfrwt>
<totfact> 0.12840078E+01</totfact>
</mgrwt>
</event>
<event>
 6    1  0.1588846E-005  0.3882990E+04  0.7818608E-02  0.8028576E-01
         -2   -1    0    0    0  501 -0.00000000000E+00  0.00000000000E+00  0.89544037101E+03  0.89544037101E+03  0.00000000000E+00 0.  1.
          2   -1    0    0  501    0  0.00000000000E+00 -0.00000000000E+00 -0.42095523922E+04  0.42095523922E+04  0.00000000000E+00 0. -1.
         23    2    1    2    0    0  0.14010161716E+04 -0.11742148678E+03 -0.34162779747E+04  0.36953573492E+04  0.89870009847E+02 0.  0.
         11    1    3    3    0    0  0.27969377282E+03 -0.59581410573E+02 -0.70034481478E+03  0.75647961680E+03  0.00000000000E+00 0.  1.
        -11    1    3    3    0    0  0.11213223987E+04 -0.57840076209E+02 -0.27159331600E+04  0.29388777324E+04  0.00000000000E+00 0. -1.
         22    1    1    2    0    0 -0.14010161716E+04  0.11742148678E+03  0.10216595356E+03  0.14096354141E+04  0.00000000000E+00 0.  1.
<mgrwt>
<rscale>  0 0.38829902E+04</rscale>
<asrwt>0</asrwt>
<pdfrwt beam="1">  1        2 0.64762346E+00 0.38829902E+04</pdfrwt>
<pdfrwt beam="2">  1       -2 0.13776005E+00 0.38829902E+04</pdfrwt>
<totfact> 0.67724888E-02</totfact>
</mgrwt>
</event>
<event>
 6    1  0.1588846E-005  0.1693264E+04  0.7818608E-02  0.8765215E-01
          1   -1    0    0  501    0  0.00000000000E+00  0.00000000000E+00  0.69042517945E+03  0.69042517945E+03  0.00000000000E+00 0. -1.
         -1   -1    0    0    0  501 -0.00000000000E+00 -0.00000000000E+00 -0.10381807057E+04  0.10381807057E+04  0.00000000000E+00 0.  1.
         23    2    1    2    0    0 -0.76760103386E+03 -0.26221340028E+03  0.64097009201E+02  0.81888629898E+03  0.92190724088E+02 0.  0.
         11    1    3    3    0    0 -0.26465485797E+03 -0.12211713960E+03  0.55586895092E+02  0.29672325918E+03  0.00000000000E+00 0.  1.
        -11    1    3    3    0    0 -0.50294617588E+03 -0.14009626068E+03  0.85101141098E+01  0.52216303980E+03  0.00000000000E+00 0. -1.
         22    1    1    2    0    0  0.76760103386E+03  0.26221340028E+03 -0.41185253541E+03  0.90971958613E+03  0.00000000000E+00 0.  1.
<mgrwt>
<rscale>  0 0.16932644E+04</rscale>
<asrwt>0</asrwt>
<pdfrwt beam="1">  1        1 0.10621926E+00 0.16932644E+04</pdfrwt>
<pdfrwt beam="2">  1       -1 0.15972011E+00 0.16932644E+04</pdfrwt>
<totfact> 0.77791923E+00</totfact>
</mgrwt>
</event>
<event>
 6    1  0.1588846E-005  0.1346569E+04  0.7818608E-02  0.8993429E-01
         -3   -1    0    0    0  501 -0.00000000000E+00  0.00000000000E+00  0.30769898430E+03  0.30769898430E+03  0.00000000000E+00 0. -1.
          3   -1    0    0  501    0  0.00000000000E+00 -0.00000000000E+00 -0.14732326894E+04  0.14732326894E+04  0.00000000000E+00 0.  1.
         23    2    1    2    0    0  0.55466594350E+03 -0.35355482584E+03 -0.75500261450E+03  0.10055665338E+04  0.92085733524E+02 0.  0.
         11    1    3    3    0    0  0.36187111763E+03 -0.26101184416E+03 -0.45619489810E+03  0.63811572118E+03  0.00000000000E+00 0. -1.
        -11    1    3    3    0    0  0.19279482588E+03 -0.92542981675E+02 -0.29880771641E+03  0.36745081266E+03  0.00000000000E+00 0.  1.
         22    1    1    2    0    0 -0.55466594350E+03  0.35355482584E+03 -0.41053109061E+03  0.77536513986E+03  0.00000000000E+00 0.  1.
<mgrwt>
<rscale>  0 0.13465693E+04</rscale>
<asrwt>0</asrwt>
<pdfrwt beam="1">  1        3 0.22665118E+00 0.13465693E+04</pdfrwt>
<pdfrwt beam="2">  1       -3 0.47338305E-01 0.13465693E+04</pdfrwt>
<totfact> 0.11514058E+00</totfact>
</mgrwt>
</event>
<event>
 6    1  0.1588846E-005  0.2267676E+04  0.7818608E-02  0.8490776E-01
         -2   -1    0    0    0  501 -0.00000000000E+00  0.00000000000E+00  0.10311604970E+04  0.10311604970E+04  0.00000000000E+00 0.  1.
          2   -1    0    0  501    0  0.00000000000E+00 -0.00000000000E+00 -0.12467398481E+04  0.12467398481E+04  0.00000000000E+00 0. -1.
         23    2    1    2    0    0  0.50643841092E+03 -0.78035539564E+03 -0.75615574901E+03  0.12019555280E+04  0.86551527963E+02 0.  0.
         13    1    3    3    0    0  0.45860620092E+02 -0.33769229003E+02 -0.50955177616E+02  0.76419810446E+02  0.00000000000E+00 0. -1.
        -13    1    3    3    0    0  0.46057779083E+03 -0.74658616664E+03 -0.70520057140E+03  0.11255357176E+04  0.00000000000E+00 0.  1.
         22    1    1    2    0    0 -0.50643841092E+03  0.78035539564E+03  0.54057639788E+03  0.10759448171E+04  0.00000000000E+00 0.  1.
<mgrwt>
<rscale>  0 0.22676762E+04</rscale>
<asrwt>0</asrwt>
<pdfrwt beam="1">  1        2 0.19180613E+00 0.22676762E+04</pdfrwt>
<pdfrwt beam="2">  1       -2 0.15864008E+00 0.22676762E+04</pdfrwt>
<totfact> 0.41639499E+00</totfact>
</mgrwt>
</event>
<event>
 6    1  0.1588846E-005  0.1926432E+04  0.7818608E-02  0.8641810E-01
         -1   -1    0    0    0  501 -0.00000000000E+00  0.00000000000E+00  0.13979566052E+04  0.13979566052E+04  0.00000000000E+00 0.  1.
          1   -1    0    0  501    0  0.00000000000E+00 -0.00000000000E+00 -0.66367261480E+03  0.66367261480E+03  0.00000000000E+00 0. -1.
         23    2    1    2    0    0  0.89858346018E+03 -0.54260423038E+02  0.73156832823E+01  0.90452967893E+03  0.87886247119E+02 0.  0.
         13    1    3    3    0    0  0.63037543468E+03 -0.30525440013E+02  0.44678439147E+02  0.63269357042E+03  0.00000000000E+00 0.  1.
        -13    1    3    3    0    0  0.26820802550E+03 -0.23734983025E+02 -0.37362755865E+02  0.27183610851E+03  0.00000000000E+00 0. -1.
         22    1    1    2    0    0 -0.89858346018E+03  0.54260423038E+02  0.72696830716E+03  0.11570995411E+04  0.00000000000E+00 0.  1.
<mgrwt>
<rscale>  0 0.19264325E+04</rscale>
<asrwt>0</asrwt>
<pdfrwt beam="1">  1        1 0.10210348E+00 0.19264325E+04</pdfrwt>
<pdfrwt beam="2">  1       -1 0.21507025E+00 0.19264325E+04</pdfrwt>
<totfact> 0.32735079E+00</totfact>
</mgrwt>
</event>
<event>
 6    1  0.1588846E-005  0.2032971E+04  0.7818608E-02  0.8591359E-01
          2   -1    0    0  501    0  0.00000000000E+00  0.00000000000E+00  0.15386295892E+04  0.15386295892E+04  0.00000000000E+00 0. -1.
         -2   -1    0    0    0  501 -0.00000000000E+00 -0.00000000000E+00 -0.67153467716E+03  0.67153467716E+03  0.00000000000E+00 0.  1.
         23    2    1    2    0    0 -0.29371551008E+02 -0.87064475860E+03 -0.13017038598E+03  0.88599544845E+03  0.95700687537E+02 0.  0.
         11    1    3    3    0    0  0.22433519060E+02 -0.61886249065E+03 -0.96521184668E+02  0.62674586892E+03  0.00000000000E+00 0.  1.
        -11    1    3    3    0    0 -0.51805070068E+02 -0.25178226795E+03 -0.33649201314E+02  0.25924957953E+03  0.00000000000E+00 0. -1.
         22    1    1    2    0    0  0.29371551008E+02  0.87064475860E+03  0.99726529805E+03  0.13241688179E+04  0.00000000000E+00 0. -1.
<mgrwt>
<rscale>  0 0.20329713E+04</rscale>
<asrwt>0</asrwt>
<pdfrwt beam="1">  1        2 0.23671224E+00 0.20329713E+04</pdfrwt>
<pdfrwt beam="2">  1       -2 0.10331303E+00 0.20329713E+04</pdfrwt>
<totfact> 0.85495874E+00</totfact>
</mgrwt>
</event>
<event>
 6    1  0.1588846E-005  0.2406801E+04  0.7818608E-02  0.8436962E-01
         -1   -1    0    0    0  501 -0.00000000000E+00  0.00000000000E+00  0.61681643356E+03  0.61681643356E+03  0.00000000000E+00 0.  1.
          1   -1    0    0  501    0  0.00000000000E+00 -0.00000000000E+00 -0.23478176703E+04  0.23478176703E+04  0.00000000000E+00 0. -1.
         23    2    1    2    0    0  0.10471090912E+04  0.14802413628E+03 -0.16397266250E+03  0.10741507936E+04  0.92543500789E+02 0.  0.
         11    1    3    3    0    0  0.61858762325E+03  0.12179983310E+03 -0.67024015994E+02  0.63401740173E+03  0.00000000000E+00 0. -1.
        -11    1    3    3    0    0  0.42852146797E+03  0.26224303175E+02 -0.96948646510E+02  0.44013339188E+03  0.00000000000E+00 0.  1.
         22    1    1    2    0    0 -0.10471090912E+04 -0.14802413628E+03 -0.15670285742E+04  0.18904833102E+04  0.00000000000E+00 0. -1.
<mgrwt>
<rscale>  0 0.24068008E+04</rscale>
<asrwt>0</asrwt>
<pdfrwt beam="1">  1        1 0.36120272E+00 0.24068008E+04</pdfrwt>
<pdfrwt beam="2">  1       -1 0.94894836E-01 0.24068008E+04</pdfrwt>
<totfact> 0.16585750E+00</totfact>
</mgrwt>
</event>
<event>
 6    1  0.1588846E-005  0.9941904E+03  0.7818608E-02  0.9314940E-01
          1   -1    0    0  501    0  0.00000000000E+00  0.00000000000E+00  0.62347019635E+03  0.62347019635E+03  0.00000000000E+00 0. -1.
         -1   -1    0    0    0  501 -0.00000000000E+00 -0.00000000000E+00 -0.39633589818E+03  0.39633589818E+03  0.00000000000E+00 0.  1.
         23    2    1    2    0    0 -0.33694050901E+03  0.21470502627E+03 -0.18117521383E+03  0.44854099625E+03  0.93474126325E+02 0.  0.
         13    1    3    3    0    0 -0.26143844942E+03  0.14108396229E+03 -0.17055113078E+03  0.34255282142E+03  0.00000000000E+00 0.  1.
        -13    1    3    3    0    0 -0.75502059583E+02  0.73621063977E+02 -0.10624083053E+02  0.10598817483E+03  0.00000000000E+00 0. -1.
         22    1    1    2    0    0  0.33694050901E+03 -0.21470502627E+03  0.40830951201E+03  0.57126509828E+03  0.00000000000E+00 0. -1.
<mgrwt>
<rscale>  0 0.99419036E+03</rscale>
<asrwt>0</asrwt>
<pdfrwt beam="1">  1        1 0.95918492E-01 0.99419036E+03</pdfrwt>
<pdfrwt beam="2">  1       -1 0.60974754E-01 0.99419036E+03</pdfrwt>
<totfact> 0.88622414E+01</totfact>
</mgrwt>
</event>
<event>
 6    1  0.1588846E-005  0.8856160E+03  0.7818608E-02  0.9443743E-01
         -1   -1    0    0    0  501 -0.00000000000E+00  0.00000000000E+00  0.26430617721E+03  0.26430617721E+03  0.00000000000E+00 0.  1.
          1   -1    0    0  501    0  0.00000000000E+00 -0.00000000000E+00 -0.74186281929E+03  0.74186281929E+03  0.00000000000E+00 0. -1.
         23    2    1    2    0    0  0.41813043294E+03 -0.95095488152E+02 -0.34340129675E+03  0.55686523790E+03  0.91094630771E+02 0.  0.
         11    1    3    3    0    0  0.12926540187E+03 -0.36529264015E+02 -0.16331534674E+03  0.21146118729E+03  0.00000000000E+00 0.  1.
        -11    1    3    3    0    0  0.28886503107E+03 -0.58566224137E+02 -0.18008595000E+03  0.34540405060E+03  0.00000000000E+00 0. -1.
         22    1    1    2    0    0 -0.41813043294E+03  0.95095488152E+02 -0.13415534533E+03  0.44930375861E+03  0.00000000000E+00 0. -1.
<mgrwt>
<rscale>  0 0.88561600E+03</rscale>
<asrwt>0</asrwt>
<pdfrwt beam="1">  1        1 0.11413274E+00 0.88561600E+03</pdfrwt>
<pdfrwt beam="2">  1       -1 0.40662489E-01 0.88561600E+03</pdfrwt>
<totfact> 0.14833215E+02</totfact>
</mgrwt>
</event>
<event>
 6    1  0.1588846E-005  0.2061623E+04  0.7818608E-02  0.8578340E-01
          1   -1    0    0  501    0  0.00000000000E+00  0.00000000000E+00  0.46205460220E+04  0.46205460220E+04  0.00000000000E+00 0.  1.
         -1   -1    0    0    0  501 -0.00000000000E+00 -0.00000000000E+00 -0.22996689766E+03  0.22996689766E+03  0.00000000000E+00 0. -1.
         23    2    1    2    0    0  0.16595443400E+03  0.37170680938E+03  0.44225546796E+04  0.44421879725E+04  0.91308616090E+02 0.  0.
         11    1    3    3    0    0  0.43485786217E+02  0.26560445524E+02  0.53912609595E+03  0.54152877874E+03  0.00000000000E+00 0. -1.
        -11    1    3    3    0    0  0.12246864778E+03  0.34514636386E+03  0.38834285836E+04  0.39006591938E+04  0.00000000000E+00 0.  1.
         22    1    1    2    0    0 -0.16595443400E+03 -0.37170680938E+03 -0.31975555226E+02  0.40832494711E+03  0.00000000000E+00 0. -1.
<mgrwt>
<rscale>  0 0.20616233E+04</rscale>
<asrwt>0</asrwt>
<pdfrwt beam="1">  1        1 0.71085317E+00 0.20616233E+04</pdfrwt>
<pdfrwt beam="2">  1       -1 0.35379526E-01 0.20616233E+04</pdfrwt>
<totfact> 0.17133937E-01</totfact>
</mgrwt>
</event>
<event>
 6    1  0.1588846E-005  0.4861966E+03  0.7818608E-02  0.1017446E+00
         -2   -1    0    0    0  501 -0.00000000000E+00  0.00000000000E+00  0.66968151351E+03  0.66968151351E+03  0.00000000000E+00 0.  1.
          2   -1    0    0  501    0  0.00000000000E+00 -0.00000000000E+00 -0.88246109615E+02  0.88246109615E+02  0.00000000000E+00 0. -1.
         23    2    1    2    0    0  0.21403230509E+03  0.92916102705E+02  0.33418701671E+03  0.41796439757E+03  0.92574541494E+02 0.  0.
         13    1    3    3    0    0  0.45592597623E+02  0.64021233673E+02  0.84616477252E+02  0.11548745188E+03  0.00000000000E+00 0.  1.
        -13    1    3    3    0    0  0.16843970747E+03  0.28894869033E+02  0.24957053946E+03  0.30247694569E+03  0.00000000000E+00 0. -1.
         22    1    1    2    0    0 -0.21403230509E+03 -0.92916102705E+02  0.24724838719E+03  0.33996322556E+03  0.00000000000E+00 0. -1.
<mgrwt>
<rscale>  0 0.48619662E+03</rscale>
<asrwt>0</asrwt>
<pdfrwt beam="1">  1        2 0.13576325E-01 0.48619662E+03</pdfrwt>
<pdfrwt beam="2">  1       -2 0.10302792E+00 0.48619662E+03</pdfrwt>
<totfact> 0.35254106E+02</totfact>
</mgrwt>
</event>
<event>
 6    1  0.1588846E-005  0.4254299E+03  0.7818608E-02  0.1035313E+00
         -2   -1    0    0    0  501 -0.00000000000E+00  0.00000000000E+00  0.18262660688E+02  0.18262660688E+02  0.00000000000E+00 0.  1.
          2   -1    0    0  501    0  0.00000000000E+00 -0.00000000000E+00 -0.24776042306E+04  0.24776042306E+04  0.00000000000E+00 0. -1.
         23    2    1    2    0    0 -0.94125418156E+02 -0.17947551462E+03 -0.13358061411E+04  0.13542001647E+04  0.91700517544E+02 0.  0.
         13    1    3    3    0    0 -0.25458078679E+02 -0.18982566741E+02 -0.76157333132E+02  0.82512974737E+02  0.00000000000E+00 0. -1.
        -13    1    3    3    0    0 -0.68667339477E+02 -0.16049294788E+03 -0.12596488080E+04  0.12716871900E+04  0.00000000000E+00 0.  1.
         22    1    1    2    0    0  0.94125418156E+02  0.17947551462E+03 -0.11235354288E+04  0.11416667266E+04  0.00000000000E+00 0. -1.
<mgrwt>
<rscale>  0 0.42542988E+03</rscale>
<asrwt>0</asrwt>
<pdfrwt beam="1">  1        2 0.38117000E+00 0.42542988E+03</pdfrwt>
<pdfrwt beam="2">  1       -2 0.28096392E-02 0.42542988E+03</pdfrwt>
<totfact> 0.19007362E+03</totfact>
</mgrwt>
</event>
<event>
 6    1  0.1588846E-005  0.2711138E+04  0.7818608E-02  0.8331400E-01
         -2   -1    0    0    0  501 -0.00000000000E+00  0.00000000000E+00  0.76664659035E+03  0.76664659035E+03  0.00000000000E+00 0.  1.
          2   -1    0    0  501    0  0.00000000000E+00 -0.00000000000E+00 -0.23968900724E+04  0.23968900724E+04  0.00000000000E+00 0. -1.
         23    2    1    2    0    0 -0.74363901832E+03  0.93011045486E+03 -0.63193749132E+02  0.11953523946E+04  0.82276665043E+02 0.  0.
         11    1    3    3    0    0 -0.59128514096E+03  0.78795595206E+03 -0.44468576387E+02  0.98613901383E+03  0.00000000000E+00 0. -1.
        -11    1    3    3    0    0 -0.15235387736E+03  0.14215450281E+03 -0.18725172745E+02  0.20921338081E+03  0.00000000000E+00 0.  1.
         22    1    1    2    0    0  0.74363901832E+03 -0.93011045486E+03 -0.15670497329E+04  0.19681842681E+04  0.00000000000E+00 0.  1.
<mgrwt>
<rscale>  0 0.27111382E+04</rscale>
<asrwt>0</asrwt>
<pdfrwt beam="1">  1        2 0.36875231E+00 0.27111382E+04</pdfrwt>
<pdfrwt beam="2">  1       -2 0.11794563E+00 0.27111382E+04</pdfrwt>
<totfact> 0.19387816E+00</totfact>
</mgrwt>
</event>
<event>
 6    1  0.1588846E-005  0.3075412E+04  0.7818608E-02  0.8222518E-01
         -2   -1    0    0    0  501 -0.00000000000E+00  0.00000000000E+00  0.18483283162E+04  0.18483283162E+04  0.00000000000E+00 0.  1.
          2   -1    0    0  501    0  0.00000000000E+00 -0.00000000000E+00 -0.12792859134E+04  0.12792859134E+04  0.00000000000E+00 0. -1.
         23    2    1    2    0    0  0.79545702222E+03 -0.43919151057E+03 -0.97503445724E+03  0.13360187376E+04  0.92805264826E+02 0.  0.
         11    1    3    3    0    0  0.34940521831E+03 -0.23996139171E+03 -0.42215173069E+03  0.59822868522E+03  0.00000000000E+00 0. -1.
        -11    1    3    3    0    0  0.44605180391E+03 -0.19923011886E+03 -0.55288272655E+03  0.73779005235E+03  0.00000000000E+00 0.  1.
         22    1    1    2    0    0 -0.79545702222E+03  0.43919151057E+03  0.15440768601E+04  0.17915954920E+04  0.00000000000E+00 0.  1.
<mgrwt>
<rscale>  0 0.30754124E+04</rscale>
<asrwt>0</asrwt>
<pdfrwt beam="1">  1        2 0.19681322E+00 0.30754124E+04</pdfrwt>
<pdfrwt beam="2">  1       -2 0.28435820E+00 0.30754124E+04</pdfrwt>
<totfact> 0.57283139E-01</totfact>
</mgrwt>
</event>
<event>
 6    1  0.1588846E-005  0.1044817E+04  0.7818608E-02  0.9260711E-01
         -2   -1    0    0    0  501 -0.00000000000E+00  0.00000000000E+00  0.29748223198E+03  0.29748223198E+03  0.00000000000E+00 0.  1.
          2   -1    0    0  501    0  0.00000000000E+00 -0.00000000000E+00 -0.91740216371E+03  0.91740216371E+03  0.00000000000E+00 0. -1.
         23    2    1    2    0    0  0.23232052720E+03  0.75718082208E+02 -0.84401101322E+03  0.88333821770E+03  0.90695981618E+02 0.  0.
         13    1    3    3    0    0  0.10831876567E+03  0.31542916733E+02 -0.24061969198E+03  0.26575505030E+03  0.00000000000E+00 0.  1.
        -13    1    3    3    0    0  0.12400176154E+03  0.44175165475E+02 -0.60339132124E+03  0.61758316740E+03  0.00000000000E+00 0. -1.
         22    1    1    2    0    0 -0.23232052720E+03 -0.75718082208E+02  0.22409108149E+03  0.33154617799E+03  0.00000000000E+00 0.  1.
<mgrwt>
<rscale>  0 0.10448174E+04</rscale>
<asrwt>0</asrwt>
<pdfrwt beam="1">  1        2 0.14113880E+00 0.10448174E+04</pdfrwt>
<pdfrwt beam="2">  1       -2 0.45766497E-01 0.10448174E+04</pdfrwt>
<totfact> 0.12863866E+02</totfact>
</mgrwt>
</event>
<event>
 6    1  0.1588846E-005  0.5429715E+03  0.7818608E-02  0.1003134E+00
          1   -1    0    0  501    0  0.00000000000E+00  0.00000000000E+00  0.60486842607E+02  0.60486842607E+02  0.00000000000E+00 0. -1.
         -1   -1    0    0    0  501 -0.00000000000E+00 -0.00000000000E+00 -0.12185213820E+04  0.12185213820E+04  0.00000000000E+00 0.  1.
         23    2    1    2    0    0 -0.17910801745E+03 -0.18767751535E+03 -0.47843715777E+03  0.55157772429E+03  0.89628903354E+02 0.  0.
         13    1    3    3    0    0 -0.95182579671E+02 -0.12642826209E+03 -0.36455351329E+03  0.39742054927E+03  0.00000000000E+00 0. -1.
        -13    1    3    3    0    0 -0.83925437775E+02 -0.61249253265E+02 -0.11388364448E+03  0.15415717502E+03  0.00000000000E+00 0.  1.
         22    1    1    2    0    0  0.17910801745E+03  0.18767751535E+03 -0.67959738163E+03  0.72743050032E+03  0.00000000000E+00 0. -1.
<mgrwt>
<rscale>  0 0.54297149E+03</rscale>
<asrwt>0</asrwt>
<pdfrwt beam="1">  1        1 0.93056685E-02 0.54297149E+03</pdfrwt>
<pdfrwt beam="2">  1       -1 0.18746482E+00 0.54297149E+03</pdfrwt>
<totfact> 0.14087956E+02</totfact>
</mgrwt>
</event>
<event>
 6    1  0.1588846E-005  0.2349442E+04  0.7818608E-02  0.8458678E-01
         -1   -1    0    0    0  501 -0.00000000000E+00  0.00000000000E+00  0.79717320827E+03  0.79717320827E+03  0.00000000000E+00 0.  1.
          1   -1    0    0  501    0  0.00000000000E+00 -0.00000000000E+00 -0.17310784225E+04  0.17310784225E+04  0.00000000000E+00 0. -1.
         23    2    1    2    0    0 -0.38542238746E+03 -0.10905871781E+04 -0.25793239405E+03  0.11885240228E+04  0.90163313484E+02 0.  0.
         11    1    3    3    0    0 -0.33791652277E+03 -0.10211547180E+04 -0.23048451710E+03  0.11000307482E+04  0.00000000000E+00 0.  1.
        -11    1    3    3    0    0 -0.47505864683E+02 -0.69432460144E+02 -0.27447876958E+02  0.88493274606E+02  0.00000000000E+00 0. -1.
         22    1    1    2    0    0  0.38542238746E+03  0.10905871781E+04 -0.67597282019E+03  0.13397276079E+04  0.00000000000E+00 0. -1.
<mgrwt>
<rscale>  0 0.23494419E+04</rscale>
<asrwt>0</asrwt>
<pdfrwt beam="1">  1        1 0.26631976E+00 0.23494419E+04</pdfrwt>
<pdfrwt beam="2">  1       -1 0.12264203E+00 0.23494419E+04</pdfrwt>
<totfact> 0.23967295E+00</totfact>
</mgrwt>
</event>
<event>
 6    1  0.1588846E-005  0.2373577E+04  0.7818608E-02  0.8449463E-01
         -1   -1    0    0    0  501 -0.00000000000E+00  0.00000000000E+00  0.67878124021E+03  0.67878124021E+03  0.00000000000E+00 0.  1.
          1   -1    0    0  501    0  0.00000000000E+00 -0.00000000000E+00 -0.20749945656E+04  0.20749945656E+04  0.00000000000E+00 0. -1.
         23    2    1    2    0    0  0.94901993060E+03  0.56612144492E+03 -0.11954356439E+04  0.16306355668E+04  0.93667786261E+02 0.  0.
         11    1    3    3    0    0  0.95929606231E+02  0.67852748556E+02 -0.89608831507E+02  0.14777086155E+03  0.00000000000E+00 0.  1.
        -11    1    3    3    0    0  0.85309032437E+03  0.49826869637E+03 -0.11058268123E+04  0.14828647053E+04  0.00000000000E+00 0. -1.
         22    1    1    2    0    0 -0.94901993060E+03 -0.56612144492E+03 -0.20077768157E+03  0.11231402390E+04  0.00000000000E+00 0. -1.
<mgrwt>
<rscale>  0 0.23735774E+04</rscale>
<asrwt>0</asrwt>
<pdfrwt beam="1">  1        1 0.31922993E+00 0.23735774E+04</pdfrwt>
<pdfrwt beam="2">  1       -1 0.10442788E+00 0.23735774E+04</pdfrwt>
<totfact> 0.20520391E+00</totfact>
</mgrwt>
</event>
<event>
 6    1  0.1588846E-005  0.2511026E+04  0.7818608E-02  0.8399068E-01
         -2   -1    0    0    0  501 -0.00000000000E+00  0.00000000000E+00  0.59474431654E+03  0.59474431654E+03  0.00000000000E+00 0.  1.
          2   -1    0    0  501    0  0.00000000000E+00 -0.00000000000E+00 -0.26504052597E+04  0.26504052597E+04  0.00000000000E+00 0. -1.
         23    2    1    2    0    0  0.23457444361E+03 -0.85468853939E+03  0.11716773864E+03  0.89851322832E+03  0.89889229173E+02 0.  0.
         13    1    3    3    0    0  0.12099615024E+03 -0.38948387631E+03  0.10878953461E+02  0.40799033065E+03  0.00000000000E+00 0.  1.
        -13    1    3    3    0    0  0.11357829337E+03 -0.46520466308E+03  0.10628878518E+03  0.49052289766E+03  0.00000000000E+00 0. -1.
         22    1    1    2    0    0 -0.23457444361E+03  0.85468853939E+03 -0.21728286818E+04  0.23466363480E+04  0.00000000000E+00 0. -1.
<mgrwt>
<rscale>  0 0.25110265E+04</rscale>
<asrwt>0</asrwt>
<pdfrwt beam="1">  1        2 0.40775466E+00 0.25110265E+04</pdfrwt>
<pdfrwt beam="2">  1       -2 0.91499125E-01 0.25110265E+04</pdfrwt>
<totfact> 0.25754322E+00</totfact>
</mgrwt>
</event>
<event>
 6    1  0.1588846E-005  0.2973692E+04  0.7818608E-02  0.8251283E-01
          1   -1    0    0  501    0  0.00000000000E+00  0.00000000000E+00  0.17216354021E+04  0.17216354021E+04  0.00000000000E+00 0. -1.
         -1   -1    0    0    0  501 -0.00000000000E+00 -0.00000000000E+00 -0.12840762115E+04  0.12840762115E+04  0.00000000000E+00 0.  1.
         23    2    1    2    0    0  0.49272114940E+03  0.95735442492E+03 -0.81538311485E+03  0.13536928344E+04  0.91285486477E+02 0.  0.
         13    1    3    3    0    0  0.16420903963E+03  0.36891472177E+03 -0.35345551916E+03  0.53665024426E+03  0.00000000000E+00 0.  1.
        -13    1    3    3    0    0  0.32851210977E+03  0.58843970315E+03 -0.46192759569E+03  0.81704259018E+03  0.00000000000E+00 0. -1.
         22    1    1    2    0    0 -0.49272114940E+03 -0.95735442492E+03  0.12529423055E+04  0.16520187792E+04  0.00000000000E+00 0. -1.
<mgrwt>
<rscale>  0 0.29736920E+04</rscale>
<asrwt>0</asrwt>
<pdfrwt beam="1">  1        1 0.26486698E+00 0.29736920E+04</pdfrwt>
<pdfrwt beam="2">  1       -1 0.19755019E+00 0.29736920E+04</pdfrwt>
<totfact> 0.61496447E-01</totfact>
</mgrwt>
</event>
<event>
 6    1  0.1588846E-005  0.3802710E+04  0.7818608E-02  0.8045574E-01
          1   -1    0    0  501    0  0.00000000000E+00  0.00000000000E+00  0.21909781203E+04  0.21909781203E+04  0.00000000000E+00 0. -1.
         -1   -1    0    0    0  501 -0.00000000000E+00 -0.00000000000E+00 -0.16500168845E+04  0.16500168845E+04  0.00000000000E+00 0.  1.
         23    2    1    2    0    0 -0.21605461266E+03 -0.92305032773E+03  0.19341712413E+04  0.21558434914E+04  0.89113779165E+02 0.  0.
         11    1    3    3    0    0 -0.91235058311E+02 -0.22083111278E+03  0.49079979899E+03  0.54587055143E+03  0.00000000000E+00 0.  1.
        -11    1    3    3    0    0 -0.12481955435E+03 -0.70221921496E+03  0.14433714423E+04  0.16099729400E+04  0.00000000000E+00 0. -1.
         22    1    1    2    0    0  0.21605461266E+03  0.92305032773E+03 -0.13932100055E+04  0.16851515133E+04  0.00000000000E+00 0.  1.
<mgrwt>
<rscale>  0 0.38027100E+04</rscale>
<asrwt>0</asrwt>
<pdfrwt beam="1">  1        1 0.33707356E+00 0.38027100E+04</pdfrwt>
<pdfrwt beam="2">  1       -1 0.25384875E+00 0.38027100E+04</pdfrwt>
<totfact> 0.11566628E-01</totfact>
</mgrwt>
</event>
<event>
 6    1  0.1588846E-005  0.8075572E+03  0.7818608E-02  0.9549142E-01
         -1   -1    0    0    0  501 -0.00000000000E+00  0.00000000000E+00  0.22061974053E+03  0.22061974053E+03  0.00000000000E+00 0.  1.
          1   -1    0    0  501    0  0.00000000000E+00 -0.00000000000E+00 -0.73899629255E+03  0.73899629255E+03  0.00000000000E+00 0. -1.
         23    2    1    2    0    0 -0.83133002743E+01  0.38343623058E+03 -0.13358634105E+03  0.41633345437E+03  0.91628493538E+02 0.  0.
         11    1    3    3    0    0  0.26995711189E+02  0.25746576517E+03 -0.58187826266E+02  0.26533603559E+03  0.00000000000E+00 0.  1.
        -11    1    3    3    0    0 -0.35309011463E+02  0.12597046541E+03 -0.75398514783E+02  0.15099741878E+03  0.00000000000E+00 0. -1.
         22    1    1    2    0    0  0.83133002743E+01 -0.38343623058E+03 -0.38479021097E+03  0.54328257872E+03  0.00000000000E+00 0. -1.
<mgrwt>
<rscale>  0 0.80755723E+03</rscale>
<asrwt>0</asrwt>
<pdfrwt beam="1">  1        1 0.11369174E+00 0.80755723E+03</pdfrwt>
<pdfrwt beam="2">  1       -1 0.33941498E-01 0.80755723E+03</pdfrwt>
<totfact> 0.20749363E+02</totfact>
</mgrwt>
</event>
<event>
 6    1  0.1588846E-005  0.2070685E+04  0.7818608E-02  0.8574268E-01
         -2   -1    0    0    0  501 -0.00000000000E+00  0.00000000000E+00  0.17298294879E+04  0.17298294879E+04  0.00000000000E+00 0. -1.
          2   -1    0    0  501    0  0.00000000000E+00 -0.00000000000E+00 -0.61967621953E+03  0.61967621953E+03  0.00000000000E+00 0.  1.
         23    2    1    2    0    0 -0.94004511556E+03 -0.13735916099E+03  0.94903625906E+02  0.95907980329E+03  0.90967095517E+02 0.  0.
         11    1    3    3    0    0 -0.64924635930E+03 -0.11960121771E+03  0.31510630445E+02  0.66092223913E+03  0.00000000000E+00 0. -1.
        -11    1    3    3    0    0 -0.29079875626E+03 -0.17757943277E+02  0.63392995461E+02  0.29815756416E+03  0.00000000000E+00 0.  1.
         22    1    1    2    0    0  0.94004511556E+03  0.13735916099E+03  0.10152496425E+04  0.13904259042E+04  0.00000000000E+00 0. -1.
<mgrwt>
<rscale>  0 0.20706851E+04</rscale>
<asrwt>0</asrwt>
<pdfrwt beam="1">  1        2 0.95334804E-01 0.20706851E+04</pdfrwt>
<pdfrwt beam="2">  1       -2 0.26612761E+00 0.20706851E+04</pdfrwt>
<totfact> 0.22547006E+00</totfact>
</mgrwt>
</event>
<event>
 6    1  0.1588846E-005  0.2510707E+04  0.7818608E-02  0.8399181E-01
         -1   -1    0    0    0  501 -0.00000000000E+00  0.00000000000E+00  0.72624603881E+03  0.72624603881E+03  0.00000000000E+00 0.  1.
          1   -1    0    0  501    0  0.00000000000E+00 -0.00000000000E+00 -0.21699428035E+04  0.21699428035E+04  0.00000000000E+00 0. -1.
         23    2    1    2    0    0 -0.82085298472E+03 -0.61793639137E+03 -0.15516463782E+04  0.18630876249E+04  0.88566409544E+02 0.  0.
         11    1    3    3    0    0 -0.47997907560E+03 -0.33410732341E+03 -0.95061002463E+03  0.11160945459E+04  0.00000000000E+00 0. -1.
        -11    1    3    3    0    0 -0.34087390913E+03 -0.28382906796E+03 -0.60103635355E+03  0.74699307897E+03  0.00000000000E+00 0.  1.
         22    1    1    2    0    0  0.82085298472E+03  0.61793639137E+03  0.10794961349E+03  0.10331012174E+04  0.00000000000E+00 0.  1.
<mgrwt>
<rscale>  0 0.25107070E+04</rscale>
<asrwt>0</asrwt>
<pdfrwt beam="1">  1        1 0.33383735E+00 0.25107070E+04</pdfrwt>
<pdfrwt beam="2">  1       -1 0.11173016E+00 0.25107070E+04</pdfrwt>
<totfact> 0.14903684E+00</totfact>
</mgrwt>
</event>
<event>
 6    1  0.1588846E-005  0.4788131E+04  0.7818608E-02  0.7862048E-01
          2   -1    0    0  501    0  0.00000000000E+00  0.00000000000E+00  0.26197257926E+04  0.26197257926E+04  0.00000000000E+00 0. -1.
         -2   -1    0    0    0  501 -0.00000000000E+00 -0.00000000000E+00 -0.21878431200E+04  0.21878431200E+04  0.00000000000E+00 0.  1.
         23    2    1    2    0    0  0.14996074420E+04 -0.18078909837E+04  0.67641857235E+03  0.24459825612E+04  0.89422120039E+02 0.  0.
         11    1    3    3    0    0  0.79573723877E+03 -0.10252514565E+04  0.38841059241E+03  0.13546959402E+04  0.00000000000E+00 0.  1.
        -11    1    3    3    0    0  0.70387020325E+03 -0.78263952719E+03  0.28800797995E+03  0.10912866209E+04  0.00000000000E+00 0. -1.
         22    1    1    2    0    0 -0.14996074420E+04  0.18078909837E+04 -0.24453589977E+03  0.23615863514E+04  0.00000000000E+00 0.  1.
<mgrwt>
<rscale>  0 0.47881308E+04</rscale>
<asrwt>0</asrwt>
<pdfrwt beam="1">  1        2 0.40303473E+00 0.47881308E+04</pdfrwt>
<pdfrwt beam="2">  1       -2 0.33659125E+00 0.47881308E+04</pdfrwt>
<totfact> 0.41427455E-02</totfact>
</mgrwt>
</event>
<event>
 6    1  0.1588846E-005  0.4297182E+04  0.7818608E-02  0.7947139E-01
         -1   -1    0    0    0  501 -0.00000000000E+00  0.00000000000E+00  0.22535851248E+04  0.22535851248E+04  0.00000000000E+00 0.  1.
          1   -1    0    0  501    0  0.00000000000E+00 -0.00000000000E+00 -0.20484888833E+04  0.20484888833E+04  0.00000000000E+00 0. -1.
         23    2    1    2    0    0 -0.11747603568E+04 -0.41643148449E+03 -0.16483265919E+04  0.20685446762E+04  0.91757542399E+02 0.  0.
         11    1    3    3    0    0 -0.57156267432E+03 -0.15696831290E+03 -0.75592304832E+03  0.96059491822E+03  0.00000000000E+00 0. -1.
        -11    1    3    3    0    0 -0.60319768253E+03 -0.25946317159E+03 -0.89240354360E+03  0.11079497580E+04  0.00000000000E+00 0.  1.
         22    1    1    2    0    0  0.11747603568E+04  0.41643148449E+03  0.18534228334E+04  0.22335293319E+04  0.00000000000E+00 0.  1.
<mgrwt>
<rscale>  0 0.42971824E+04</rscale>
<asrwt>0</asrwt>
<pdfrwt beam="1">  1        1 0.31515214E+00 0.42971824E+04</pdfrwt>
<pdfrwt beam="2">  1       -1 0.34670540E+00 0.42971824E+04</pdfrwt>
<totfact> 0.34472914E-02</totfact>
</mgrwt>
</event>
<event>
 6    1  0.1588846E-005  0.1060917E+04  0.7818608E-02  0.9244145E-01
         -2   -1    0    0    0  501 -0.00000000000E+00  0.00000000000E+00  0.18822844239E+04  0.18822844239E+04  0.00000000000E+00 0.  1.
          2   -1    0    0  501    0  0.00000000000E+00 -0.00000000000E+00 -0.14949184019E+03  0.14949184019E+03  0.00000000000E+00 0. -1.
         23    2    1    2    0    0  0.65991914322E+02 -0.40816315940E+03  0.24951568357E+03  0.49195079997E+03  0.93837177052E+02 0.  0.
         11    1    3    3    0    0 -0.23728820547E+01 -0.11537077678E+03  0.28706571116E+02  0.11891221102E+03  0.00000000000E+00 0.  1.
        -11    1    3    3    0    0  0.68364796377E+02 -0.29279238262E+03  0.22080911246E+03  0.37303858895E+03  0.00000000000E+00 0. -1.
         22    1    1    2    0    0 -0.65991914322E+02  0.40816315940E+03  0.14832769001E+04  0.15398254641E+04  0.00000000000E+00 0.  1.
<mgrwt>
<rscale>  0 0.10609169E+04</rscale>
<asrwt>0</asrwt>
<pdfrwt beam="1">  1        2 0.22998746E-01 0.10609169E+04</pdfrwt>
<pdfrwt beam="2">  1       -2 0.28958220E+00 0.10609169E+04</pdfrwt>
<totfact> 0.89470174E+00</totfact>
</mgrwt>
</event>
<event>
 6    1  0.1588846E-005  0.3732442E+04  0.7818608E-02  0.8060810E-01
         -1   -1    0    0    0  501 -0.00000000000E+00  0.00000000000E+00  0.77095296809E+03  0.77095296809E+03  0.00000000000E+00 0.  1.
          1   -1    0    0  501    0  0.00000000000E+00 -0.00000000000E+00 -0.45175014269E+04  0.45175014269E+04  0.00000000000E+00 0. -1.
         23    2    1    2    0    0 -0.17502695730E+04  0.22790258594E+02 -0.96194638250E+03  0.19993858798E+04  0.90774883263E+02 0.  0.
         11    1    3    3    0    0 -0.10732665513E+03  0.19957879830E+01 -0.35177454082E+02  0.11296215006E+03  0.00000000000E+00 0. -1.
        -11    1    3    3    0    0 -0.16429429179E+04  0.20794470611E+02 -0.92676892842E+03  0.18864237298E+04  0.00000000000E+00 0.  1.
         22    1    1    2    0    0  0.17502695730E+04 -0.22790258594E+02 -0.27846020763E+04  0.32890685152E+04  0.00000000000E+00 0.  1.
<mgrwt>
<rscale>  0 0.37324422E+04</rscale>
<asrwt>0</asrwt>
<pdfrwt beam="1">  1        1 0.69500023E+00 0.37324422E+04</pdfrwt>
<pdfrwt beam="2">  1       -1 0.11860815E+00 0.37324422E+04</pdfrwt>
<totfact> 0.15672552E-02</totfact>
</mgrwt>
</event>
<event>
 6    1  0.1588846E-005  0.2568507E+04  0.7818608E-02  0.8378978E-01
         -2   -1    0    0    0  501 -0.00000000000E+00  0.00000000000E+00  0.53329235000E+03  0.53329235000E+03  0.00000000000E+00 0. -1.
          2   -1    0    0  501    0  0.00000000000E+00 -0.00000000000E+00 -0.30926894214E+04  0.30926894214E+04  0.00000000000E+00 0.  1.
         23    2    1    2    0    0  0.47252404863E+03  0.41216495510E+03  0.29829821885E+03  0.70030555919E+03  0.91033631802E+02 0.  0.
         13    1    3    3    0    0  0.23560580871E+03  0.26533515437E+03  0.17032233181E+03  0.39360200452E+03  0.00000000000E+00 0. -1.
        -13    1    3    3    0    0  0.23691823992E+03  0.14682980072E+03  0.12797588704E+03  0.30670355468E+03  0.00000000000E+00 0.  1.
         22    1    1    2    0    0 -0.47252404863E+03 -0.41216495510E+03 -0.28576952902E+04  0.29256762122E+04  0.00000000000E+00 0.  1.
<mgrwt>
<rscale>  0 0.25685074E+04</rscale>
<asrwt>0</asrwt>
<pdfrwt beam="1">  1        2 0.47579838E+00 0.25685074E+04</pdfrwt>
<pdfrwt beam="2">  1       -2 0.82044976E-01 0.25685074E+04</pdfrwt>
<totfact> 0.17616582E+00</totfact>
</mgrwt>
</event>
<event>
 6    1  0.1588846E-005  0.2877126E+04  0.7818608E-02  0.8279716E-01
         -2   -1    0    0    0  501 -0.00000000000E+00  0.00000000000E+00  0.11198051497E+04  0.11198051497E+04  0.00000000000E+00 0.  1.
          2   -1    0    0  501    0  0.00000000000E+00 -0.00000000000E+00 -0.18480571248E+04  0.18480571248E+04  0.00000000000E+00 0. -1.
         23    2    1    2    0    0  0.66183530905E+03 -0.27765009154E+03 -0.16489052166E+04  0.18005071698E+04  0.88442667275E+02 0.  0.
         11    1    3    3    0    0  0.26974043986E+03 -0.15445490327E+03 -0.65663089111E+03  0.72648492703E+03  0.00000000000E+00 0. -1.
        -11    1    3    3    0    0  0.39209486919E+03 -0.12319518827E+03 -0.99227432548E+03  0.10740222427E+04  0.00000000000E+00 0.  1.
         22    1    1    2    0    0 -0.66183530905E+03  0.27765009154E+03  0.92065324146E+03  0.11673551048E+04  0.00000000000E+00 0.  1.
<mgrwt>
<rscale>  0 0.28771263E+04</rscale>
<asrwt>0</asrwt>
<pdfrwt beam="1">  1        2 0.28431648E+00 0.28771263E+04</pdfrwt>
<pdfrwt beam="2">  1       -2 0.17227772E+00 0.28771263E+04</pdfrwt>
<totfact> 0.14410629E+00</totfact>
</mgrwt>
</event>
<event>
 6    1  0.1588846E-005  0.3798382E+04  0.7818608E-02  0.8046502E-01
         -2   -1    0    0    0  501 -0.00000000000E+00  0.00000000000E+00  0.16838896491E+04  0.16838896491E+04  0.00000000000E+00 0.  1.
          2   -1    0    0  501    0  0.00000000000E+00 -0.00000000000E+00 -0.21420204944E+04  0.21420204944E+04  0.00000000000E+00 0. -1.
         23    2    1    2    0    0  0.98226755449E+03 -0.16228275050E+04 -0.16297833874E+03  0.19061357657E+04  0.91503873410E+02 0.  0.
         11    1    3    3    0    0  0.27361721522E+03 -0.50953633854E+03 -0.19792447659E+02  0.57869283885E+03  0.00000000000E+00 0. -1.
        -11    1    3    3    0    0  0.70865033927E+03 -0.11132911664E+04 -0.14318589108E+03  0.13274429268E+04  0.00000000000E+00 0.  1.
         22    1    1    2    0    0 -0.98226755449E+03  0.16228275050E+04 -0.29515250651E+03  0.19197743778E+04  0.00000000000E+00 0.  1.
<mgrwt>
<rscale>  0 0.37983818E+04</rscale>
<asrwt>0</asrwt>
<pdfrwt beam="1">  1        2 0.32954161E+00 0.37983818E+04</pdfrwt>
<pdfrwt beam="2">  1       -2 0.25905995E+00 0.37983818E+04</pdfrwt>
<totfact> 0.25237111E-01</totfact>
</mgrwt>
</event>
<event>
 6    1  0.1588846E-005  0.1454228E+04  0.7818608E-02  0.8915475E-01
         -2   -1    0    0    0  501 -0.00000000000E+00  0.00000000000E+00  0.44632895076E+03  0.44632895076E+03  0.00000000000E+00 0.  1.
          2   -1    0    0  501    0  0.00000000000E+00 -0.00000000000E+00 -0.11845400931E+04  0.11845400931E+04  0.00000000000E+00 0. -1.
         23    2    1    2    0    0 -0.38227857778E+03 -0.49870978228E+03  0.33596552714E+02  0.63561255624E+03  0.89589259004E+02 0.  0.
         11    1    3    3    0    0 -0.15813688334E+03 -0.27814675420E+03  0.26753577620E+02  0.32107420429E+03  0.00000000000E+00 0.  1.
        -11    1    3    3    0    0 -0.22414169444E+03 -0.22056302808E+03  0.68429750946E+01  0.31453835195E+03  0.00000000000E+00 0. -1.
         22    1    1    2    0    0  0.38227857778E+03  0.49870978228E+03 -0.77180769502E+03  0.99525648758E+03  0.00000000000E+00 0. -1.
<mgrwt>
<rscale>  0 0.14542277E+04</rscale>
<asrwt>0</asrwt>
<pdfrwt beam="1">  1        2 0.18223693E+00 0.14542277E+04</pdfrwt>
<pdfrwt beam="2">  1       -2 0.68665994E-01 0.14542277E+04</pdfrwt>
<totfact> 0.36370067E+01</totfact>
</mgrwt>
</event>
<event>
 6    1  0.1588846E-005  0.2016292E+04  0.7818608E-02  0.8599041E-01
          1   -1    0    0  501    0  0.00000000000E+00  0.00000000000E+00  0.13832634297E+04  0.13832634297E+04  0.00000000000E+00 0. -1.
         -1   -1    0    0    0  501 -0.00000000000E+00 -0.00000000000E+00 -0.73475374911E+03  0.73475374911E+03  0.00000000000E+00 0.  1.
         23    2    1    2    0    0 -0.23259738307E+02 -0.10029658287E+04  0.24409054376E+03  0.10363350133E+04  0.89042670459E+02 0.  0.
         11    1    3    3    0    0 -0.27006672582E+02 -0.44479174357E+03  0.15061018239E+03  0.47037483198E+03  0.00000000000E+00 0. -1.
        -11    1    3    3    0    0  0.37469342754E+01 -0.55817408516E+03  0.93480361370E+02  0.56596018131E+03  0.00000000000E+00 0.  1.
         22    1    1    2    0    0  0.23259738307E+02  0.10029658287E+04  0.40441913688E+03  0.10816821656E+04  0.00000000000E+00 0. -1.
<mgrwt>
<rscale>  0 0.20162916E+04</rscale>
<asrwt>0</asrwt>
<pdfrwt beam="1">  1        1 0.21280976E+00 0.20162916E+04</pdfrwt>
<pdfrwt beam="2">  1       -1 0.11303904E+00 0.20162916E+04</pdfrwt>
<totfact> 0.52308082E+00</totfact>
</mgrwt>
</event>
<event>
 6    1  0.1588846E-005  0.2516284E+04  0.7818608E-02  0.8397207E-01
         -3   -1    0    0    0  501 -0.00000000000E+00  0.00000000000E+00  0.83738871567E+03  0.83738871567E+03  0.00000000000E+00 0.  1.
          3   -1    0    0  501    0  0.00000000000E+00 -0.00000000000E+00 -0.18903061792E+04  0.18903061792E+04  0.00000000000E+00 0. -1.
         23    2    1    2    0    0 -0.39086793570E+03  0.93343533812E+03  0.28019856420E+03  0.10539931242E+04  0.91164669328E+02 0.  0.
         13    1    3    3    0    0 -0.27638332283E+03  0.59743249721E+03  0.21931152132E+03  0.69383778598E+03  0.00000000000E+00 0. -1.
        -13    1    3    3    0    0 -0.11448461287E+03  0.33600284091E+03  0.60887042883E+02  0.36015533826E+03  0.00000000000E+00 0.  1.
         22    1    1    2    0    0  0.39086793570E+03 -0.93343533812E+03 -0.13331160277E+04  0.16737017706E+04  0.00000000000E+00 0. -1.
<mgrwt>
<rscale>  0 0.25162838E+04</rscale>
<asrwt>0</asrwt>
<pdfrwt beam="1">  1        3 0.29081633E+00 0.25162838E+04</pdfrwt>
<pdfrwt beam="2">  1       -3 0.12882903E+00 0.25162838E+04</pdfrwt>
<totfact> 0.47877421E-02</totfact>
</mgrwt>
</event>
<event>
 6    1  0.1588846E-005  0.7589768E+03  0.7818608E-02  0.9621371E-01
         -2   -1    0    0    0  501 -0.00000000000E+00  0.00000000000E+00  0.18963126454E+03  0.18963126454E+03  0.00000000000E+00 0. -1.
          2   -1    0    0  501    0  0.00000000000E+00 -0.00000000000E+00 -0.75942880685E+03  0.75942880685E+03  0.00000000000E+00 0.  1.
         23    2    1    2    0    0  0.65310314591E+02  0.13650741755E+03  0.13958160666E+03  0.22371981384E+03  0.87566077596E+02 0.  0.
         13    1    3    3    0    0  0.52133798974E+02  0.14740621605E+03  0.13342631816E+03  0.20554587785E+03  0.00000000000E+00 0. -1.
        -13    1    3    3    0    0  0.13176515617E+02 -0.10898798498E+02  0.61552885056E+01  0.18173935982E+02  0.00000000000E+00 0.  1.
         22    1    1    2    0    0 -0.65310314591E+02 -0.13650741755E+03 -0.70937914897E+03  0.72534025756E+03  0.00000000000E+00 0.  1.
<mgrwt>
<rscale>  0 0.75897680E+03</rscale>
<asrwt>0</asrwt>
<pdfrwt beam="1">  1        2 0.11683520E+00 0.75897680E+03</pdfrwt>
<pdfrwt beam="2">  1       -2 0.29174041E-01 0.75897680E+03</pdfrwt>
<totfact> 0.40056162E+02</totfact>
</mgrwt>
</event>
<event>
 6    1  0.1588846E-005  0.3263292E+04  0.7818608E-02  0.8172299E-01
          1   -1    0    0  501    0  0.00000000000E+00  0.00000000000E+00  0.17906842001E+04  0.17906842001E+04  0.00000000000E+00 0. -1.
         -1   -1    0    0    0  501 -0.00000000000E+00 -0.00000000000E+00 -0.14867327544E+04  0.14867327544E+04  0.00000000000E+00 0.  1.
         23    2    1    2    0    0  0.37183705412E+03  0.14758508944E+04  0.73918286007E+03  0.16944371563E+04  0.91254142634E+02 0.  0.
         13    1    3    3    0    0  0.29760236331E+03  0.12920183730E+04  0.65880774549E+03  0.14805087938E+04  0.00000000000E+00 0.  1.
        -13    1    3    3    0    0  0.74234690814E+02  0.18383252142E+03  0.80375114574E+02  0.21392836253E+03  0.00000000000E+00 0. -1.
         22    1    1    2    0    0 -0.37183705412E+03 -0.14758508944E+04 -0.43523141431E+03  0.15829797982E+04  0.00000000000E+00 0.  1.
<mgrwt>
<rscale>  0 0.32632921E+04</rscale>
<asrwt>0</asrwt>
<pdfrwt beam="1">  1        1 0.27548988E+00 0.32632921E+04</pdfrwt>
<pdfrwt beam="2">  1       -1 0.22872812E+00 0.32632921E+04</pdfrwt>
<totfact> 0.33112228E-01</totfact>
</mgrwt>
</event>
<event>
 6    1  0.1588846E-005  0.1072683E+04  0.7818608E-02  0.9232234E-01
          1   -1    0    0  501    0  0.00000000000E+00  0.00000000000E+00  0.23354354518E+04  0.23354354518E+04  0.00000000000E+00 0. -1.
         -1   -1    0    0    0  501 -0.00000000000E+00 -0.00000000000E+00 -0.12317277015E+03  0.12317277015E+03  0.00000000000E+00 0.  1.
         23    2    1    2    0    0 -0.21871127950E+02 -0.42331800942E+03  0.18527553509E+04  0.19028006976E+04  0.90948451925E+02 0.  0.
         13    1    3    3    0    0 -0.52853341491E+02 -0.26754155960E+03  0.10807564844E+04  0.11146329173E+04  0.00000000000E+00 0.  1.
        -13    1    3    3    0    0  0.30982213541E+02 -0.15577644981E+03  0.77199886656E+03  0.78816778026E+03  0.00000000000E+00 0. -1.
         22    1    1    2    0    0  0.21871127950E+02  0.42331800942E+03  0.35950733072E+03  0.55580752439E+03  0.00000000000E+00 0.  1.
<mgrwt>
<rscale>  0 0.10726827E+04</rscale>
<asrwt>0</asrwt>
<pdfrwt beam="1">  1        1 0.35929773E+00 0.10726827E+04</pdfrwt>
<pdfrwt beam="2">  1       -1 0.18949659E-01 0.10726827E+04</pdfrwt>
<totfact> 0.39614100E+01</totfact>
</mgrwt>
</event>
<event>
 6    1  0.1588846E-005  0.1302563E+04  0.7818608E-02  0.9027535E-01
          2   -1    0    0  501    0  0.00000000000E+00  0.00000000000E+00  0.15004991958E+04  0.15004991958E+04  0.00000000000E+00 0.  1.
         -2   -1    0    0    0  501 -0.00000000000E+00 -0.00000000000E+00 -0.28268430487E+03  0.28268430487E+03  0.00000000000E+00 0. -1.
         23    2    1    2    0    0 -0.63662369880E+03 -0.63653554363E+02  0.75246028356E+03  0.99204734333E+03  0.92843654691E+02 0.  0.
         13    1    3    3    0    0 -0.41834607755E+03 -0.31407204514E+02  0.42495223065E+03  0.59714675871E+03  0.00000000000E+00 0. -1.
        -13    1    3    3    0    0 -0.21827762125E+03 -0.32246349850E+02  0.32750805290E+03  0.39490058462E+03  0.00000000000E+00 0.  1.
         22    1    1    2    0    0  0.63662369880E+03  0.63653554363E+02  0.46535460738E+03  0.79113615735E+03  0.00000000000E+00 0.  1.
<mgrwt>
<rscale>  0 0.13025630E+04</rscale>
<asrwt>0</asrwt>
<pdfrwt beam="1">  1        2 0.23084603E+00 0.13025630E+04</pdfrwt>
<pdfrwt beam="2">  1       -2 0.43489894E-01 0.13025630E+04</pdfrwt>
<totfact> 0.62304028E+01</totfact>
</mgrwt>
</event>
<event>
 6    1  0.1588846E-005  0.3266673E+04  0.7818608E-02  0.8171428E-01
          2   -1    0    0  501    0  0.00000000000E+00  0.00000000000E+00  0.14826895250E+04  0.14826895250E+04  0.00000000000E+00 0. -1.
         -2   -1    0    0    0  501 -0.00000000000E+00 -0.00000000000E+00 -0.17992894067E+04  0.17992894067E+04  0.00000000000E+00 0.  1.
         23    2    1    2    0    0  0.50523676098E+03 -0.13375343972E+04  0.63219427626E+03  0.15660323118E+04  0.92331740339E+02 0.  0.
         13    1    3    3    0    0  0.46075008663E+03 -0.12769424260E+04  0.60223176081E+03  0.14851113411E+04  0.00000000000E+00 0. -1.
        -13    1    3    3    0    0  0.44486674346E+02 -0.60591971171E+02  0.29962515452E+02  0.80920970687E+02  0.00000000000E+00 0.  1.
         22    1    1    2    0    0 -0.50523676098E+03  0.13375343972E+04 -0.94879415796E+03  0.17159466199E+04  0.00000000000E+00 0. -1.
<mgrwt>
<rscale>  0 0.32666727E+04</rscale>
<asrwt>0</asrwt>
<pdfrwt beam="1">  1        2 0.22810608E+00 0.32666727E+04</pdfrwt>
<pdfrwt beam="2">  1       -2 0.27681376E+00 0.32666727E+04</pdfrwt>
<totfact> 0.47884402E-01</totfact>
</mgrwt>
</event>
<event>
 6    1  0.1588846E-005  0.2308058E+04  0.7818608E-02  0.8474751E-01
          1   -1    0    0  501    0  0.00000000000E+00  0.00000000000E+00  0.17887108628E+04  0.17887108628E+04  0.00000000000E+00 0. -1.
         -1   -1    0    0    0  501 -0.00000000000E+00 -0.00000000000E+00 -0.74454879994E+03  0.74454879994E+03  0.00000000000E+00 0.  1.
         23    2    1    2    0    0  0.30491682737E+03  0.96450651797E+03  0.11287801356E+04  0.15181698574E+04  0.86301949433E+02 0.  0.
         13    1    3    3    0    0  0.23506681108E+03  0.65163350881E+03  0.72746984295E+03  0.10045372108E+04  0.00000000000E+00 0.  1.
        -13    1    3    3    0    0  0.69850016296E+02  0.31287300916E+03  0.40131029265E+03  0.51363264657E+03  0.00000000000E+00 0. -1.
         22    1    1    2    0    0 -0.30491682737E+03 -0.96450651797E+03 -0.84618072700E+02  0.10150898054E+04  0.00000000000E+00 0. -1.
<mgrwt>
<rscale>  0 0.23080576E+04</rscale>
<asrwt>0</asrwt>
<pdfrwt beam="1">  1        1 0.27518629E+00 0.23080576E+04</pdfrwt>
<pdfrwt beam="2">  1       -1 0.11454597E+00 0.23080576E+04</pdfrwt>
<totfact> 0.25951987E+00</totfact>
</mgrwt>
</event>
<event>
 6    1  0.1588846E-005  0.6095811E+04  0.7818608E-02  0.7678635E-01
          2   -1    0    0  501    0  0.00000000000E+00  0.00000000000E+00  0.23151028405E+04  0.23151028405E+04  0.00000000000E+00 0. -1.
         -2   -1    0    0    0  501 -0.00000000000E+00 -0.00000000000E+00 -0.40126625579E+04  0.40126625579E+04  0.00000000000E+00 0.  1.
         23    2    1    2    0    0  0.15636112134E+04  0.11882426998E+04 -0.32676001625E+04  0.38134408888E+04  0.91213209010E+02 0.  0.
         13    1    3    3    0    0  0.37365160299E+03  0.24954180781E+03 -0.80005334934E+03  0.91759032038E+03  0.00000000000E+00 0.  1.
        -13    1    3    3    0    0  0.11899596104E+04  0.93870089202E+03 -0.24675468132E+04  0.28958505684E+04  0.00000000000E+00 0. -1.
         22    1    1    2    0    0 -0.15636112134E+04 -0.11882426998E+04  0.15700404452E+04  0.25143245097E+04  0.00000000000E+00 0. -1.
<mgrwt>
<rscale>  0 0.60958105E+04</rscale>
<asrwt>0</asrwt>
<pdfrwt beam="1">  1        2 0.35616967E+00 0.60958105E+04</pdfrwt>
<pdfrwt beam="2">  1       -2 0.61733270E+00 0.60958105E+04</pdfrwt>
<totfact> 0.13251640E-03</totfact>
</mgrwt>
</event>
<event>
 6    1  0.1890510E-005  0.1976940E+04  0.7818608E-02  0.8617479E-01
          2   -1    0    0  501    0  0.00000000000E+00  0.00000000000E+00  0.23158236838E+04  0.23158236838E+04  0.00000000000E+00 0. -1.
         -2   -1    0    0    0  501 -0.00000000000E+00 -0.00000000000E+00 -0.42191147480E+03  0.42191147480E+03  0.00000000000E+00 0.  1.
         23    2    1    2    0    0 -0.68970429132E+03 -0.70385221756E+03  0.88845706659E+03  0.13298857359E+04  0.90222822878E+02 0.  0.
         13    1    3    3    0    0 -0.26176993370E+03 -0.24465397561E+03  0.26937052574E+03  0.44826280920E+03  0.00000000000E+00 0.  1.
        -13    1    3    3    0    0 -0.42793435762E+03 -0.45919824194E+03  0.61908654085E+03  0.88162292670E+03  0.00000000000E+00 0. -1.
         22    1    1    2    0    0  0.68970429132E+03  0.70385221756E+03  0.10054551424E+04  0.14078494227E+04  0.00000000000E+00 0. -1.
<mgrwt>
<rscale>  0 0.19769396E+04</rscale>
<asrwt>0</asrwt>
<pdfrwt beam="1">  1        2 0.35628056E+00 0.19769396E+04</pdfrwt>
<pdfrwt beam="2">  1       -2 0.64909459E-01 0.19769396E+04</pdfrwt>
<totfact> 0.90528461E+00</totfact>
</mgrwt>
</event>
<event>
 6    1  0.1588846E-005  0.3427714E+04  0.7818608E-02  0.8131138E-01
          2   -1    0    0  501    0  0.00000000000E+00  0.00000000000E+00  0.25901490846E+04  0.25901490846E+04  0.00000000000E+00 0. -1.
         -2   -1    0    0    0  501 -0.00000000000E+00 -0.00000000000E+00 -0.11340299299E+04  0.11340299299E+04  0.00000000000E+00 0.  1.
         23    2    1    2    0    0  0.26061368563E+03  0.77113266709E+03  0.23657170756E+04  0.25035507085E+04  0.92648717219E+02 0.  0.
         11    1    3    3    0    0  0.12282769409E+03  0.23614890459E+03  0.81518309405E+03  0.85754091704E+03  0.00000000000E+00 0. -1.
        -11    1    3    3    0    0  0.13778599154E+03  0.53498376250E+03  0.15505339816E+04  0.16460097915E+04  0.00000000000E+00 0.  1.
         22    1    1    2    0    0 -0.26061368563E+03 -0.77113266709E+03 -0.90959792098E+03  0.12206283059E+04  0.00000000000E+00 0.  1.
<mgrwt>
<rscale>  0 0.34277144E+04</rscale>
<asrwt>0</asrwt>
<pdfrwt beam="1">  1        2 0.39848447E+00 0.34277144E+04</pdfrwt>
<pdfrwt beam="2">  1       -2 0.17446614E+00 0.34277144E+04</pdfrwt>
<totfact> 0.50509998E-01</totfact>
</mgrwt>
</event>
<event>
 6    1  0.1588846E-005  0.2159941E+04  0.7818608E-02  0.8535289E-01
          1   -1    0    0  501    0  0.00000000000E+00  0.00000000000E+00  0.63773800084E+03  0.63773800084E+03  0.00000000000E+00 0. -1.
         -1   -1    0    0    0  501 -0.00000000000E+00 -0.00000000000E+00 -0.18288640766E+04  0.18288640766E+04  0.00000000000E+00 0.  1.
         23    2    1    2    0    0  0.51162459982E+03 -0.30541844651E+03 -0.16224141381E+04  0.17310413721E+04  0.96106387145E+02 0.  0.
         11    1    3    3    0    0  0.31100330707E+03 -0.15830881661E+03 -0.82655203399E+03  0.89720287746E+03  0.00000000000E+00 0.  1.
        -11    1    3    3    0    0  0.20062129275E+03 -0.14710962991E+03 -0.79586210414E+03  0.83383849462E+03  0.00000000000E+00 0. -1.
         22    1    1    2    0    0 -0.51162459982E+03  0.30541844651E+03  0.43128806234E+03  0.73556070539E+03  0.00000000000E+00 0. -1.
<mgrwt>
<rscale>  0 0.21599409E+04</rscale>
<asrwt>0</asrwt>
<pdfrwt beam="1">  1        1 0.98113539E-01 0.21599409E+04</pdfrwt>
<pdfrwt beam="2">  1       -1 0.28136370E+00 0.21599409E+04</pdfrwt>
<totfact> 0.12502193E+00</totfact>
</mgrwt>
</event>
<event>
 6    1  0.1588846E-005  0.1473578E+04  0.7818608E-02  0.8902216E-01
          2   -1    0    0  501    0  0.00000000000E+00  0.00000000000E+00  0.11734717762E+04  0.11734717762E+04  0.00000000000E+00 0. -1.
         -2   -1    0    0    0  501 -0.00000000000E+00 -0.00000000000E+00 -0.46260819815E+03  0.46260819815E+03  0.00000000000E+00 0.  1.
         23    2    1    2    0    0  0.38119894227E+03  0.27998245138E+03 -0.26677152642E+03  0.55004442974E+03  0.87630021739E+02 0.  0.
         11    1    3    3    0    0  0.20029746356E+03  0.11142520050E+03 -0.90680477643E+02  0.24649056420E+03  0.00000000000E+00 0. -1.
        -11    1    3    3    0    0  0.18090147871E+03  0.16855725088E+03 -0.17609104878E+03  0.30355386554E+03  0.00000000000E+00 0.  1.
         22    1    1    2    0    0 -0.38119894227E+03 -0.27998245138E+03  0.97763510445E+03  0.10860355446E+04  0.00000000000E+00 0. -1.
<mgrwt>
<rscale>  0 0.14735775E+04</rscale>
<asrwt>0</asrwt>
<pdfrwt beam="1">  1        2 0.18053412E+00 0.14735775E+04</pdfrwt>
<pdfrwt beam="2">  1       -2 0.71170492E-01 0.14735775E+04</pdfrwt>
<totfact> 0.34102747E+01</totfact>
</mgrwt>
</event>
<event>
 6    1  0.1588846E-005  0.3258824E+04  0.7818608E-02  0.8173452E-01
         -1   -1    0    0    0  501 -0.00000000000E+00  0.00000000000E+00  0.10661630305E+04  0.10661630305E+04  0.00000000000E+00 0.  1.
          1   -1    0    0  501    0  0.00000000000E+00 -0.00000000000E+00 -0.24902230930E+04  0.24902230930E+04  0.00000000000E+00 0. -1.
         23    2    1    2    0    0 -0.14745228518E+04 -0.38185689533E+02  0.39943876362E+02  0.14781697440E+04  0.87832178332E+02 0.  0.
         13    1    3    3    0    0 -0.12944716314E+04 -0.31116804134E+02  0.62723688096E+01  0.12948607657E+04  0.00000000000E+00 0.  1.
        -13    1    3    3    0    0 -0.18005122042E+03 -0.70688853992E+01  0.33671507552E+02  0.18330897833E+03  0.00000000000E+00 0. -1.
         22    1    1    2    0    0  0.14745228518E+04  0.38185689533E+02 -0.14640039388E+04  0.20782163796E+04  0.00000000000E+00 0. -1.
<mgrwt>
<rscale>  0 0.32588242E+04</rscale>
<asrwt>0</asrwt>
<pdfrwt beam="1">  1        1 0.38311124E+00 0.32588242E+04</pdfrwt>
<pdfrwt beam="2">  1       -1 0.16402508E+00 0.32588242E+04</pdfrwt>
<totfact> 0.31210390E-01</totfact>
</mgrwt>
</event>
<event>
 6    1  0.1588846E-005  0.5658948E+04  0.7818608E-02  0.7734189E-01
         -1   -1    0    0    0  501 -0.00000000000E+00  0.00000000000E+00  0.27632937152E+04  0.27632937152E+04  0.00000000000E+00 0.  1.
          1   -1    0    0  501    0  0.00000000000E+00 -0.00000000000E+00 -0.28972393384E+04  0.28972393384E+04  0.00000000000E+00 0. -1.
         23    2    1    2    0    0  0.14581732425E+04  0.18591619008E+04  0.14888954543E+04  0.27941127526E+04  0.86626913595E+02 0.  0.
         13    1    3    3    0    0  0.26710717870E+03  0.39613574112E+03  0.30765390229E+03  0.56826111419E+03  0.00000000000E+00 0. -1.
        -13    1    3    3    0    0  0.11910660638E+04  0.14630261597E+04  0.11812415520E+04  0.22258516385E+04  0.00000000000E+00 0.  1.
         22    1    1    2    0    0 -0.14581732425E+04 -0.18591619008E+04 -0.16228410775E+04  0.28664203009E+04  0.00000000000E+00 0. -1.
<mgrwt>
<rscale>  0 0.56589480E+04</rscale>
<asrwt>0</asrwt>
<pdfrwt beam="1">  1        1 0.44572913E+00 0.56589480E+04</pdfrwt>
<pdfrwt beam="2">  1       -1 0.42512211E+00 0.56589480E+04</pdfrwt>
<totfact> 0.23430493E-03</totfact>
</mgrwt>
</event>
<event>
 6    1  0.1588846E-005  0.1480337E+04  0.7818608E-02  0.8897635E-01
          2   -1    0    0  501    0  0.00000000000E+00  0.00000000000E+00  0.13908210700E+04  0.13908210700E+04  0.00000000000E+00 0. -1.
         -2   -1    0    0    0  501 -0.00000000000E+00 -0.00000000000E+00 -0.39390341180E+03  0.39390341180E+03  0.00000000000E+00 0.  1.
         23    2    1    2    0    0 -0.13280608336E+03  0.48089013550E+03 -0.15430645559E+03  0.53004932928E+03  0.90824176505E+02 0.  0.
         11    1    3    3    0    0 -0.46860571128E+02  0.31458315716E+03 -0.75226037584E+02  0.32682936316E+03  0.00000000000E+00 0. -1.
        -11    1    3    3    0    0 -0.85945512235E+02  0.16630697834E+03 -0.79080418002E+02  0.20321996612E+03  0.00000000000E+00 0.  1.
         22    1    1    2    0    0  0.13280608336E+03 -0.48089013550E+03  0.11512241138E+04  0.12546751525E+04  0.00000000000E+00 0. -1.
<mgrwt>
<rscale>  0 0.14803367E+04</rscale>
<asrwt>0</asrwt>
<pdfrwt beam="1">  1        2 0.21397247E+00 0.14803367E+04</pdfrwt>
<pdfrwt beam="2">  1       -2 0.60600526E-01 0.14803367E+04</pdfrwt>
<totfact> 0.35936278E+01</totfact>
</mgrwt>
</event>
<event>
 6    1  0.1725686E-005  0.3673011E+04  0.7818608E-02  0.8073969E-01
         -1   -1    0    0    0  501 -0.00000000000E+00  0.00000000000E+00  0.13554067739E+04  0.13554067739E+04  0.00000000000E+00 0.  1.
          1   -1    0    0  501    0  0.00000000000E+00 -0.00000000000E+00 -0.24883695188E+04  0.24883695188E+04  0.00000000000E+00 0. -1.
         23    2    1    2    0    0  0.89759111750E+03  0.76055606538E+03  0.90740139423E+03  0.14885265899E+04  0.90657463461E+02 0.  0.
         13    1    3    3    0    0  0.54094062250E+03  0.40957541731E+03  0.49064711195E+03  0.83731915540E+03  0.00000000000E+00 0.  1.
        -13    1    3    3    0    0  0.35665049501E+03  0.35098064807E+03  0.41675428228E+03  0.65120743447E+03  0.00000000000E+00 0. -1.
         22    1    1    2    0    0 -0.89759111750E+03 -0.76055606538E+03 -0.20403641391E+04  0.23552497029E+04  0.00000000000E+00 0. -1.
<mgrwt>
<rscale>  0 0.36730112E+04</rscale>
<asrwt>0</asrwt>
<pdfrwt beam="1">  1        1 0.38282608E+00 0.36730112E+04</pdfrwt>
<pdfrwt beam="2">  1       -1 0.20852412E+00 0.36730112E+04</pdfrwt>
<totfact> 0.14600268E-01</totfact>
</mgrwt>
</event>
<event>
 6    1  0.1588846E-005  0.6313508E+03  0.7818608E-02  0.9842416E-01
          2   -1    0    0  501    0  0.00000000000E+00  0.00000000000E+00  0.24264474376E+03  0.24264474376E+03  0.00000000000E+00 0. -1.
         -2   -1    0    0    0  501 -0.00000000000E+00 -0.00000000000E+00 -0.41068661491E+03  0.41068661491E+03  0.00000000000E+00 0.  1.
         23    2    1    2    0    0 -0.10232043958E+03 -0.50889959557E+02 -0.38334319257E+03  0.40958165233E+03  0.88010603308E+02 0.  0.
         11    1    3    3    0    0 -0.78671105536E+02 -0.68108051659E+02 -0.21668092114E+03  0.24037152729E+03  0.00000000000E+00 0.  1.
        -11    1    3    3    0    0 -0.23649334049E+02  0.17218092102E+02 -0.16666227143E+03  0.16921012504E+03  0.00000000000E+00 0. -1.
         22    1    1    2    0    0  0.10232043958E+03  0.50889959557E+02  0.21530132142E+03  0.24374970635E+03  0.00000000000E+00 0. -1.
<mgrwt>
<rscale>  0 0.63135077E+03</rscale>
<asrwt>0</asrwt>
<pdfrwt beam="1">  1        2 0.37329961E-01 0.63135077E+03</pdfrwt>
<pdfrwt beam="2">  1       -2 0.63182556E-01 0.63135077E+03</pdfrwt>
<totfact> 0.32610525E+02</totfact>
</mgrwt>
</event>
<event>
 6    1  0.1588846E-005  0.1103378E+04  0.7818608E-02  0.9201906E-01
          1   -1    0    0  501    0  0.00000000000E+00  0.00000000000E+00  0.11847071655E+04  0.11847071655E+04  0.00000000000E+00 0. -1.
         -1   -1    0    0    0  501 -0.00000000000E+00 -0.00000000000E+00 -0.25690795841E+03  0.25690795841E+03  0.00000000000E+00 0.  1.
         23    2    1    2    0    0 -0.62638886746E+02  0.51907534740E+03  0.68113078856E+03  0.86350773325E+03  0.91343351421E+02 0.  0.
         11    1    3    3    0    0 -0.38540809541E+02  0.13911248184E+03  0.13410792447E+03  0.19703454522E+03  0.00000000000E+00 0. -1.
        -11    1    3    3    0    0 -0.24098077206E+02  0.37996286556E+03  0.54702286409E+03  0.66647318803E+03  0.00000000000E+00 0.  1.
         22    1    1    2    0    0  0.62638886746E+02 -0.51907534740E+03  0.24666841849E+03  0.57810739062E+03  0.00000000000E+00 0.  1.
<mgrwt>
<rscale>  0 0.11033779E+04</rscale>
<asrwt>0</asrwt>
<pdfrwt beam="1">  1        1 0.18226264E+00 0.11033779E+04</pdfrwt>
<pdfrwt beam="2">  1       -1 0.39524302E-01 0.11033779E+04</pdfrwt>
<totfact> 0.67965903E+01</totfact>
</mgrwt>
</event>
<event>
 6    1  0.1588846E-005  0.2556655E+04  0.7818608E-02  0.8383075E-01
          2   -1    0    0  501    0  0.00000000000E+00  0.00000000000E+00  0.20565091785E+04  0.20565091785E+04  0.00000000000E+00 0. -1.
         -2   -1    0    0    0  501 -0.00000000000E+00 -0.00000000000E+00 -0.79460953587E+03  0.79460953587E+03  0.00000000000E+00 0.  1.
         23    2    1    2    0    0 -0.62849647235E+03 -0.21853775450E+03  0.18468284774E+04  0.19651682036E+04  0.91345921537E+02 0.  0.
         13    1    3    3    0    0 -0.12253166283E+03 -0.12477892137E+02  0.28228418083E+03  0.30798387123E+03  0.00000000000E+00 0.  1.
        -13    1    3    3    0    0 -0.50596480952E+03 -0.20605986237E+03  0.15645442966E+04  0.16571843323E+04  0.00000000000E+00 0. -1.
         22    1    1    2    0    0  0.62849647235E+03  0.21853775450E+03 -0.58492883477E+03  0.88595051083E+03  0.00000000000E+00 0.  1.
<mgrwt>
<rscale>  0 0.25566555E+04</rscale>
<asrwt>0</asrwt>
<pdfrwt beam="1">  1        2 0.31638603E+00 0.25566555E+04</pdfrwt>
<pdfrwt beam="2">  1       -2 0.12224762E+00 0.25566555E+04</pdfrwt>
<totfact> 0.27966498E+00</totfact>
</mgrwt>
</event>
<event>
 6    1  0.1588846E-005  0.8330406E+03  0.7818608E-02  0.9513386E-01
          1   -1    0    0  501    0  0.00000000000E+00  0.00000000000E+00  0.45291609109E+03  0.45291609109E+03  0.00000000000E+00 0. -1.
         -1   -1    0    0    0  501 -0.00000000000E+00 -0.00000000000E+00 -0.38304922967E+03  0.38304922967E+03  0.00000000000E+00 0.  1.
         23    2    1    2    0    0  0.25144314717E+03  0.21602648865E+02 -0.29038541539E+03  0.39611076110E+03  0.94285284612E+02 0.  0.
         11    1    3    3    0    0  0.24754368364E+03  0.37779141997E+02 -0.25708365431E+03  0.35888319018E+03  0.00000000000E+00 0.  1.
        -11    1    3    3    0    0  0.38994635287E+01 -0.16176493132E+02 -0.33301761078E+02  0.37227570922E+02  0.00000000000E+00 0. -1.
         22    1    1    2    0    0 -0.25144314717E+03 -0.21602648865E+02  0.36025227681E+03  0.43985455965E+03  0.00000000000E+00 0. -1.
<mgrwt>
<rscale>  0 0.83304060E+03</rscale>
<asrwt>0</asrwt>
<pdfrwt beam="1">  1        1 0.69679398E-01 0.83304060E+03</pdfrwt>
<pdfrwt beam="2">  1       -1 0.58930651E-01 0.83304060E+03</pdfrwt>
<totfact> 0.14975069E+02</totfact>
</mgrwt>
</event>
<event>
 6    1  0.1588846E-005  0.1957596E+04  0.7818608E-02  0.8626706E-01
          2   -1    0    0  501    0  0.00000000000E+00  0.00000000000E+00  0.87163672691E+03  0.87163672691E+03  0.00000000000E+00 0. -1.
         -2   -1    0    0    0  501 -0.00000000000E+00 -0.00000000000E+00 -0.10991344448E+04  0.10991344448E+04  0.00000000000E+00 0.  1.
         23    2    1    2    0    0 -0.84252724320E+03 -0.46619150534E+03  0.50539774049E+02  0.96852792672E+03  0.91133972260E+02 0.  0.
         11    1    3    3    0    0 -0.38484404573E+03 -0.18031605285E+03 -0.12865482427E+02  0.42518741642E+03  0.00000000000E+00 0.  1.
        -11    1    3    3    0    0 -0.45768319747E+03 -0.28587545249E+03  0.63405256476E+02  0.54334051030E+03  0.00000000000E+00 0. -1.
         22    1    1    2    0    0  0.84252724320E+03  0.46619150534E+03 -0.27803749192E+03  0.10022432450E+04  0.00000000000E+00 0.  1.
<mgrwt>
<rscale>  0 0.19575964E+04</rscale>
<asrwt>0</asrwt>
<pdfrwt beam="1">  1        2 0.13409796E+00 0.19575964E+04</pdfrwt>
<pdfrwt beam="2">  1       -2 0.16909761E+00 0.19575964E+04</pdfrwt>
<totfact> 0.61805586E+00</totfact>
</mgrwt>
</event>
<event>
 6    1  0.1588846E-005  0.4599657E+04  0.7818608E-02  0.7893418E-01
         -1   -1    0    0    0  501 -0.00000000000E+00  0.00000000000E+00  0.42917446230E+04  0.42917446230E+04  0.00000000000E+00 0.  1.
          1   -1    0    0  501    0  0.00000000000E+00 -0.00000000000E+00 -0.12324152644E+04  0.12324152644E+04  0.00000000000E+00 0. -1.
         23    2    1    2    0    0  0.15543357429E+04 -0.71633084102E+02 -0.50226063670E+03  0.16375142649E+04  0.89979553850E+02 0.  0.
         13    1    3    3    0    0  0.10951132276E+04 -0.28887958633E+02 -0.38996167085E+03  0.11628317162E+04  0.00000000000E+00 0. -1.
        -13    1    3    3    0    0  0.45922251532E+03 -0.42745125468E+02 -0.11229896585E+03  0.47468254872E+03  0.00000000000E+00 0.  1.
         22    1    1    2    0    0 -0.15543357429E+04  0.71633084102E+02  0.35615899953E+04  0.38866456225E+04  0.00000000000E+00 0.  1.
<mgrwt>
<rscale>  0 0.45996572E+04</rscale>
<asrwt>0</asrwt>
<pdfrwt beam="1">  1        1 0.18960235E+00 0.45996572E+04</pdfrwt>
<pdfrwt beam="2">  1       -1 0.66026840E+00 0.45996572E+04</pdfrwt>
<totfact> 0.20575304E-03</totfact>
</mgrwt>
</event>
<event>
 6    1  0.1588846E-005  0.2422232E+04  0.7818608E-02  0.8431227E-01
          2   -1    0    0  501    0  0.00000000000E+00  0.00000000000E+00  0.16234035215E+04  0.16234035215E+04  0.00000000000E+00 0. -1.
         -2   -1    0    0    0  501 -0.00000000000E+00 -0.00000000000E+00 -0.90353502789E+03  0.90353502789E+03  0.00000000000E+00 0.  1.
         23    2    1    2    0    0  0.90945091956E+03  0.49877709923E+03  0.10092863463E+04  0.14500716759E+04  0.90384548251E+02 0.  0.
         11    1    3    3    0    0  0.35613364889E+02  0.34851039442E+02  0.69475269635E+02  0.85496899357E+02  0.00000000000E+00 0. -1.
        -11    1    3    3    0    0  0.87383755467E+03  0.46392605979E+03  0.93981107662E+03  0.13645747765E+04  0.00000000000E+00 0.  1.
         22    1    1    2    0    0 -0.90945091956E+03 -0.49877709923E+03 -0.28941785268E+03  0.10768668735E+04  0.00000000000E+00 0.  1.
<mgrwt>
<rscale>  0 0.24222320E+04</rscale>
<asrwt>0</asrwt>
<pdfrwt beam="1">  1        2 0.24975439E+00 0.24222320E+04</pdfrwt>
<pdfrwt beam="2">  1       -2 0.13900539E+00 0.24222320E+04</pdfrwt>
<totfact> 0.35541928E+00</totfact>
</mgrwt>
</event>
<event>
 6    1  0.1588846E-005  0.2523940E+04  0.7818608E-02  0.8394506E-01
          2   -1    0    0  501    0  0.00000000000E+00  0.00000000000E+00  0.19622294985E+04  0.19622294985E+04  0.00000000000E+00 0. -1.
         -2   -1    0    0    0  501 -0.00000000000E+00 -0.00000000000E+00 -0.81161190179E+03  0.81161190179E+03  0.00000000000E+00 0.  1.
         23    2    1    2    0    0  0.29998596298E+03  0.11505080525E+04  0.11647931578E+03  0.11980551391E+04  0.90046257934E+02 0.  0.
         13    1    3    3    0    0  0.10248545271E+03  0.55575244572E+03  0.73666191279E+02  0.56990416447E+03  0.00000000000E+00 0.  1.
        -13    1    3    3    0    0  0.19750051027E+03  0.59475560676E+03  0.42813124501E+02  0.62815097465E+03  0.00000000000E+00 0. -1.
         22    1    1    2    0    0 -0.29998596298E+03 -0.11505080525E+04  0.10341382809E+04  0.15757862611E+04  0.00000000000E+00 0. -1.
<mgrwt>
<rscale>  0 0.25239404E+04</rscale>
<asrwt>0</asrwt>
<pdfrwt beam="1">  1        2 0.30188146E+00 0.25239404E+04</pdfrwt>
<pdfrwt beam="2">  1       -2 0.12486337E+00 0.25239404E+04</pdfrwt>
<totfact> 0.30011998E+00</totfact>
</mgrwt>
</event>
<event>
 6    1  0.1588846E-005  0.2053640E+04  0.7818608E-02  0.8581945E-01
         -2   -1    0    0    0  501 -0.00000000000E+00  0.00000000000E+00  0.13063198381E+04  0.13063198381E+04  0.00000000000E+00 0. -1.
          2   -1    0    0  501    0  0.00000000000E+00 -0.00000000000E+00 -0.80712191425E+03  0.80712191425E+03  0.00000000000E+00 0.  1.
         23    2    1    2    0    0 -0.69859751644E+03 -0.63286507669E+03 -0.16353912076E+03  0.96114965156E+03  0.92232930188E+02 0.  0.
         11    1    3    3    0    0 -0.39796905218E+03 -0.34242888546E+03 -0.46504315729E+02  0.52706694022E+03  0.00000000000E+00 0. -1.
        -11    1    3    3    0    0 -0.30062846426E+03 -0.29043619123E+03 -0.11703480503E+03  0.43408271134E+03  0.00000000000E+00 0.  1.
         22    1    1    2    0    0  0.69859751644E+03  0.63286507669E+03  0.66273704465E+03  0.11522921008E+04  0.00000000000E+00 0. -1.
<mgrwt>
<rscale>  0 0.20536401E+04</rscale>
<asrwt>0</asrwt>
<pdfrwt beam="1">  1        2 0.12417260E+00 0.20536401E+04</pdfrwt>
<pdfrwt beam="2">  1       -2 0.20097228E+00 0.20536401E+04</pdfrwt>
<totfact> 0.41248756E+00</totfact>
</mgrwt>
</event>
<event>
 6    1  0.1588846E-005  0.1018570E+04  0.7818608E-02  0.9288409E-01
         -1   -1    0    0    0  501 -0.00000000000E+00  0.00000000000E+00  0.52020957175E+03  0.52020957175E+03  0.00000000000E+00 0.  1.
          1   -1    0    0  501    0  0.00000000000E+00 -0.00000000000E+00 -0.49858979762E+03  0.49858979762E+03  0.00000000000E+00 0. -1.
         23    2    1    2    0    0 -0.18680033434E+03 -0.30370832661E+03 -0.34697360928E+03  0.50596977306E+03  0.92095673873E+02 0.  0.
         11    1    3    3    0    0 -0.51547945186E+02 -0.16270943656E+03 -0.13438239926E+03  0.21723300999E+03  0.00000000000E+00 0.  1.
        -11    1    3    3    0    0 -0.13525238916E+03 -0.14099889005E+03 -0.21259121002E+03  0.28873676307E+03  0.00000000000E+00 0. -1.
         22    1    1    2    0    0  0.18680033434E+03  0.30370832661E+03  0.36859338340E+03  0.51282959631E+03  0.00000000000E+00 0.  1.
<mgrwt>
<rscale>  0 0.10185699E+04</rscale>
<asrwt>0</asrwt>
<pdfrwt beam="1">  1        1 0.76706123E-01 0.10185699E+04</pdfrwt>
<pdfrwt beam="2">  1       -1 0.80032242E-01 0.10185699E+04</pdfrwt>
<totfact> 0.69497206E+01</totfact>
</mgrwt>
</event>
<event>
 6    1  0.2391251E-005  0.5312160E+04  0.7818608E-02  0.7782078E-01
          2   -1    0    0  501    0  0.00000000000E+00  0.00000000000E+00  0.25199675041E+04  0.25199675041E+04  0.00000000000E+00 0.  1.
         -2   -1    0    0    0  501 -0.00000000000E+00 -0.00000000000E+00 -0.27995444826E+04  0.27995444826E+04  0.00000000000E+00 0. -1.
         23    2    1    2    0    0 -0.10756531200E+04 -0.11780288638E+04 -0.22654787559E+04  0.27722413870E+04  0.90258936718E+02 0.  0.
         13    1    3    3    0    0 -0.54528448583E+03 -0.58209295612E+03 -0.12089085397E+04  0.14483187624E+04  0.00000000000E+00 0.  1.
        -13    1    3    3    0    0 -0.53036863414E+03 -0.59593590766E+03 -0.10565702162E+04  0.13239226246E+04  0.00000000000E+00 0. -1.
         22    1    1    2    0    0  0.10756531200E+04  0.11780288638E+04  0.19859017775E+04  0.25472705997E+04  0.00000000000E+00 0.  1.
<mgrwt>
<rscale>  0 0.53121601E+04</rscale>
<asrwt>0</asrwt>
<pdfrwt beam="1">  1        2 0.38768731E+00 0.53121601E+04</pdfrwt>
<pdfrwt beam="2">  1       -2 0.43069915E+00 0.53121601E+04</pdfrwt>
<totfact> 0.11240128E-02</totfact>
</mgrwt>
</event>
<event>
 6    1  0.1588846E-005  0.1199862E+04  0.7818608E-02  0.9112977E-01
         -2   -1    0    0    0  501 -0.00000000000E+00  0.00000000000E+00  0.19597799133E+03  0.19597799133E+03  0.00000000000E+00 0.  1.
          2   -1    0    0  501    0  0.00000000000E+00 -0.00000000000E+00 -0.18365184545E+04  0.18365184545E+04  0.00000000000E+00 0. -1.
         23    2    1    2    0    0 -0.31121693897E+03  0.35070958681E+03 -0.14501407318E+04  0.15264280166E+04  0.84977351565E+02 0.  0.
         13    1    3    3    0    0 -0.16840702640E+03  0.20443029112E+03 -0.68427007531E+03  0.73374260230E+03  0.00000000000E+00 0.  1.
        -13    1    3    3    0    0 -0.14280991257E+03  0.14627929569E+03 -0.76587065652E+03  0.79268541426E+03  0.00000000000E+00 0. -1.
         22    1    1    2    0    0  0.31121693897E+03 -0.35070958681E+03 -0.19039973130E+03  0.50606842923E+03  0.00000000000E+00 0.  1.
<mgrwt>
<rscale>  0 0.11998620E+04</rscale>
<asrwt>0</asrwt>
<pdfrwt beam="1">  1        2 0.28254130E+00 0.11998620E+04</pdfrwt>
<pdfrwt beam="2">  1       -2 0.30150460E-01 0.11998620E+04</pdfrwt>
<totfact> 0.82587171E+01</totfact>
</mgrwt>
</event>
<event>
 6    1  0.1588846E-005  0.4625294E+04  0.7818608E-02  0.7889061E-01
          2   -1    0    0  501    0  0.00000000000E+00  0.00000000000E+00  0.23668192074E+04  0.23668192074E+04  0.00000000000E+00 0. -1.
         -2   -1    0    0    0  501 -0.00000000000E+00 -0.00000000000E+00 -0.22597148924E+04  0.22597148924E+04  0.00000000000E+00 0.  1.
         23    2    1    2    0    0 -0.65471612046E+03  0.14191448875E+03  0.22667093803E+04  0.23654089467E+04  0.91625050777E+02 0.  0.
         11    1    3    3    0    0 -0.42608529647E+03  0.11988125192E+03  0.13688170104E+04  0.14386035598E+04  0.00000000000E+00 0. -1.
        -11    1    3    3    0    0 -0.22863082399E+03  0.22033236833E+02  0.89789236988E+03  0.92680538685E+03  0.00000000000E+00 0.  1.
         22    1    1    2    0    0  0.65471612046E+03 -0.14191448875E+03 -0.21596050653E+04  0.22611251532E+04  0.00000000000E+00 0.  1.
<mgrwt>
<rscale>  0 0.46252942E+04</rscale>
<asrwt>0</asrwt>
<pdfrwt beam="1">  1        2 0.36412603E+00 0.46252942E+04</pdfrwt>
<pdfrwt beam="2">  1       -2 0.34764845E+00 0.46252942E+04</pdfrwt>
<totfact> 0.50151771E-02</totfact>
</mgrwt>
</event>
<event>
 6    1  0.1588846E-005  0.4286743E+04  0.7818608E-02  0.7949074E-01
         -2   -1    0    0    0  501 -0.00000000000E+00  0.00000000000E+00  0.19905950375E+04  0.19905950375E+04  0.00000000000E+00 0.  1.
          2   -1    0    0  501    0  0.00000000000E+00 -0.00000000000E+00 -0.23078734804E+04  0.23078734804E+04  0.00000000000E+00 0. -1.
         23    2    1    2    0    0  0.62928913637E+03  0.20250576118E+04 -0.46457910825E+03  0.21727778926E+04  0.90922354421E+02 0.  0.
         13    1    3    3    0    0  0.29890134533E+03  0.10495689803E+04 -0.20086997873E+03  0.11096331858E+04  0.00000000000E+00 0. -1.
        -13    1    3    3    0    0  0.33038779104E+03  0.97548863156E+03 -0.26370912952E+03  0.10631447069E+04  0.00000000000E+00 0.  1.
         22    1    1    2    0    0 -0.62928913637E+03 -0.20250576118E+04  0.14730066540E+03  0.21256906253E+04  0.00000000000E+00 0. -1.
<mgrwt>
<rscale>  0 0.42867431E+04</rscale>
<asrwt>0</asrwt>
<pdfrwt beam="1">  1        2 0.35505746E+00 0.42867431E+04</pdfrwt>
<pdfrwt beam="2">  1       -2 0.30624539E+00 0.42867431E+04</pdfrwt>
<totfact> 0.10066130E-01</totfact>
</mgrwt>
</event>
<event>
 6    1  0.1588846E-005  0.5825096E+03  0.7818608E-02  0.9942373E-01
         -1   -1    0    0    0  501 -0.00000000000E+00  0.00000000000E+00  0.21769023779E+03  0.21769023779E+03  0.00000000000E+00 0.  1.
          1   -1    0    0  501    0  0.00000000000E+00 -0.00000000000E+00 -0.38967914990E+03  0.38967914990E+03  0.00000000000E+00 0. -1.
         23    2    1    2    0    0  0.13572878696E+03 -0.12196364956E+03  0.13870130825E+03  0.24705584582E+03  0.92201424163E+02 0.  0.
         11    1    3    3    0    0  0.10313592801E+03 -0.12361082002E+03  0.14145701027E+03  0.21430525011E+03  0.00000000000E+00 0.  1.
        -11    1    3    3    0    0  0.32592858959E+02  0.16471704629E+01 -0.27557020119E+01  0.32750595708E+02  0.00000000000E+00 0. -1.
         22    1    1    2    0    0 -0.13572878696E+03  0.12196364956E+03 -0.31069022036E+03  0.36031354187E+03  0.00000000000E+00 0. -1.
<mgrwt>
<rscale>  0 0.58250956E+03</rscale>
<asrwt>0</asrwt>
<pdfrwt beam="1">  1        1 0.59950638E-01 0.58250956E+03</pdfrwt>
<pdfrwt beam="2">  1       -1 0.33490806E-01 0.58250956E+03</pdfrwt>
<totfact> 0.52707069E+02</totfact>
</mgrwt>
</event>
<event>
 6    1  0.1588846E-005  0.1882042E+04  0.7818608E-02  0.8663847E-01
         -1   -1    0    0    0  501 -0.00000000000E+00  0.00000000000E+00  0.53086638748E+03  0.53086638748E+03  0.00000000000E+00 0.  1.
          1   -1    0    0  501    0  0.00000000000E+00 -0.00000000000E+00 -0.16680666946E+04  0.16680666946E+04  0.00000000000E+00 0. -1.
         23    2    1    2    0    0 -0.19623803345E+03  0.72172962968E+03 -0.12327649194E+04  0.14449200721E+04  0.93175341964E+02 0.  0.
         11    1    3    3    0    0 -0.62285904932E+02  0.39745917806E+03 -0.68610833927E+03  0.79536028653E+03  0.00000000000E+00 0. -1.
        -11    1    3    3    0    0 -0.13395212851E+03  0.32427045162E+03 -0.54665658009E+03  0.64955978561E+03  0.00000000000E+00 0.  1.
         22    1    1    2    0    0  0.19623803345E+03 -0.72172962968E+03  0.95564612197E+02  0.75401300999E+03  0.00000000000E+00 0.  1.
<mgrwt>
<rscale>  0 0.18820420E+04</rscale>
<asrwt>0</asrwt>
<pdfrwt beam="1">  1        1 0.25662565E+00 0.18820420E+04</pdfrwt>
<pdfrwt beam="2">  1       -1 0.81671752E-01 0.18820420E+04</pdfrwt>
<totfact> 0.70077775E+00</totfact>
</mgrwt>
</event>
<event>
 6    1  0.1588846E-005  0.1786405E+04  0.7818608E-02  0.8713563E-01
          2   -1    0    0  501    0  0.00000000000E+00  0.00000000000E+00  0.34823787251E+03  0.34823787251E+03  0.00000000000E+00 0. -1.
         -2   -1    0    0    0  501 -0.00000000000E+00 -0.00000000000E+00 -0.22909937400E+04  0.22909937400E+04  0.00000000000E+00 0.  1.
         23    2    1    2    0    0  0.64609140516E+03  0.49265740146E+03 -0.15151800580E+04  0.17210995458E+04  0.79168297672E+02 0.  0.
         13    1    3    3    0    0  0.18051041718E+03  0.12003196771E+03 -0.33902727098E+03  0.40240672764E+03  0.00000000000E+00 0. -1.
        -13    1    3    3    0    0  0.46558098798E+03  0.37262543375E+03 -0.11761527871E+04  0.13186928182E+04  0.00000000000E+00 0.  1.
         22    1    1    2    0    0 -0.64609140516E+03 -0.49265740146E+03 -0.42757580945E+03  0.91813206668E+03  0.00000000000E+00 0. -1.
<mgrwt>
<rscale>  0 0.17864051E+04</rscale>
<asrwt>0</asrwt>
<pdfrwt beam="1">  1        2 0.53575057E-01 0.17864051E+04</pdfrwt>
<pdfrwt beam="2">  1       -2 0.35246058E+00 0.17864051E+04</pdfrwt>
<totfact> 0.13236543E+00</totfact>
</mgrwt>
</event>
<event>
 6    1  0.1588846E-005  0.5483054E+03  0.7818608E-02  0.1001887E+00
         -3   -1    0    0    0  501 -0.00000000000E+00  0.00000000000E+00  0.12048665377E+03  0.12048665377E+03  0.00000000000E+00 0.  1.
          3   -1    0    0  501    0  0.00000000000E+00 -0.00000000000E+00 -0.62380109686E+03  0.62380109686E+03  0.00000000000E+00 0. -1.
         23    2    1    2    0    0  0.62972740202E+02 -0.17459001869E+01 -0.61023569123E+03  0.62018792194E+03  0.90977170203E+02 0.  0.
         13    1    3    3    0    0 -0.15007437566E+02 -0.24623856411E+02 -0.13394974794E+03  0.13701858436E+03  0.00000000000E+00 0. -1.
        -13    1    3    3    0    0  0.77980177767E+02  0.22877956224E+02 -0.47628594329E+03  0.48316933758E+03  0.00000000000E+00 0.  1.
         22    1    1    2    0    0 -0.62972740202E+02  0.17459001869E+01  0.10692124815E+03  0.12409982869E+03  0.00000000000E+00 0.  1.
<mgrwt>
<rscale>  0 0.54830541E+03</rscale>
<asrwt>0</asrwt>
<pdfrwt beam="1">  1        3 0.95969400E-01 0.54830541E+03</pdfrwt>
<pdfrwt beam="2">  1       -3 0.18536408E-01 0.54830541E+03</pdfrwt>
<totfact> 0.66449921E+01</totfact>
</mgrwt>
</event>
<event>
 6    1  0.1588846E-005  0.5277406E+04  0.7818608E-02  0.7787084E-01
          2   -1    0    0  501    0  0.00000000000E+00  0.00000000000E+00  0.16340238354E+04  0.16340238354E+04  0.00000000000E+00 0. -1.
         -2   -1    0    0    0  501 -0.00000000000E+00 -0.00000000000E+00 -0.42611081359E+04  0.42611081359E+04  0.00000000000E+00 0.  1.
         23    2    1    2    0    0 -0.21784584017E+04  0.10981764946E+04 -0.24359043402E+04  0.34480475023E+04  0.61065557018E+02 0.  0.
         11    1    3    3    0    0 -0.19412261480E+04  0.96650638242E+03 -0.21870588970E+04  0.30798896350E+04  0.00000000000E+00 0. -1.
        -11    1    3    3    0    0 -0.23723225371E+03  0.13167011222E+03 -0.24884544322E+03  0.36815786731E+03  0.00000000000E+00 0.  1.
         22    1    1    2    0    0  0.21784584017E+04 -0.10981764946E+04 -0.19117996022E+03  0.24470844690E+04  0.00000000000E+00 0. -1.
<mgrwt>
<rscale>  0 0.52774055E+04</rscale>
<asrwt>0</asrwt>
<pdfrwt beam="1">  1        2 0.25138828E+00 0.52774055E+04</pdfrwt>
<pdfrwt beam="2">  1       -2 0.65555509E+00 0.52774055E+04</pdfrwt>
<totfact> 0.24799423E-03</totfact>
</mgrwt>
</event>
<event>
 6    1  0.1588846E-005  0.2906862E+04  0.7818608E-02  0.8270839E-01
          1   -1    0    0  501    0  0.00000000000E+00  0.00000000000E+00  0.11564904303E+04  0.11564904303E+04  0.00000000000E+00 0. -1.
         -1   -1    0    0    0  501 -0.00000000000E+00 -0.00000000000E+00 -0.18266145156E+04  0.18266145156E+04  0.00000000000E+00 0.  1.
         23    2    1    2    0    0 -0.37976735072E+02  0.55876254771E+03  0.10393331562E+04  0.11842436734E+04  0.92530272663E+02 0.  0.
         13    1    3    3    0    0 -0.26728151085E+02  0.35712157307E+03  0.56807236956E+03  0.67153289500E+03  0.00000000000E+00 0. -1.
        -13    1    3    3    0    0 -0.11248583987E+02  0.20164097464E+03  0.47126078661E+03  0.51271077840E+03  0.00000000000E+00 0.  1.
         22    1    1    2    0    0  0.37976735072E+02 -0.55876254771E+03 -0.17094572415E+04  0.17988612725E+04  0.00000000000E+00 0.  1.
<mgrwt>
<rscale>  0 0.29068624E+04</rscale>
<asrwt>0</asrwt>
<pdfrwt beam="1">  1        1 0.17792160E+00 0.29068624E+04</pdfrwt>
<pdfrwt beam="2">  1       -1 0.28101762E+00 0.29068624E+04</pdfrwt>
<totfact> 0.43258614E-01</totfact>
</mgrwt>
</event>
<event>
 6    1  0.1588846E-005  0.2499961E+04  0.7818608E-02  0.8403000E-01
         -1   -1    0    0    0  501 -0.00000000000E+00  0.00000000000E+00  0.28705809677E+04  0.28705809677E+04  0.00000000000E+00 0.  1.
          1   -1    0    0  501    0  0.00000000000E+00 -0.00000000000E+00 -0.54429782420E+03  0.54429782420E+03  0.00000000000E+00 0. -1.
         23    2    1    2    0    0  0.57475628895E+02 -0.12465712322E+04  0.12028945275E+04  0.17358179629E+04  0.94156631609E+02 0.  0.
         13    1    3    3    0    0 -0.63853058657E+01 -0.60355195479E+03  0.53614829491E+03  0.80732318708E+03  0.00000000000E+00 0.  1.
        -13    1    3    3    0    0  0.63860934761E+02 -0.64301927740E+03  0.66674623257E+03  0.92849477583E+03  0.00000000000E+00 0. -1.
         22    1    1    2    0    0 -0.57475628895E+02  0.12465712322E+04  0.11233886160E+04  0.16790608290E+04  0.00000000000E+00 0.  1.
<mgrwt>
<rscale>  0 0.24999608E+04</rscale>
<asrwt>0</asrwt>
<pdfrwt beam="1">  1        1 0.83738128E-01 0.24999608E+04</pdfrwt>
<pdfrwt beam="2">  1       -1 0.44162783E+00 0.24999608E+04</pdfrwt>
<totfact> 0.12919398E-01</totfact>
</mgrwt>
</event>
<event>
 6    1  0.1588846E-005  0.1185606E+04  0.7818608E-02  0.9125550E-01
          2   -1    0    0  501    0  0.00000000000E+00  0.00000000000E+00  0.14907832520E+04  0.14907832520E+04  0.00000000000E+00 0. -1.
         -2   -1    0    0    0  501 -0.00000000000E+00 -0.00000000000E+00 -0.23572536905E+03  0.23572536905E+03  0.00000000000E+00 0.  1.
         23    2    1    2    0    0 -0.11596699380E+02  0.54493336797E+03  0.95760905977E+03  0.11055716988E+04  0.90480997749E+02 0.  0.
         13    1    3    3    0    0 -0.46708036028E+02  0.20021391225E+03  0.37769027719E+03  0.43001999578E+03  0.00000000000E+00 0. -1.
        -13    1    3    3    0    0  0.35111336648E+02  0.34471945572E+03  0.57991878258E+03  0.67555170306E+03  0.00000000000E+00 0.  1.
         22    1    1    2    0    0  0.11596699380E+02 -0.54493336797E+03  0.29744882321E+03  0.62093692224E+03  0.00000000000E+00 0. -1.
<mgrwt>
<rscale>  0 0.11856061E+04</rscale>
<asrwt>0</asrwt>
<pdfrwt beam="1">  1        2 0.22935126E+00 0.11856061E+04</pdfrwt>
<pdfrwt beam="2">  1       -2 0.36265442E-01 0.11856061E+04</pdfrwt>
<totfact> 0.90736796E+01</totfact>
</mgrwt>
</event>
<event>
 6    1  0.1588846E-005  0.1091800E+04  0.7818608E-02  0.9213221E-01
          2   -1    0    0  501    0  0.00000000000E+00  0.00000000000E+00  0.11693145675E+04  0.11693145675E+04  0.00000000000E+00 0. -1.
         -2   -1    0    0    0  501 -0.00000000000E+00 -0.00000000000E+00 -0.25485607195E+03  0.25485607195E+03  0.00000000000E+00 0.  1.
         23    2    1    2    0    0 -0.23926557263E+03  0.31764932671E+03  0.94091165354E+03  0.10256121386E+04  0.91740994350E+02 0.  0.
         11    1    3    3    0    0 -0.23309017834E+03  0.30601826553E+03  0.84058454799E+03  0.92442446549E+03  0.00000000000E+00 0.  1.
        -11    1    3    3    0    0 -0.61753942882E+01  0.11631061182E+02  0.10032710555E+03  0.10118767310E+03  0.00000000000E+00 0. -1.
         22    1    1    2    0    0  0.23926557263E+03 -0.31764932671E+03 -0.26453158030E+02  0.39855850082E+03  0.00000000000E+00 0.  1.
<mgrwt>
<rscale>  0 0.10918002E+04</rscale>
<asrwt>0</asrwt>
<pdfrwt beam="1">  1        2 0.17989455E+00 0.10918002E+04</pdfrwt>
<pdfrwt beam="2">  1       -2 0.39208627E-01 0.10918002E+04</pdfrwt>
<totfact> 0.12063245E+02</totfact>
</mgrwt>
</event>
<event>
 6    1  0.1588846E-005  0.1938883E+04  0.7818608E-02  0.8635740E-01
         -1   -1    0    0    0  501 -0.00000000000E+00  0.00000000000E+00  0.59620825958E+03  0.59620825958E+03  0.00000000000E+00 0.  1.
          1   -1    0    0  501    0  0.00000000000E+00 -0.00000000000E+00 -0.15763236449E+04  0.15763236449E+04  0.00000000000E+00 0. -1.
         23    2    1    2    0    0 -0.59394564765E+03  0.37396648680E+03  0.25475855711E+03  0.75213195401E+03  0.90433335743E+02 0.  0.
         11    1    3    3    0    0 -0.55041205863E+03  0.36699555592E+03  0.25214528961E+03  0.70796639709E+03  0.00000000000E+00 0. -1.
        -11    1    3    3    0    0 -0.43533589020E+02  0.69709308806E+01  0.26132674971E+01  0.44165556911E+02  0.00000000000E+00 0.  1.
         22    1    1    2    0    0  0.59394564765E+03 -0.37396648680E+03 -0.12348739424E+04  0.14203999505E+04  0.00000000000E+00 0. -1.
<mgrwt>
<rscale>  0 0.19388834E+04</rscale>
<asrwt>0</asrwt>
<pdfrwt beam="1">  1        1 0.24251133E+00 0.19388834E+04</pdfrwt>
<pdfrwt beam="2">  1       -1 0.91724349E-01 0.19388834E+04</pdfrwt>
<totfact> 0.62565465E+00</totfact>
</mgrwt>
</event>
<event>
 6    1  0.1588846E-005  0.1619499E+04  0.7818608E-02  0.8808658E-01
          2   -1    0    0  501    0  0.00000000000E+00  0.00000000000E+00  0.17893345041E+04  0.17893345041E+04  0.00000000000E+00 0. -1.
         -2   -1    0    0    0  501 -0.00000000000E+00 -0.00000000000E+00 -0.36644585936E+03  0.36644585936E+03  0.00000000000E+00 0.  1.
         23    2    1    2    0    0  0.38038327164E+03 -0.18302209761E+03  0.16292869123E+04  0.16858987119E+04  0.97417158575E+02 0.  0.
         11    1    3    3    0    0  0.11451372978E+03 -0.78848991959E+01  0.41910592297E+03  0.43454037858E+03  0.00000000000E+00 0. -1.
        -11    1    3    3    0    0  0.26586954187E+03 -0.17513719841E+03  0.12101809893E+04  0.12513583334E+04  0.00000000000E+00 0.  1.
         22    1    1    2    0    0 -0.38038327164E+03  0.18302209761E+03 -0.20639826757E+03  0.46988165150E+03  0.00000000000E+00 0.  1.
<mgrwt>
<rscale>  0 0.16194990E+04</rscale>
<asrwt>0</asrwt>
<pdfrwt beam="1">  1        2 0.27528223E+00 0.16194990E+04</pdfrwt>
<pdfrwt beam="2">  1       -2 0.56376287E-01 0.16194990E+04</pdfrwt>
<totfact> 0.24728558E+01</totfact>
</mgrwt>
</event>
<event>
 6    1  0.1588846E-005  0.3186880E+04  0.7818608E-02  0.8192291E-01
          2   -1    0    0  501    0  0.00000000000E+00  0.00000000000E+00  0.27973748572E+04  0.27973748572E+04  0.00000000000E+00 0. -1.
         -2   -1    0    0    0  501 -0.00000000000E+00 -0.00000000000E+00 -0.90765500787E+03  0.90765500787E+03  0.00000000000E+00 0.  1.
         23    2    1    2    0    0 -0.10293116919E+04  0.35146948668E+03  0.22974330565E+04  0.25434604877E+04  0.89326615778E+02 0.  0.
         13    1    3    3    0    0 -0.51952653728E+03  0.14983909283E+03  0.10563306429E+04  0.11866735035E+04  0.00000000000E+00 0.  1.
        -13    1    3    3    0    0 -0.50978515465E+03  0.20163039386E+03  0.12411024135E+04  0.13567869842E+04  0.00000000000E+00 0. -1.
         22    1    1    2    0    0  0.10293116919E+04 -0.35146948668E+03 -0.40771320714E+03  0.11615693774E+04  0.00000000000E+00 0.  1.
<mgrwt>
<rscale>  0 0.31868802E+04</rscale>
<asrwt>0</asrwt>
<pdfrwt beam="1">  1        2 0.43036536E+00 0.31868802E+04</pdfrwt>
<pdfrwt beam="2">  1       -2 0.13963923E+00 0.31868802E+04</pdfrwt>
<totfact> 0.70706930E-01</totfact>
</mgrwt>
</event>
<event>
 6    1  0.1588846E-005  0.3734365E+04  0.7818608E-02  0.8060388E-01
          2   -1    0    0  501    0  0.00000000000E+00  0.00000000000E+00  0.11463728892E+04  0.11463728892E+04  0.00000000000E+00 0. -1.
         -2   -1    0    0    0  501 -0.00000000000E+00 -0.00000000000E+00 -0.30412187778E+04  0.30412187778E+04  0.00000000000E+00 0.  1.
         23    2    1    2    0    0  0.11127488439E+04  0.12647097587E+04 -0.47687606572E+02  0.16876527714E+04  0.90537315226E+02 0.  0.
         11    1    3    3    0    0  0.94231777915E+03  0.10997985641E+04 -0.15833795730E+02  0.14483681809E+04  0.00000000000E+00 0. -1.
        -11    1    3    3    0    0  0.17043106474E+03  0.16491119465E+03 -0.31853810842E+02  0.23928459042E+03  0.00000000000E+00 0.  1.
         22    1    1    2    0    0 -0.11127488439E+04 -0.12647097587E+04 -0.18471582820E+04  0.24999388957E+04  0.00000000000E+00 0. -1.
<mgrwt>
<rscale>  0 0.37343651E+04</rscale>
<asrwt>0</asrwt>
<pdfrwt beam="1">  1        2 0.17636506E+00 0.37343651E+04</pdfrwt>
<pdfrwt beam="2">  1       -2 0.46787981E+00 0.37343651E+04</pdfrwt>
<totfact> 0.43524319E-02</totfact>
</mgrwt>
</event>
<event>
 6    1  0.1588846E-005  0.2370704E+04  0.7818608E-02  0.8450554E-01
          1   -1    0    0  501    0  0.00000000000E+00  0.00000000000E+00  0.92908003863E+03  0.92908003863E+03  0.00000000000E+00 0. -1.
         -1   -1    0    0    0  501 -0.00000000000E+00 -0.00000000000E+00 -0.15123125302E+04  0.15123125302E+04  0.00000000000E+00 0.  1.
         23    2    1    2    0    0 -0.25134835625E+03 -0.29543795517E+03  0.86010157319E+03  0.94684487671E+03  0.79252273198E+02 0.  0.
         13    1    3    3    0    0 -0.11517381502E+03 -0.14669450259E+03  0.50696903369E+03  0.54018689902E+03  0.00000000000E+00 0.  1.
        -13    1    3    3    0    0 -0.13617454122E+03 -0.14874345257E+03  0.35313253950E+03  0.40665797769E+03  0.00000000000E+00 0. -1.
         22    1    1    2    0    0  0.25134835625E+03  0.29543795517E+03 -0.14433340647E+04  0.14945476921E+04  0.00000000000E+00 0.  1.
<mgrwt>
<rscale>  0 0.23707040E+04</rscale>
<asrwt>0</asrwt>
<pdfrwt beam="1">  1        1 0.14293539E+00 0.23707040E+04</pdfrwt>
<pdfrwt beam="2">  1       -1 0.23266347E+00 0.23707040E+04</pdfrwt>
<totfact> 0.14028300E+00</totfact>
</mgrwt>
</event>
<event>
 6    1  0.1588846E-005  0.2132334E+04  0.7818608E-02  0.8547132E-01
         -2   -1    0    0    0  501 -0.00000000000E+00  0.00000000000E+00  0.13420105438E+04  0.13420105438E+04  0.00000000000E+00 0.  1.
          2   -1    0    0  501    0  0.00000000000E+00 -0.00000000000E+00 -0.84702197876E+03  0.84702197876E+03  0.00000000000E+00 0. -1.
         23    2    1    2    0    0 -0.84098878675E+03 -0.60489762413E+03  0.49830555719E+03  0.11530912706E+04  0.90265026115E+02 0.  0.
         13    1    3    3    0    0 -0.11682180998E+03 -0.47899172867E+02  0.60069793849E+02  0.13982147968E+03  0.00000000000E+00 0. -1.
        -13    1    3    3    0    0 -0.72416697677E+03 -0.55699845126E+03  0.43823576335E+03  0.10132697909E+04  0.00000000000E+00 0.  1.
         22    1    1    2    0    0  0.84098878675E+03  0.60489762413E+03 -0.33169921189E+01  0.10359412520E+04  0.00000000000E+00 0. -1.
<mgrwt>
<rscale>  0 0.21323343E+04</rscale>
<asrwt>0</asrwt>
<pdfrwt beam="1">  1        2 0.13031107E+00 0.21323343E+04</pdfrwt>
<pdfrwt beam="2">  1       -2 0.20646316E+00 0.21323343E+04</pdfrwt>
<totfact> 0.35362552E+00</totfact>
</mgrwt>
</event>
<event>
 6    1  0.1588846E-005  0.1505939E+04  0.7818608E-02  0.8880513E-01
         -1   -1    0    0    0  501 -0.00000000000E+00  0.00000000000E+00  0.15262689594E+04  0.15262689594E+04  0.00000000000E+00 0.  1.
          1   -1    0    0  501    0  0.00000000000E+00 -0.00000000000E+00 -0.37146982530E+03  0.37146982530E+03  0.00000000000E+00 0. -1.
         23    2    1    2    0    0  0.63488977747E+03  0.35033255400E+03  0.82092142592E+03  0.10994329210E+04  0.94988590966E+02 0.  0.
         13    1    3    3    0    0  0.47935273835E+03  0.21591763878E+03  0.58642986554E+03  0.78759092281E+03  0.00000000000E+00 0.  1.
        -13    1    3    3    0    0  0.15553703913E+03  0.13441491522E+03  0.23449156038E+03  0.31184199824E+03  0.00000000000E+00 0. -1.
         22    1    1    2    0    0 -0.63488977747E+03 -0.35033255400E+03  0.33387770820E+03  0.79830586367E+03  0.00000000000E+00 0. -1.
<mgrwt>
<rscale>  0 0.15059387E+04</rscale>
<asrwt>0</asrwt>
<pdfrwt beam="1">  1        1 0.57149205E-01 0.15059387E+04</pdfrwt>
<pdfrwt beam="2">  1       -1 0.23481061E+00 0.15059387E+04</pdfrwt>
<totfact> 0.56159410E+00</totfact>
</mgrwt>
</event>
<event>
 6    1  0.1588846E-005  0.2051272E+04  0.7818608E-02  0.8583018E-01
          2   -1    0    0  501    0  0.00000000000E+00  0.00000000000E+00  0.16751316975E+04  0.16751316975E+04  0.00000000000E+00 0. -1.
         -2   -1    0    0    0  501 -0.00000000000E+00 -0.00000000000E+00 -0.62796778517E+03  0.62796778517E+03  0.00000000000E+00 0.  1.
         23    2    1    2    0    0 -0.53370968430E+03  0.34606537666E+03 -0.37587123894E+03  0.74437041263E+03  0.90558549570E+02 0.  0.
         11    1    3    3    0    0 -0.24309078927E+03  0.14167945350E+03 -0.11675702259E+03  0.30462830088E+03  0.00000000000E+00 0. -1.
        -11    1    3    3    0    0 -0.29061889503E+03  0.20438592315E+03 -0.25911421635E+03  0.43974211175E+03  0.00000000000E+00 0.  1.
         22    1    1    2    0    0  0.53370968430E+03 -0.34606537666E+03  0.14230351513E+04  0.15587290700E+04  0.00000000000E+00 0. -1.
<mgrwt>
<rscale>  0 0.20512715E+04</rscale>
<asrwt>0</asrwt>
<pdfrwt beam="1">  1        2 0.25771257E+00 0.20512715E+04</pdfrwt>
<pdfrwt beam="2">  1       -2 0.96610429E-01 0.20512715E+04</pdfrwt>
<totfact> 0.83936054E+00</totfact>
</mgrwt>
</event>
<event>
 6    1  0.1588846E-005  0.3178782E+04  0.7818608E-02  0.8194443E-01
         -2   -1    0    0    0  501 -0.00000000000E+00  0.00000000000E+00  0.19052555038E+04  0.19052555038E+04  0.00000000000E+00 0. -1.
          2   -1    0    0  501    0  0.00000000000E+00 -0.00000000000E+00 -0.13258927689E+04  0.13258927689E+04  0.00000000000E+00 0.  1.
         23    2    1    2    0    0  0.63052590084E+03  0.82873668153E+03  0.15087625395E+04  0.18353863318E+04  0.88944855608E+02 0.  0.
         13    1    3    3    0    0  0.24039314415E+03  0.26221693986E+03  0.56206281302E+03  0.66517756508E+03  0.00000000000E+00 0.  1.
        -13    1    3    3    0    0  0.39013275668E+03  0.56651974167E+03  0.94669972647E+03  0.11702087667E+04  0.00000000000E+00 0. -1.
         22    1    1    2    0    0 -0.63052590084E+03 -0.82873668153E+03 -0.92939980466E+03  0.13957619410E+04  0.00000000000E+00 0.  1.
<mgrwt>
<rscale>  0 0.31787825E+04</rscale>
<asrwt>0</asrwt>
<pdfrwt beam="1">  1        2 0.20398350E+00 0.31787825E+04</pdfrwt>
<pdfrwt beam="2">  1       -2 0.29311623E+00 0.31787825E+04</pdfrwt>
<totfact> 0.47164233E-01</totfact>
</mgrwt>
</event>
<event>
 6    1  0.1588846E-005  0.2894577E+04  0.7818608E-02  0.8274493E-01
         -1   -1    0    0    0  501 -0.00000000000E+00  0.00000000000E+00  0.10379159424E+04  0.10379159424E+04  0.00000000000E+00 0.  1.
          1   -1    0    0  501    0  0.00000000000E+00 -0.00000000000E+00 -0.20181246202E+04  0.20181246202E+04  0.00000000000E+00 0. -1.
         23    2    1    2    0    0  0.81865891905E+02  0.48495905698E+03 -0.19260860271E+04  0.19899395958E+04  0.90359836746E+02 0.  0.
         13    1    3    3    0    0  0.51164288498E+01  0.11568254977E+03 -0.60912434221E+03  0.62003313979E+03  0.00000000000E+00 0. -1.
        -13    1    3    3    0    0  0.76749463055E+02  0.36927650722E+03 -0.13169616849E+04  0.13699064561E+04  0.00000000000E+00 0.  1.
         22    1    1    2    0    0 -0.81865891905E+02 -0.48495905698E+03  0.94587734940E+03  0.10661009668E+04  0.00000000000E+00 0.  1.
<mgrwt>
<rscale>  0 0.28945768E+04</rscale>
<asrwt>0</asrwt>
<pdfrwt beam="1">  1        1 0.31048071E+00 0.28945768E+04</pdfrwt>
<pdfrwt beam="2">  1       -1 0.15967938E+00 0.28945768E+04</pdfrwt>
<totfact> 0.73100992E-01</totfact>
</mgrwt>
</event>
<event>
 6    1  0.1588846E-005  0.3545425E+04  0.7818608E-02  0.8103108E-01
         -1   -1    0    0    0  501 -0.00000000000E+00  0.00000000000E+00  0.15431341846E+04  0.15431341846E+04  0.00000000000E+00 0.  1.
          1   -1    0    0  501    0  0.00000000000E+00 -0.00000000000E+00 -0.20364464665E+04  0.20364464665E+04  0.00000000000E+00 0. -1.
         23    2    1    2    0    0  0.12855476264E+04  0.11294480033E+04  0.21564756097E+03  0.17273091941E+04  0.93849293260E+02 0.  0.
         11    1    3    3    0    0  0.58013803833E+03  0.49047264540E+03  0.51068045607E+02  0.76140101437E+03  0.00000000000E+00 0.  1.
        -11    1    3    3    0    0  0.70540958804E+03  0.63897535786E+03  0.16457951536E+03  0.96590817976E+03  0.00000000000E+00 0. -1.
         22    1    1    2    0    0 -0.12855476264E+04 -0.11294480033E+04 -0.70895984285E+03  0.18522714570E+04  0.00000000000E+00 0.  1.
<mgrwt>
<rscale>  0 0.35454253E+04</rscale>
<asrwt>0</asrwt>
<pdfrwt beam="1">  1        1 0.31329946E+00 0.35454253E+04</pdfrwt>
<pdfrwt beam="2">  1       -1 0.23740526E+00 0.35454253E+04</pdfrwt>
<totfact> 0.19293922E-01</totfact>
</mgrwt>
</event>
<event>
 6    1  0.1588846E-005  0.3825689E+04  0.7818608E-02  0.8040664E-01
          2   -1    0    0  501    0  0.00000000000E+00  0.00000000000E+00  0.32703526263E+04  0.32703526263E+04  0.00000000000E+00 0. -1.
         -2   -1    0    0    0  501 -0.00000000000E+00 -0.00000000000E+00 -0.11188319137E+04  0.11188319137E+04  0.00000000000E+00 0.  1.
         23    2    1    2    0    0  0.31172121697E+03  0.14573407854E+04  0.24506752110E+04  0.28691497721E+04  0.72105085382E+02 0.  0.
         13    1    3    3    0    0  0.12169525594E+03  0.68957626569E+03  0.12002338011E+04  0.13895633626E+04  0.00000000000E+00 0.  1.
        -13    1    3    3    0    0  0.19002596102E+03  0.76776451971E+03  0.12504414099E+04  0.14795864095E+04  0.00000000000E+00 0. -1.
         22    1    1    2    0    0 -0.31172121697E+03 -0.14573407854E+04 -0.29915449836E+03  0.15200347680E+04  0.00000000000E+00 0.  1.
<mgrwt>
<rscale>  0 0.38256894E+04</rscale>
<asrwt>0</asrwt>
<pdfrwt beam="1">  1        2 0.50313117E+00 0.38256894E+04</pdfrwt>
<pdfrwt beam="2">  1       -2 0.17212799E+00 0.38256894E+04</pdfrwt>
<totfact> 0.19175830E-01</totfact>
</mgrwt>
</event>
<event>
 6    1  0.4050569E-005  0.4672010E+04  0.7818608E-02  0.7881196E-01
         -2   -1    0    0    0  501 -0.00000000000E+00  0.00000000000E+00  0.15561636751E+04  0.15561636751E+04  0.00000000000E+00 0.  1.
          2   -1    0    0  501    0  0.00000000000E+00 -0.00000000000E+00 -0.35066489035E+04  0.35066489035E+04  0.00000000000E+00 0. -1.
         23    2    1    2    0    0 -0.16348914666E+04  0.12570449559E+04 -0.21625509348E+04  0.29896497793E+04  0.91362620703E+02 0.  0.
         13    1    3    3    0    0 -0.11364123970E+04  0.84629815067E+03 -0.14321948919E+04  0.20146552818E+04  0.00000000000E+00 0. -1.
        -13    1    3    3    0    0 -0.49847906964E+03  0.41074680518E+03 -0.73035604288E+03  0.97499449752E+03  0.00000000000E+00 0.  1.
         22    1    1    2    0    0  0.16348914666E+04 -0.12570449559E+04  0.21206570640E+03  0.20731627993E+04  0.00000000000E+00 0.  1.
<mgrwt>
<rscale>  0 0.46720101E+04</rscale>
<asrwt>0</asrwt>
<pdfrwt beam="1">  1        2 0.53948444E+00 0.46720101E+04</pdfrwt>
<pdfrwt beam="2">  1       -2 0.23940980E+00 0.46720101E+04</pdfrwt>
<totfact> 0.44809126E-02</totfact>
</mgrwt>
</event>
<event>
 6    1  0.1588846E-005  0.3405321E+04  0.7818608E-02  0.8136602E-01
          1   -1    0    0  501    0  0.00000000000E+00  0.00000000000E+00  0.65493373347E+03  0.65493373347E+03  0.00000000000E+00 0. -1.
         -1   -1    0    0    0  501 -0.00000000000E+00 -0.00000000000E+00 -0.44264833399E+04  0.44264833399E+04  0.00000000000E+00 0.  1.
         23    2    1    2    0    0 -0.25259820104E+03 -0.11631988533E+04 -0.75742571954E+02  0.11986568362E+04  0.11917990670E+03 0.  0.
         11    1    3    3    0    0 -0.15927093402E+03 -0.47392754788E+03 -0.52278754571E+02  0.50270032748E+03  0.00000000000E+00 0.  1.
        -11    1    3    3    0    0 -0.93327267023E+02 -0.68927130544E+03 -0.23463817384E+02  0.69595650870E+03  0.00000000000E+00 0. -1.
         22    1    1    2    0    0  0.25259820104E+03  0.11631988533E+04 -0.36958070345E+04  0.38827602372E+04  0.00000000000E+00 0.  1.
<mgrwt>
<rscale>  0 0.34053213E+04</rscale>
<asrwt>0</asrwt>
<pdfrwt beam="1">  1        1 0.10075904E+00 0.34053213E+04</pdfrwt>
<pdfrwt beam="2">  1       -1 0.68099743E+00 0.34053213E+04</pdfrwt>
<totfact> 0.57144998E-03</totfact>
</mgrwt>
</event>
<event>
 6    1  0.1588846E-005  0.1770200E+04  0.7818608E-02  0.8722309E-01
         -2   -1    0    0    0  501 -0.00000000000E+00  0.00000000000E+00  0.63803535765E+03  0.63803535765E+03  0.00000000000E+00 0. -1.
          2   -1    0    0  501    0  0.00000000000E+00 -0.00000000000E+00 -0.12278350402E+04  0.12278350402E+04  0.00000000000E+00 0.  1.
         23    2    1    2    0    0 -0.26812586387E+03 -0.23077254018E+03 -0.11481679297E+04  0.12048692303E+04  0.90955060011E+02 0.  0.
         11    1    3    3    0    0 -0.16465861461E+03 -0.12716708646E+03 -0.81138301808E+03  0.83763138030E+03  0.00000000000E+00 0.  1.
        -11    1    3    3    0    0 -0.10346724926E+03 -0.10360545372E+03 -0.33678491167E+03  0.36723784995E+03  0.00000000000E+00 0. -1.
         22    1    1    2    0    0  0.26812586387E+03  0.23077254018E+03  0.55836824716E+03  0.66100116763E+03  0.00000000000E+00 0. -1.
<mgrwt>
<rscale>  0 0.17702002E+04</rscale>
<asrwt>0</asrwt>
<pdfrwt beam="1">  1        2 0.18889770E+00 0.17702002E+04</pdfrwt>
<pdfrwt beam="2">  1       -2 0.98159286E-01 0.17702002E+04</pdfrwt>
<totfact> 0.14892269E+01</totfact>
</mgrwt>
</event>
<event>
 6    1  0.1588846E-005  0.2433919E+04  0.7818608E-02  0.8426913E-01
         -1   -1    0    0    0  501 -0.00000000000E+00  0.00000000000E+00  0.10613432509E+04  0.10613432509E+04  0.00000000000E+00 0.  1.
          1   -1    0    0  501    0  0.00000000000E+00 -0.00000000000E+00 -0.13953925701E+04  0.13953925701E+04  0.00000000000E+00 0. -1.
         23    2    1    2    0    0  0.24265113991E+03 -0.64612857628E+02  0.10329433627E+04  0.10668712991E+04  0.90487464415E+02 0.  0.
         11    1    3    3    0    0  0.37346384332E+02 -0.47700026716E+02  0.25772659733E+03  0.26475090924E+03  0.00000000000E+00 0.  1.
        -11    1    3    3    0    0  0.20530475558E+03 -0.16912830912E+02  0.77521676535E+03  0.80212038983E+03  0.00000000000E+00 0. -1.
         22    1    1    2    0    0 -0.24265113991E+03  0.64612857628E+02 -0.13669926819E+04  0.13898645220E+04  0.00000000000E+00 0. -1.
<mgrwt>
<rscale>  0 0.24339191E+04</rscale>
<asrwt>0</asrwt>
<pdfrwt beam="1">  1        1 0.21467578E+00 0.24339191E+04</pdfrwt>
<pdfrwt beam="2">  1       -1 0.16328358E+00 0.24339191E+04</pdfrwt>
<totfact> 0.19091855E+00</totfact>
</mgrwt>
</event>
<event>
 6    1  0.1588846E-005  0.1027953E+04  0.7818608E-02  0.9278406E-01
          1   -1    0    0  501    0  0.00000000000E+00  0.00000000000E+00  0.25208121959E+03  0.25208121959E+03  0.00000000000E+00 0. -1.
         -1   -1    0    0    0  501 -0.00000000000E+00 -0.00000000000E+00 -0.10479641393E+04  0.10479641393E+04  0.00000000000E+00 0.  1.
         23    2    1    2    0    0  0.18732138068E+03  0.19834547209E+03  0.14395687278E+03  0.32140903138E+03  0.90277119343E+02 0.  0.
         11    1    3    3    0    0  0.11735291211E+03  0.17149134803E+03  0.79264083524E+02  0.22240454889E+03  0.00000000000E+00 0.  1.
        -11    1    3    3    0    0  0.69968468568E+02  0.26854124064E+02  0.64692789254E+02  0.99004482497E+02  0.00000000000E+00 0. -1.
         22    1    1    2    0    0 -0.18732138068E+03 -0.19834547209E+03 -0.93983979247E+03  0.97863632748E+03  0.00000000000E+00 0.  1.
<mgrwt>
<rscale>  0 0.10279535E+04</rscale>
<asrwt>0</asrwt>
<pdfrwt beam="1">  1        1 0.38781726E-01 0.10279535E+04</pdfrwt>
<pdfrwt beam="2">  1       -1 0.16122525E+00 0.10279535E+04</pdfrwt>
<totfact> 0.31512450E+01</totfact>
</mgrwt>
</event>
<event>
 6    1  0.1588846E-005  0.6797479E+03  0.7818608E-02  0.9752507E-01
         -2   -1    0    0    0  501 -0.00000000000E+00  0.00000000000E+00  0.22243616548E+03  0.22243616548E+03  0.00000000000E+00 0.  1.
          2   -1    0    0  501    0  0.00000000000E+00 -0.00000000000E+00 -0.51931440500E+03  0.51931440500E+03  0.00000000000E+00 0. -1.
         23    2    1    2    0    0 -0.28156921466E+03 -0.14358539863E+00 -0.34651443809E+03  0.45583975314E+03  0.91849776707E+02 0.  0.
         11    1    3    3    0    0 -0.69747383492E+02 -0.21755098735E+02 -0.14649819469E+03  0.16370614794E+03  0.00000000000E+00 0.  1.
        -11    1    3    3    0    0 -0.21182183116E+03  0.21611513337E+02 -0.20001624340E+03  0.29213360521E+03  0.00000000000E+00 0. -1.
         22    1    1    2    0    0  0.28156921466E+03  0.14358539863E+00  0.49636198571E+02  0.28591081733E+03  0.00000000000E+00 0.  1.
<mgrwt>
<rscale>  0 0.67974791E+03</rscale>
<asrwt>0</asrwt>
<pdfrwt beam="1">  1        2 0.79894524E-01 0.67974791E+03</pdfrwt>
<pdfrwt beam="2">  1       -2 0.34220949E-01 0.67974791E+03</pdfrwt>
<totfact> 0.47445170E+02</totfact>
</mgrwt>
</event>
<event>
 6    1  0.1588846E-005  0.1842192E+04  0.7818608E-02  0.8684179E-01
          1   -1    0    0  501    0  0.00000000000E+00  0.00000000000E+00  0.50838503971E+03  0.50838503971E+03  0.00000000000E+00 0. -1.
         -1   -1    0    0    0  501 -0.00000000000E+00 -0.00000000000E+00 -0.16688485104E+04  0.16688485104E+04  0.00000000000E+00 0.  1.
         23    2    1    2    0    0 -0.68186572798E+03  0.31494391572E+03 -0.12049769552E+04  0.14248294092E+04  0.11848561755E+03 0.  0.
         11    1    3    3    0    0 -0.22911620732E+03  0.47150770761E+02 -0.39351080341E+03  0.45778617720E+03  0.00000000000E+00 0.  1.
        -11    1    3    3    0    0 -0.45274952067E+03  0.26779314496E+03 -0.81146615182E+03  0.96704323197E+03  0.00000000000E+00 0. -1.
         22    1    1    2    0    0  0.68186572798E+03 -0.31494391572E+03  0.44513484503E+02  0.75240414097E+03  0.00000000000E+00 0. -1.
<mgrwt>
<rscale>  0 0.18421918E+04</rscale>
<asrwt>0</asrwt>
<pdfrwt beam="1">  1        1 0.78213081E-01 0.18421918E+04</pdfrwt>
<pdfrwt beam="2">  1       -1 0.25674593E+00 0.18421918E+04</pdfrwt>
<totfact> 0.25659391E+00</totfact>
</mgrwt>
</event>
<event>
 6    1  0.1588846E-005  0.2297573E+04  0.7818608E-02  0.8478879E-01
         -1   -1    0    0    0  501 -0.00000000000E+00  0.00000000000E+00  0.17992674578E+04  0.17992674578E+04  0.00000000000E+00 0.  1.
          1   -1    0    0  501    0  0.00000000000E+00 -0.00000000000E+00 -0.73347066508E+03  0.73347066508E+03  0.00000000000E+00 0. -1.
         23    2    1    2    0    0 -0.64304252431E+03  0.23512790044E+03  0.15481377785E+04  0.16952169922E+04  0.90781341485E+02 0.  0.
         11    1    3    3    0    0 -0.88548055457E+02  0.14738516748E+02  0.14586736212E+03  0.17127541952E+03  0.00000000000E+00 0. -1.
        -11    1    3    3    0    0 -0.55449446885E+03  0.22038938369E+03  0.14022704164E+04  0.15239415727E+04  0.00000000000E+00 0.  1.
         22    1    1    2    0    0  0.64304252431E+03 -0.23512790044E+03 -0.48234098580E+03  0.83752113061E+03  0.00000000000E+00 0. -1.
<mgrwt>
<rscale>  0 0.22975725E+04</rscale>
<asrwt>0</asrwt>
<pdfrwt beam="1">  1        1 0.11284164E+00 0.22975725E+04</pdfrwt>
<pdfrwt beam="2">  1       -1 0.27681038E+00 0.22975725E+04</pdfrwt>
<totfact> 0.10701002E+00</totfact>
</mgrwt>
</event>
<event>
 6    1  0.1588846E-005  0.3464171E+04  0.7818608E-02  0.8122334E-01
         -3   -1    0    0    0  501 -0.00000000000E+00  0.00000000000E+00  0.13347019453E+04  0.13347019453E+04  0.00000000000E+00 0.  1.
          3   -1    0    0  501    0  0.00000000000E+00 -0.00000000000E+00 -0.22477831304E+04  0.22477831304E+04  0.00000000000E+00 0. -1.
         23    2    1    2    0    0  0.50919254242E+03  0.16209634166E+04 -0.79841924385E+03  0.18795620582E+04  0.92091250067E+02 0.  0.
         11    1    3    3    0    0  0.11172363084E+03  0.44595596072E+03 -0.25008825501E+03  0.52335745326E+03  0.00000000000E+00 0. -1.
        -11    1    3    3    0    0  0.39746891158E+03  0.11750074559E+04 -0.54833098884E+03  0.13562046049E+04  0.00000000000E+00 0.  1.
         22    1    1    2    0    0 -0.50919254242E+03 -0.16209634166E+04 -0.11466194127E+03  0.17029230176E+04  0.00000000000E+00 0. -1.
<mgrwt>
<rscale>  0 0.34641712E+04</rscale>
<asrwt>0</asrwt>
<pdfrwt beam="1">  1        3 0.34581278E+00 0.34641712E+04</pdfrwt>
<pdfrwt beam="2">  1       -3 0.20533876E+00 0.34641712E+04</pdfrwt>
<totfact> 0.62740537E-03</totfact>
</mgrwt>
</event>
<event>
 6    1  0.1588846E-005  0.7089960E+04  0.7818608E-02  0.7568228E-01
          2   -1    0    0  501    0  0.00000000000E+00  0.00000000000E+00  0.37274979841E+04  0.37274979841E+04  0.00000000000E+00 0. -1.
         -2   -1    0    0    0  501 -0.00000000000E+00 -0.00000000000E+00 -0.33713988438E+04  0.33713988438E+04  0.00000000000E+00 0.  1.
         23    2    1    2    0    0 -0.40058136774E+03 -0.20793043069E+04  0.30239561146E+04  0.36928092383E+04  0.92507594810E+02 0.  0.
         11    1    3    3    0    0 -0.16948227249E+03 -0.78584469457E+03  0.10766076010E+04  0.13436368747E+04  0.00000000000E+00 0. -1.
        -11    1    3    3    0    0 -0.23109909525E+03 -0.12934596123E+04  0.19473485136E+04  0.23491723636E+04  0.00000000000E+00 0.  1.
         22    1    1    2    0    0  0.40058136774E+03  0.20793043069E+04 -0.26678569743E+04  0.34060875896E+04  0.00000000000E+00 0.  1.
<mgrwt>
<rscale>  0 0.70899598E+04</rscale>
<asrwt>0</asrwt>
<pdfrwt beam="1">  1        2 0.57346123E+00 0.70899598E+04</pdfrwt>
<pdfrwt beam="2">  1       -2 0.51867675E+00 0.70899598E+04</pdfrwt>
<totfact> 0.44555428E-04</totfact>
</mgrwt>
</event>
<event>
 6    1  0.1588846E-005  0.6853608E+03  0.7818608E-02  0.9742600E-01
          2   -1    0    0  501    0  0.00000000000E+00  0.00000000000E+00  0.48208631640E+03  0.48208631640E+03  0.00000000000E+00 0. -1.
         -2   -1    0    0    0  501 -0.00000000000E+00 -0.00000000000E+00 -0.24358679144E+03  0.24358679144E+03  0.00000000000E+00 0.  1.
         23    2    1    2    0    0  0.14662923307E+03  0.28479252752E+03  0.23020832193E+03  0.40524267893E+03  0.92837716601E+02 0.  0.
         13    1    3    3    0    0  0.73250979621E+02  0.11770574669E+03  0.15474706012E+03  0.20776669953E+03  0.00000000000E+00 0.  1.
        -13    1    3    3    0    0  0.73378253448E+02  0.16708678083E+03  0.75461261809E+02  0.19747597940E+03  0.00000000000E+00 0. -1.
         22    1    1    2    0    0 -0.14662923307E+03 -0.28479252752E+03  0.82912030252E+01  0.32043042891E+03  0.00000000000E+00 0.  1.
<mgrwt>
<rscale>  0 0.68536081E+03</rscale>
<asrwt>0</asrwt>
<pdfrwt beam="1">  1        2 0.74167125E-01 0.68536081E+03</pdfrwt>
<pdfrwt beam="2">  1       -2 0.37474891E-01 0.68536081E+03</pdfrwt>
<totfact> 0.43475455E+02</totfact>
</mgrwt>
</event>
<event>
 6    1  0.1588846E-005  0.2533305E+04  0.7818608E-02  0.8391216E-01
          2   -1    0    0  501    0  0.00000000000E+00  0.00000000000E+00  0.78916342764E+03  0.78916342764E+03  0.00000000000E+00 0. -1.
         -2   -1    0    0    0  501 -0.00000000000E+00 -0.00000000000E+00 -0.20330493444E+04  0.20330493444E+04  0.00000000000E+00 0.  1.
         23    2    1    2    0    0  0.27847950434E+03 -0.81835979482E+03 -0.16516189980E+04  0.18664356779E+04  0.92050187481E+02 0.  0.
         11    1    3    3    0    0  0.21454974629E+03 -0.54111449005E+03 -0.10383727087E+04  0.11904009270E+04  0.00000000000E+00 0. -1.
        -11    1    3    3    0    0  0.63929758046E+02 -0.27724530477E+03 -0.61324628930E+03  0.67603475083E+03  0.00000000000E+00 0.  1.
         22    1    1    2    0    0 -0.27847950434E+03  0.81835979482E+03  0.40773308126E+03  0.95577709414E+03  0.00000000000E+00 0.  1.
<mgrwt>
<rscale>  0 0.25333047E+04</rscale>
<asrwt>0</asrwt>
<pdfrwt beam="1">  1        2 0.12140976E+00 0.25333047E+04</pdfrwt>
<pdfrwt beam="2">  1       -2 0.31277682E+00 0.25333047E+04</pdfrwt>
<totfact> 0.82790559E-01</totfact>
</mgrwt>
</event>
<event>
 6    1  0.1588846E-005  0.3993904E+03  0.7818608E-02  0.1043991E+00
          1   -1    0    0  501    0  0.00000000000E+00  0.00000000000E+00  0.22529147522E+03  0.22529147522E+03  0.00000000000E+00 0. -1.
         -1   -1    0    0    0  501 -0.00000000000E+00 -0.00000000000E+00 -0.17700701942E+03  0.17700701942E+03  0.00000000000E+00 0.  1.
         23    2    1    2    0    0  0.12245940797E+03 -0.65640309065E+02 -0.10415477109E+03  0.19603973805E+03  0.90985744926E+02 0.  0.
         13    1    3    3    0    0  0.47453501317E+02 -0.76157127756E+02 -0.64820777518E+02  0.11069542038E+03  0.00000000000E+00 0.  1.
        -13    1    3    3    0    0  0.75005906652E+02  0.10516818691E+02 -0.39333993571E+02  0.85344317668E+02  0.00000000000E+00 0. -1.
         22    1    1    2    0    0 -0.12245940797E+03  0.65640309065E+02  0.15243922689E+03  0.20625875659E+03  0.00000000000E+00 0. -1.
<mgrwt>
<rscale>  0 0.39939040E+03</rscale>
<asrwt>0</asrwt>
<pdfrwt beam="1">  1        1 0.34660227E-01 0.39939040E+03</pdfrwt>
<pdfrwt beam="2">  1       -1 0.27231849E-01 0.39939040E+03</pdfrwt>
<totfact> 0.15268494E+03</totfact>
</mgrwt>
</event>
<event>
 6    1  0.1588846E-005  0.3701256E+04  0.7818608E-02  0.8067684E-01
         -1   -1    0    0    0  501 -0.00000000000E+00  0.00000000000E+00  0.79981059523E+03  0.79981059523E+03  0.00000000000E+00 0.  1.
          1   -1    0    0  501    0  0.00000000000E+00 -0.00000000000E+00 -0.42820431463E+04  0.42820431463E+04  0.00000000000E+00 0. -1.
         23    2    1    2    0    0 -0.66835987018E+03 -0.12459428869E+04 -0.10531176003E+03  0.14208876638E+04  0.93555292741E+02 0.  0.
         13    1    3    3    0    0 -0.47705818615E+03 -0.80853032661E+03 -0.92142613453E+02  0.94329002075E+03  0.00000000000E+00 0. -1.
        -13    1    3    3    0    0 -0.19130168402E+03 -0.43741256029E+03 -0.13169146574E+02  0.47759764304E+03  0.00000000000E+00 0.  1.
         22    1    1    2    0    0  0.66835987018E+03  0.12459428869E+04 -0.33769207911E+04  0.36609660778E+04  0.00000000000E+00 0. -1.
<mgrwt>
<rscale>  0 0.37012557E+04</rscale>
<asrwt>0</asrwt>
<pdfrwt beam="1">  1        1 0.65877587E+00 0.37012557E+04</pdfrwt>
<pdfrwt beam="2">  1       -1 0.12304778E+00 0.37012557E+04</pdfrwt>
<totfact> 0.24616406E-02</totfact>
</mgrwt>
</event>
<event>
 6    1  0.1588846E-005  0.1915672E+04  0.7818608E-02  0.8647094E-01
          2   -1    0    0  501    0  0.00000000000E+00  0.00000000000E+00  0.95274316931E+03  0.95274316931E+03  0.00000000000E+00 0. -1.
         -2   -1    0    0    0  501 -0.00000000000E+00 -0.00000000000E+00 -0.96295632671E+03  0.96295632671E+03  0.00000000000E+00 0.  1.
         23    2    1    2    0    0 -0.76557520140E+02 -0.65359621738E+03  0.68789651604E+03  0.95632147594E+03  0.91104770952E+02 0.  0.
         11    1    3    3    0    0 -0.52266561917E+02 -0.42775660142E+03  0.38613020276E+03  0.57862253416E+03  0.00000000000E+00 0. -1.
        -11    1    3    3    0    0 -0.24290958224E+02 -0.22583961596E+03  0.30176631328E+03  0.37769894177E+03  0.00000000000E+00 0.  1.
         22    1    1    2    0    0  0.76557520140E+02  0.65359621738E+03 -0.69810967345E+03  0.95937802009E+03  0.00000000000E+00 0.  1.
<mgrwt>
<rscale>  0 0.19156723E+04</rscale>
<asrwt>0</asrwt>
<pdfrwt beam="1">  1        2 0.14657587E+00 0.19156723E+04</pdfrwt>
<pdfrwt beam="2">  1       -2 0.14814713E+00 0.19156723E+04</pdfrwt>
<totfact> 0.78298471E+00</totfact>
</mgrwt>
</event>
<event>
 6    1  0.1588846E-005  0.5645616E+04  0.7818608E-02  0.7735964E-01
          2   -1    0    0  501    0  0.00000000000E+00  0.00000000000E+00  0.22092927187E+04  0.22092927187E+04  0.00000000000E+00 0. -1.
         -2   -1    0    0    0  501 -0.00000000000E+00 -0.00000000000E+00 -0.36066952634E+04  0.36066952634E+04  0.00000000000E+00 0.  1.
         23    2    1    2    0    0 -0.18334915281E+04  0.16711112560E+04 -0.20847512055E+04  0.32417400929E+04  0.91581808060E+02 0.  0.
         13    1    3    3    0    0 -0.96186477342E+03  0.86075380728E+03 -0.10268691123E+04  0.16494062971E+04  0.00000000000E+00 0. -1.
        -13    1    3    3    0    0 -0.87162675464E+03  0.81035744875E+03 -0.10578820932E+04  0.15923337958E+04  0.00000000000E+00 0.  1.
         22    1    1    2    0    0  0.18334915281E+04 -0.16711112560E+04  0.68734866084E+03  0.25742478892E+04  0.00000000000E+00 0. -1.
<mgrwt>
<rscale>  0 0.56456162E+04</rscale>
<asrwt>0</asrwt>
<pdfrwt beam="1">  1        2 0.33989119E+00 0.56456162E+04</pdfrwt>
<pdfrwt beam="2">  1       -2 0.55487620E+00 0.56456162E+04</pdfrwt>
<totfact> 0.28917064E-03</totfact>
</mgrwt>
</event>
<event>
 6    1  0.1588846E-005  0.9078558E+03  0.7818608E-02  0.9415814E-01
         -2   -1    0    0    0  501 -0.00000000000E+00  0.00000000000E+00  0.93362514360E+02  0.93362514360E+02  0.00000000000E+00 0. -1.
          2   -1    0    0  501    0  0.00000000000E+00 -0.00000000000E+00 -0.22069941345E+04  0.22069941345E+04  0.00000000000E+00 0.  1.
         23    2    1    2    0    0 -0.14951314851E+03 -0.11005984605E+03 -0.21042538690E+04  0.21144661071E+04  0.92818219265E+02 0.  0.
         13    1    3    3    0    0 -0.13807458018E+03 -0.70588483513E+02 -0.13094008062E+04  0.13185514002E+04  0.00000000000E+00 0. -1.
        -13    1    3    3    0    0 -0.11438568327E+02 -0.39471362540E+02 -0.79485306281E+03  0.79591470697E+03  0.00000000000E+00 0.  1.
         22    1    1    2    0    0  0.14951314851E+03  0.11005984605E+03 -0.93777511749E+01  0.18589054174E+03  0.00000000000E+00 0. -1.
<mgrwt>
<rscale>  0 0.90785576E+03</rscale>
<asrwt>0</asrwt>
<pdfrwt beam="1">  1        2 0.33953752E+00 0.90785576E+03</pdfrwt>
<pdfrwt beam="2">  1       -2 0.14363465E-01 0.90785576E+03</pdfrwt>
<totfact> 0.19586597E+02</totfact>
</mgrwt>
</event>
<event>
 6    1  0.1588846E-005  0.3221592E+04  0.7818608E-02  0.8183138E-01
         -1   -1    0    0    0  501 -0.00000000000E+00  0.00000000000E+00  0.17113199581E+04  0.17113199581E+04  0.00000000000E+00 0.  1.
          1   -1    0    0  501    0  0.00000000000E+00 -0.00000000000E+00 -0.15161764154E+04  0.15161764154E+04  0.00000000000E+00 0. -1.
         23    2    1    2    0    0  0.12785079255E+04  0.93261553420E+03 -0.19703316863E+03  0.15971108904E+04  0.87102677852E+02 0.  0.
         11    1    3    3    0    0  0.61754151112E+03  0.49205196558E+03 -0.70294045822E+02  0.79272561941E+03  0.00000000000E+00 0. -1.
        -11    1    3    3    0    0  0.66096641442E+03  0.44056356862E+03 -0.12673912281E+03  0.80438527102E+03  0.00000000000E+00 0.  1.
         22    1    1    2    0    0 -0.12785079255E+04 -0.93261553420E+03  0.39217671134E+03  0.16303854830E+04  0.00000000000E+00 0. -1.
<mgrwt>
<rscale>  0 0.32215915E+04</rscale>
<asrwt>0</asrwt>
<pdfrwt beam="1">  1        1 0.23325791E+00 0.32215915E+04</pdfrwt>
<pdfrwt beam="2">  1       -1 0.26327999E+00 0.32215915E+04</pdfrwt>
<totfact> 0.30412924E-01</totfact>
</mgrwt>
</event>
<event>
 6    1  0.1588846E-005  0.3579846E+04  0.7818608E-02  0.8095124E-01
         -2   -1    0    0    0  501 -0.00000000000E+00  0.00000000000E+00  0.13007623066E+04  0.13007623066E+04  0.00000000000E+00 0.  1.
          2   -1    0    0  501    0  0.00000000000E+00 -0.00000000000E+00 -0.24630365803E+04  0.24630365803E+04  0.00000000000E+00 0. -1.
         23    2    1    2    0    0 -0.40456003569E+03  0.38611631104E+03 -0.23679043648E+04  0.24347772375E+04  0.91730515089E+02 0.  0.
         13    1    3    3    0    0 -0.17011550576E+03  0.12386158946E+03 -0.74246430062E+03  0.77170863435E+03  0.00000000000E+00 0. -1.
        -13    1    3    3    0    0 -0.23444452993E+03  0.26225472158E+03 -0.16254400642E+04  0.16630686032E+04  0.00000000000E+00 0.  1.
         22    1    1    2    0    0  0.40456003569E+03 -0.38611631104E+03  0.12056300911E+04  0.13290216494E+04  0.00000000000E+00 0.  1.
<mgrwt>
<rscale>  0 0.35798464E+04</rscale>
<asrwt>0</asrwt>
<pdfrwt beam="1">  1        2 0.37892870E+00 0.35798464E+04</pdfrwt>
<pdfrwt beam="2">  1       -2 0.20011728E+00 0.35798464E+04</pdfrwt>
<totfact> 0.39632744E-01</totfact>
</mgrwt>
</event>
<event>
 6    1  0.1588846E-005  0.7944729E+03  0.7818608E-02  0.9568052E-01
         -2   -1    0    0    0  501 -0.00000000000E+00  0.00000000000E+00  0.78025259311E+02  0.78025259311E+02  0.00000000000E+00 0.  1.
          2   -1    0    0  501    0  0.00000000000E+00 -0.00000000000E+00 -0.20223810271E+04  0.20223810271E+04  0.00000000000E+00 0. -1.
         23    2    1    2    0    0 -0.17523010896E+02 -0.18755983202E+03 -0.18938213639E+04  0.19053691810E+04  0.91578442535E+02 0.  0.
         11    1    3    3    0    0 -0.54014468165E+02 -0.88013961589E+02 -0.89643258836E+03  0.90236101738E+03  0.00000000000E+00 0. -1.
        -11    1    3    3    0    0  0.36491457269E+02 -0.99545870435E+02 -0.99738877554E+03  0.10030081636E+04  0.00000000000E+00 0.  1.
         22    1    1    2    0    0  0.17523010896E+02  0.18755983202E+03 -0.50534403886E+02  0.19503710538E+03  0.00000000000E+00 0.  1.
<mgrwt>
<rscale>  0 0.79447292E+03</rscale>
<asrwt>0</asrwt>
<pdfrwt beam="1">  1        2 0.31113557E+00 0.79447292E+03</pdfrwt>
<pdfrwt beam="2">  1       -2 0.12003885E-01 0.79447292E+03</pdfrwt>
<totfact> 0.33707231E+02</totfact>
</mgrwt>
</event>
<event>
 6    1  0.1588846E-005  0.1446619E+04  0.7818608E-02  0.8920748E-01
         -2   -1    0    0    0  501 -0.00000000000E+00  0.00000000000E+00  0.18643430730E+03  0.18643430730E+03  0.00000000000E+00 0.  1.
          2   -1    0    0  501    0  0.00000000000E+00 -0.00000000000E+00 -0.28062260756E+04  0.28062260756E+04  0.00000000000E+00 0. -1.
         23    2    1    2    0    0  0.51845032067E+03 -0.32219616421E+03 -0.52342775552E+03  0.80923573861E+03  0.91020668818E+02 0.  0.
         11    1    3    3    0    0  0.38742746486E+03 -0.23305295164E+03 -0.33314112226E+03  0.56160192854E+03  0.00000000000E+00 0. -1.
        -11    1    3    3    0    0  0.13102285582E+03 -0.89143212568E+02 -0.19028663326E+03  0.24763381007E+03  0.00000000000E+00 0.  1.
         22    1    1    2    0    0 -0.51845032067E+03  0.32219616421E+03 -0.20963640128E+04  0.21834246443E+04  0.00000000000E+00 0. -1.
<mgrwt>
<rscale>  0 0.14466193E+04</rscale>
<asrwt>0</asrwt>
<pdfrwt beam="1">  1        2 0.43172708E+00 0.14466193E+04</pdfrwt>
<pdfrwt beam="2">  1       -2 0.28682202E-01 0.14466193E+04</pdfrwt>
<totfact> 0.24941818E+01</totfact>
</mgrwt>
</event>
<event>
 6    1  0.1588846E-005  0.5170935E+04  0.7818608E-02  0.7802667E-01
          2   -1    0    0  501    0  0.00000000000E+00  0.00000000000E+00  0.37120701884E+04  0.37120701884E+04  0.00000000000E+00 0.  1.
         -2   -1    0    0    0  501 -0.00000000000E+00 -0.00000000000E+00 -0.18007852228E+04  0.18007852228E+04  0.00000000000E+00 0. -1.
         23    2    1    2    0    0  0.22963360218E+04  0.11688507093E+04  0.73993587785E+03  0.26824084870E+04  0.91864477892E+02 0.  0.
         11    1    3    3    0    0  0.11031024735E+04  0.57700088294E+03  0.40302492971E+03  0.13085083798E+04  0.00000000000E+00 0. -1.
        -11    1    3    3    0    0  0.11932335483E+04  0.59184982635E+03  0.33691094814E+03  0.13739001072E+04  0.00000000000E+00 0.  1.
         22    1    1    2    0    0 -0.22963360218E+04 -0.11688507093E+04  0.11713490877E+04  0.28304469242E+04  0.00000000000E+00 0.  1.
<mgrwt>
<rscale>  0 0.51709346E+04</rscale>
<asrwt>0</asrwt>
<pdfrwt beam="1">  1        2 0.57108772E+00 0.51709346E+04</pdfrwt>
<pdfrwt beam="2">  1       -2 0.27704388E+00 0.51709346E+04</pdfrwt>
<totfact> 0.17974349E-02</totfact>
</mgrwt>
</event>
<event>
 6    1  0.1588846E-005  0.3856425E+04  0.7818608E-02  0.8034153E-01
          2   -1    0    0  501    0  0.00000000000E+00  0.00000000000E+00  0.23314453607E+04  0.23314453607E+04  0.00000000000E+00 0. -1.
         -2   -1    0    0    0  501 -0.00000000000E+00 -0.00000000000E+00 -0.15947206652E+04  0.15947206652E+04  0.00000000000E+00 0.  1.
         23    2    1    2    0    0 -0.36284810387E+03  0.43796756615E+03  0.22431647313E+04  0.23159374965E+04  0.91127058452E+02 0.  0.
         13    1    3    3    0    0 -0.29118773278E+03  0.40001346913E+03  0.19092978293E+04  0.19723638792E+04  0.00000000000E+00 0.  1.
        -13    1    3    3    0    0 -0.71660371093E+02  0.37954097026E+02  0.33386690197E+03  0.34357361729E+03  0.00000000000E+00 0. -1.
         22    1    1    2    0    0  0.36284810387E+03 -0.43796756615E+03 -0.15064400358E+04  0.16102285294E+04  0.00000000000E+00 0.  1.
<mgrwt>
<rscale>  0 0.38564253E+04</rscale>
<asrwt>0</asrwt>
<pdfrwt beam="1">  1        2 0.35868390E+00 0.38564253E+04</pdfrwt>
<pdfrwt beam="2">  1       -2 0.24534164E+00 0.38564253E+04</pdfrwt>
<totfact> 0.23840370E-01</totfact>
</mgrwt>
</event>
<event>
 6    1  0.1588846E-005  0.2125314E+04  0.7818608E-02  0.8550173E-01
         -2   -1    0    0    0  501 -0.00000000000E+00  0.00000000000E+00  0.10159371783E+04  0.10159371783E+04  0.00000000000E+00 0.  1.
          2   -1    0    0  501    0  0.00000000000E+00 -0.00000000000E+00 -0.11115257576E+04  0.11115257576E+04  0.00000000000E+00 0. -1.
         23    2    1    2    0    0 -0.75808482411E+03 -0.70328388260E+03  0.18896437836E+03  0.10549559635E+04  0.89015327120E+02 0.  0.
         11    1    3    3    0    0 -0.17606965499E+03 -0.13056437036E+03  0.67963948655E+02  0.22949221453E+03  0.00000000000E+00 0.  1.
        -11    1    3    3    0    0 -0.58201516913E+03 -0.57271951224E+03  0.12100042971E+03  0.82546374892E+03  0.00000000000E+00 0. -1.
         22    1    1    2    0    0  0.75808482411E+03  0.70328388260E+03 -0.28455295765E+03  0.10725069724E+04  0.00000000000E+00 0.  1.
<mgrwt>
<rscale>  0 0.21253144E+04</rscale>
<asrwt>0</asrwt>
<pdfrwt beam="1">  1        2 0.17100396E+00 0.21253144E+04</pdfrwt>
<pdfrwt beam="2">  1       -2 0.15629803E+00 0.21253144E+04</pdfrwt>
<totfact> 0.52905256E+00</totfact>
</mgrwt>
</event>
<event>
 6    1  0.1588846E-005  0.2328866E+04  0.7818608E-02  0.8466626E-01
          2   -1    0    0  501    0  0.00000000000E+00  0.00000000000E+00  0.12917352243E+04  0.12917352243E+04  0.00000000000E+00 0. -1.
         -2   -1    0    0    0  501 -0.00000000000E+00 -0.00000000000E+00 -0.10496765183E+04  0.10496765183E+04  0.00000000000E+00 0.  1.
         23    2    1    2    0    0 -0.51016171954E+03 -0.53179704357E+03 -0.78279159869E+03  0.10791157303E+04  0.93032235127E+02 0.  0.
         11    1    3    3    0    0 -0.47217755368E+03 -0.50595829700E+03 -0.69949774678E+03  0.98399315965E+03  0.00000000000E+00 0. -1.
        -11    1    3    3    0    0 -0.37984165860E+02 -0.25838746577E+02 -0.83293851910E+02  0.95122570648E+02  0.00000000000E+00 0.  1.
         22    1    1    2    0    0  0.51016171954E+03  0.53179704357E+03  0.10248503047E+04  0.12622960123E+04  0.00000000000E+00 0. -1.
<mgrwt>
<rscale>  0 0.23288659E+04</rscale>
<asrwt>0</asrwt>
<pdfrwt beam="1">  1        2 0.19872850E+00 0.23288659E+04</pdfrwt>
<pdfrwt beam="2">  1       -2 0.16148869E+00 0.23288659E+04</pdfrwt>
<totfact> 0.37137773E+00</totfact>
</mgrwt>
</event>
<event>
 6    1  0.1588846E-005  0.3900937E+04  0.7818608E-02  0.8024834E-01
         -2   -1    0    0    0  501 -0.00000000000E+00  0.00000000000E+00  0.23473212770E+04  0.23473212770E+04  0.00000000000E+00 0.  1.
          2   -1    0    0  501    0  0.00000000000E+00 -0.00000000000E+00 -0.16207098542E+04  0.16207098542E+04  0.00000000000E+00 0. -1.
         23    2    1    2    0    0 -0.52714342807E+03  0.69281350332E+01 -0.15455369074E+04  0.16355247053E+04  0.91260816815E+02 0.  0.
         13    1    3    3    0    0 -0.18449517640E+03 -0.80590514431E-01 -0.68060194784E+03  0.70516486584E+03  0.00000000000E+00 0. -1.
        -13    1    3    3    0    0 -0.34264825166E+03  0.70087255476E+01 -0.86493495952E+03  0.93035983942E+03  0.00000000000E+00 0.  1.
         22    1    1    2    0    0  0.52714342807E+03 -0.69281350332E+01  0.22721483301E+04  0.23325064259E+04  0.00000000000E+00 0.  1.
<mgrwt>
<rscale>  0 0.39009367E+04</rscale>
<asrwt>0</asrwt>
<pdfrwt beam="1">  1        2 0.24933998E+00 0.39009367E+04</pdfrwt>
<pdfrwt beam="2">  1       -2 0.36112635E+00 0.39009367E+04</pdfrwt>
<totfact> 0.11417157E-01</totfact>
</mgrwt>
</event>
<event>
 6    1  0.1588846E-005  0.3505385E+04  0.7818608E-02  0.8112515E-01
          1   -1    0    0  501    0  0.00000000000E+00  0.00000000000E+00  0.21361326235E+04  0.21361326235E+04  0.00000000000E+00 0. -1.
         -1   -1    0    0    0  501 -0.00000000000E+00 -0.00000000000E+00 -0.14380810410E+04  0.14380810410E+04  0.00000000000E+00 0.  1.
         23    2    1    2    0    0 -0.89568288170E+03 -0.10498774340E+04 -0.75048619298E+03  0.15735257483E+04  0.90902715472E+02 0.  0.
         11    1    3    3    0    0 -0.11923662227E+03 -0.19135990692E+03 -0.12397732387E+03  0.25730597137E+03  0.00000000000E+00 0. -1.
        -11    1    3    3    0    0 -0.77644625943E+03 -0.85851752710E+03 -0.62650886911E+03  0.13162197769E+04  0.00000000000E+00 0.  1.
         22    1    1    2    0    0  0.89568288170E+03  0.10498774340E+04  0.14485377754E+04  0.20006879162E+04  0.00000000000E+00 0. -1.
<mgrwt>
<rscale>  0 0.35053855E+04</rscale>
<asrwt>0</asrwt>
<pdfrwt beam="1">  1        1 0.32863579E+00 0.35053855E+04</pdfrwt>
<pdfrwt beam="2">  1       -1 0.22124324E+00 0.35053855E+04</pdfrwt>
<totfact> 0.21202702E-01</totfact>
</mgrwt>
</event>
<event>
 6    1  0.1588846E-005  0.1586773E+04  0.7818608E-02  0.8828715E-01
          2   -1    0    0  501    0  0.00000000000E+00  0.00000000000E+00  0.71963975243E+03  0.71963975243E+03  0.00000000000E+00 0. -1.
         -2   -1    0    0    0  501 -0.00000000000E+00 -0.00000000000E+00 -0.87469110233E+03  0.87469110233E+03  0.00000000000E+00 0.  1.
         23    2    1    2    0    0  0.32999656700E+03  0.29033018966E+02 -0.79925316326E+03  0.86994378506E+03  0.90862092022E+02 0.  0.
         11    1    3    3    0    0  0.13552077075E+03 -0.18797700394E+02 -0.24494488624E+03  0.28056591051E+03  0.00000000000E+00 0. -1.
        -11    1    3    3    0    0  0.19447579626E+03  0.47830719360E+02 -0.55430827702E+03  0.58937787455E+03  0.00000000000E+00 0.  1.
         22    1    1    2    0    0 -0.32999656700E+03 -0.29033018966E+02  0.64420181335E+03  0.72438706970E+03  0.00000000000E+00 0. -1.
<mgrwt>
<rscale>  0 0.15867734E+04</rscale>
<asrwt>0</asrwt>
<pdfrwt beam="1">  1        2 0.11071381E+00 0.15867734E+04</pdfrwt>
<pdfrwt beam="2">  1       -2 0.13456786E+00 0.15867734E+04</pdfrwt>
<totfact> 0.15096655E+01</totfact>
</mgrwt>
</event>
<event>
 6    1  0.1588846E-005  0.2132144E+04  0.7818608E-02  0.8547215E-01
          2   -1    0    0  501    0  0.00000000000E+00  0.00000000000E+00  0.10401093426E+04  0.10401093426E+04  0.00000000000E+00 0. -1.
         -2   -1    0    0    0  501 -0.00000000000E+00 -0.00000000000E+00 -0.10926822291E+04  0.10926822291E+04  0.00000000000E+00 0.  1.
         23    2    1    2    0    0 -0.10402235713E+04 -0.80763502425E+02 -0.23537740766E+03  0.10735440489E+04  0.92230577413E+02 0.  0.
         13    1    3    3    0    0 -0.44321757504E+03 -0.74026468911E+02 -0.77645193418E+02  0.45601591309E+03  0.00000000000E+00 0. -1.
        -13    1    3    3    0    0 -0.59700599621E+03 -0.67370335138E+01 -0.15773221424E+03  0.61752813583E+03  0.00000000000E+00 0.  1.
         22    1    1    2    0    0  0.10402235713E+04  0.80763502425E+02  0.18280452117E+03  0.10592475228E+04  0.00000000000E+00 0. -1.
<mgrwt>
<rscale>  0 0.21321435E+04</rscale>
<asrwt>0</asrwt>
<pdfrwt beam="1">  1        2 0.16001682E+00 0.21321435E+04</pdfrwt>
<pdfrwt beam="2">  1       -2 0.16810496E+00 0.21321435E+04</pdfrwt>
<totfact> 0.47987686E+00</totfact>
</mgrwt>
</event>
<event>
 6    1  0.1588846E-005  0.2714046E+04  0.7818608E-02  0.8330462E-01
         -1   -1    0    0    0  501 -0.00000000000E+00  0.00000000000E+00  0.49868354676E+03  0.49868354676E+03  0.00000000000E+00 0.  1.
          1   -1    0    0  501    0  0.00000000000E+00 -0.00000000000E+00 -0.36927455844E+04  0.36927455844E+04  0.00000000000E+00 0. -1.
         23    2    1    2    0    0 -0.44950337596E+02 -0.10035755493E+04 -0.30042426522E+04  0.31690711630E+04  0.91398615833E+02 0.  0.
         11    1    3    3    0    0 -0.23688455735E+02 -0.70472280591E+03 -0.19744724606E+04  0.20966012673E+04  0.00000000000E+00 0.  1.
        -11    1    3    3    0    0 -0.21261881860E+02 -0.29885274335E+03 -0.10297701916E+04  0.10724698957E+04  0.00000000000E+00 0. -1.
         22    1    1    2    0    0  0.44950337596E+02  0.10035755493E+04 -0.18981938542E+03  0.10223579681E+04  0.00000000000E+00 0.  1.
<mgrwt>
<rscale>  0 0.27140460E+04</rscale>
<asrwt>0</asrwt>
<pdfrwt beam="1">  1        1 0.56811469E+00 0.27140460E+04</pdfrwt>
<pdfrwt beam="2">  1       -1 0.76720547E-01 0.27140460E+04</pdfrwt>
<totfact> 0.26009691E-01</totfact>
</mgrwt>
</event>
<event>
 6    1  0.1588846E-005  0.2804766E+04  0.7818608E-02  0.8301790E-01
          2   -1    0    0  501    0  0.00000000000E+00  0.00000000000E+00  0.19441286115E+04  0.19441286115E+04  0.00000000000E+00 0. -1.
         -2   -1    0    0    0  501 -0.00000000000E+00 -0.00000000000E+00 -0.10115987225E+04  0.10115987225E+04  0.00000000000E+00 0.  1.
         23    2    1    2    0    0  0.25046403066E+03  0.12503029526E+04  0.10786226117E+04  0.16722427071E+04  0.83541781272E+02 0.  0.
         11    1    3    3    0    0 -0.38859822820E+01  0.59641621073E+01  0.10775178033E+02  0.12914199533E+02  0.00000000000E+00 0. -1.
        -11    1    3    3    0    0  0.25435001294E+03  0.12443387904E+04  0.10678474337E+04  0.16593285076E+04  0.00000000000E+00 0.  1.
         22    1    1    2    0    0 -0.25046403066E+03 -0.12503029526E+04 -0.14609272264E+03  0.12834846269E+04  0.00000000000E+00 0.  1.
<mgrwt>
<rscale>  0 0.28047660E+04</rscale>
<asrwt>0</asrwt>
<pdfrwt beam="1">  1        2 0.29909671E+00 0.28047660E+04</pdfrwt>
<pdfrwt beam="2">  1       -2 0.15563057E+00 0.28047660E+04</pdfrwt>
<totfact> 0.16952280E+00</totfact>
</mgrwt>
</event>
<event>
 6    1  0.1588846E-005  0.3716606E+04  0.7818608E-02  0.8064292E-01
          2   -1    0    0  501    0  0.00000000000E+00  0.00000000000E+00  0.76871230344E+03  0.76871230344E+03  0.00000000000E+00 0. -1.
         -2   -1    0    0    0  501 -0.00000000000E+00 -0.00000000000E+00 -0.44923052854E+04  0.44923052854E+04  0.00000000000E+00 0.  1.
         23    2    1    2    0    0  0.17827325990E+04  0.47596618730E+03 -0.15641952098E+04  0.24206517551E+04  0.90382156028E+02 0.  0.
         13    1    3    3    0    0  0.10139733800E+04  0.30026505228E+03 -0.85077703276E+03  0.13572482000E+04  0.00000000000E+00 0. -1.
        -13    1    3    3    0    0  0.76875921899E+03  0.17570113502E+03 -0.71341817700E+03  0.10634035551E+04  0.00000000000E+00 0.  1.
         22    1    1    2    0    0 -0.17827325990E+04 -0.47596618730E+03 -0.21593977722E+04  0.28403658337E+04  0.00000000000E+00 0.  1.
<mgrwt>
<rscale>  0 0.37166062E+04</rscale>
<asrwt>0</asrwt>
<pdfrwt beam="1">  1        2 0.11826343E+00 0.37166062E+04</pdfrwt>
<pdfrwt beam="2">  1       -2 0.69112388E+00 0.37166062E+04</pdfrwt>
<totfact> 0.71435277E-03</totfact>
</mgrwt>
</event>
<event>
 6    1  0.1588846E-005  0.1559219E+04  0.7818608E-02  0.8846001E-01
         -1   -1    0    0    0  501 -0.00000000000E+00  0.00000000000E+00  0.82531091021E+03  0.82531091021E+03  0.00000000000E+00 0.  1.
          1   -1    0    0  501    0  0.00000000000E+00 -0.00000000000E+00 -0.73643882891E+03  0.73643882891E+03  0.00000000000E+00 0. -1.
         23    2    1    2    0    0  0.49117284274E+03  0.18344103728E+03 -0.52977080582E+03  0.75081176531E+03  0.90331747574E+02 0.  0.
         13    1    3    3    0    0  0.26057714517E+03  0.12069715869E+03 -0.34405642469E+03  0.44815519195E+03  0.00000000000E+00 0. -1.
        -13    1    3    3    0    0  0.23059569757E+03  0.62743878592E+02 -0.18571438113E+03  0.30265657336E+03  0.00000000000E+00 0.  1.
         22    1    1    2    0    0 -0.49117284274E+03 -0.18344103728E+03  0.61864288712E+03  0.81093797382E+03  0.00000000000E+00 0.  1.
<mgrwt>
<rscale>  0 0.15592190E+04</rscale>
<asrwt>0</asrwt>
<pdfrwt beam="1">  1        1 0.11329828E+00 0.15592190E+04</pdfrwt>
<pdfrwt beam="2">  1       -1 0.12697091E+00 0.15592190E+04</pdfrwt>
<totfact> 0.13059034E+01</totfact>
</mgrwt>
</event>
<event>
 6    1  0.1588846E-005  0.2565211E+04  0.7818608E-02  0.8380115E-01
         -2   -1    0    0    0  501 -0.00000000000E+00  0.00000000000E+00  0.11984173733E+04  0.11984173733E+04  0.00000000000E+00 0.  1.
          2   -1    0    0  501    0  0.00000000000E+00 -0.00000000000E+00 -0.13727082950E+04  0.13727082950E+04  0.00000000000E+00 0. -1.
         23    2    1    2    0    0 -0.77216567356E+03  0.35141644212E+03 -0.10491829050E+04  0.13524504343E+04  0.92758104080E+02 0.  0.
         11    1    3    3    0    0 -0.62903720888E+03  0.32279942645E+03 -0.85296206909E+03  0.11078951084E+04  0.00000000000E+00 0.  1.
        -11    1    3    3    0    0 -0.14312846467E+03  0.28617015665E+02 -0.19622083595E+03  0.24455532594E+03  0.00000000000E+00 0. -1.
         22    1    1    2    0    0  0.77216567356E+03 -0.35141644212E+03  0.87489198338E+03  0.12186752339E+04  0.00000000000E+00 0.  1.
<mgrwt>
<rscale>  0 0.25652115E+04</rscale>
<asrwt>0</asrwt>
<pdfrwt beam="1">  1        2 0.21118589E+00 0.25652115E+04</pdfrwt>
<pdfrwt beam="2">  1       -2 0.18437190E+00 0.25652115E+04</pdfrwt>
<totfact> 0.22522147E+00</totfact>
</mgrwt>
</event>
<event>
 6    1  0.1588846E-005  0.2692264E+04  0.7818608E-02  0.8337519E-01
         -1   -1    0    0    0  501 -0.00000000000E+00  0.00000000000E+00  0.13160665767E+04  0.13160665767E+04  0.00000000000E+00 0.  1.
          1   -1    0    0  501    0  0.00000000000E+00 -0.00000000000E+00 -0.13768842949E+04  0.13768842949E+04  0.00000000000E+00 0. -1.
         23    2    1    2    0    0  0.12756263913E+03  0.10130297716E+04 -0.90563100839E+03  0.13677297428E+04  0.89529776412E+02 0.  0.
         11    1    3    3    0    0  0.67023130313E+02  0.81316350221E+03 -0.73165461046E+03  0.10959221917E+04  0.00000000000E+00 0.  1.
        -11    1    3    3    0    0  0.60539508813E+02  0.19986626941E+03 -0.17397639793E+03  0.27180755106E+03  0.00000000000E+00 0. -1.
         22    1    1    2    0    0 -0.12756263913E+03 -0.10130297716E+04  0.84481329012E+03  0.13252211288E+04  0.00000000000E+00 0.  1.
<mgrwt>
<rscale>  0 0.26922640E+04</rscale>
<asrwt>0</asrwt>
<pdfrwt beam="1">  1        1 0.21182835E+00 0.26922640E+04</pdfrwt>
<pdfrwt beam="2">  1       -1 0.20247178E+00 0.26922640E+04</pdfrwt>
<totfact> 0.10086117E+00</totfact>
</mgrwt>
</event>
<event>
 6    1  0.1588846E-005  0.1962337E+04  0.7818608E-02  0.8624435E-01
         -2   -1    0    0    0  501 -0.00000000000E+00  0.00000000000E+00  0.63432742866E+03  0.63432742866E+03  0.00000000000E+00 0. -1.
          2   -1    0    0  501    0  0.00000000000E+00 -0.00000000000E+00 -0.15176565893E+04  0.15176565893E+04  0.00000000000E+00 0.  1.
         23    2    1    2    0    0 -0.76622585366E+03 -0.34524972763E+03 -0.99350061385E+03  0.13043772799E+04  0.89761825973E+02 0.  0.
         11    1    3    3    0    0 -0.50093187374E+03 -0.20597556050E+03 -0.69858428607E+03  0.88395626498E+03  0.00000000000E+00 0.  1.
        -11    1    3    3    0    0 -0.26529397992E+03 -0.13927416713E+03 -0.29491632778E+03  0.42042101494E+03  0.00000000000E+00 0. -1.
         22    1    1    2    0    0  0.76622585366E+03  0.34524972763E+03  0.11017145323E+03  0.84760673802E+03  0.00000000000E+00 0. -1.
<mgrwt>
<rscale>  0 0.19623366E+04</rscale>
<asrwt>0</asrwt>
<pdfrwt beam="1">  1        2 0.23348563E+00 0.19623366E+04</pdfrwt>
<pdfrwt beam="2">  1       -2 0.97588836E-01 0.19623366E+04</pdfrwt>
<totfact> 0.10116802E+01</totfact>
</mgrwt>
</event>
<event>
 6    1  0.1588846E-005  0.2930590E+04  0.7818608E-02  0.8263834E-01
          2   -1    0    0  501    0  0.00000000000E+00  0.00000000000E+00  0.15934002813E+04  0.15934002813E+04  0.00000000000E+00 0. -1.
         -2   -1    0    0    0  501 -0.00000000000E+00 -0.00000000000E+00 -0.13474887577E+04  0.13474887577E+04  0.00000000000E+00 0.  1.
         23    2    1    2    0    0  0.10948233412E+04  0.23777781485E+02  0.10979440965E+04  0.15533865933E+04  0.91242193990E+02 0.  0.
         11    1    3    3    0    0  0.33516180376E+03  0.47973999004E+02  0.35380984320E+03  0.48971047000E+03  0.00000000000E+00 0. -1.
        -11    1    3    3    0    0  0.75966153747E+03 -0.24196217519E+02  0.74413425325E+03  0.10636761233E+04  0.00000000000E+00 0.  1.
         22    1    1    2    0    0 -0.10948233412E+04 -0.23777781485E+02 -0.85203257295E+03  0.13875024457E+04  0.00000000000E+00 0.  1.
<mgrwt>
<rscale>  0 0.29305897E+04</rscale>
<asrwt>0</asrwt>
<pdfrwt beam="1">  1        2 0.24513850E+00 0.29305897E+04</pdfrwt>
<pdfrwt beam="2">  1       -2 0.20730596E+00 0.29305897E+04</pdfrwt>
<totfact> 0.11541608E+00</totfact>
</mgrwt>
</event>
<event>
 6    1  0.1588846E-005  0.1050864E+04  0.7818608E-02  0.9254453E-01
          4   -1    0    0  501    0  0.00000000000E+00  0.00000000000E+00  0.67401246976E+03  0.67401246976E+03  0.00000000000E+00 0. -1.
         -4   -1    0    0    0  501 -0.00000000000E+00 -0.00000000000E+00 -0.40960475714E+03  0.40960475714E+03  0.00000000000E+00 0.  1.
         23    2    1    2    0    0 -0.26483892930E+03 -0.49071550654E+02 -0.32720537622E+03  0.43357590326E+03  0.91526117096E+02 0.  0.
         11    1    3    3    0    0 -0.16659210186E+03  0.32259007252E+01 -0.14931682809E+03  0.22373835162E+03  0.00000000000E+00 0. -1.
        -11    1    3    3    0    0 -0.98246827439E+02 -0.52297451379E+02 -0.17788854813E+03  0.20983755164E+03  0.00000000000E+00 0.  1.
         22    1    1    2    0    0  0.26483892930E+03  0.49071550654E+02  0.59161308884E+03  0.65004132364E+03  0.00000000000E+00 0. -1.
<mgrwt>
<rscale>  0 0.10508639E+04</rscale>
<asrwt>0</asrwt>
<pdfrwt beam="1">  1        4 0.10369423E+00 0.10508639E+04</pdfrwt>
<pdfrwt beam="2">  1       -4 0.63016117E-01 0.10508639E+04</pdfrwt>
<totfact> 0.35343363E+00</totfact>
</mgrwt>
</event>
<event>
 6    1  0.1588846E-005  0.2931711E+04  0.7818608E-02  0.8263505E-01
          2   -1    0    0  501    0  0.00000000000E+00  0.00000000000E+00  0.22572882519E+04  0.22572882519E+04  0.00000000000E+00 0.  1.
         -2   -1    0    0    0  501 -0.00000000000E+00 -0.00000000000E+00 -0.95190880748E+03  0.95190880748E+03  0.00000000000E+00 0. -1.
         23    2    1    2    0    0  0.41277846121E+03  0.31659004053E+03  0.21516943281E+04  0.22157866739E+04  0.96471709921E+02 0.  0.
         11    1    3    3    0    0  0.19089142126E+03  0.12342688116E+03  0.75655971704E+03  0.78997236354E+03  0.00000000000E+00 0. -1.
        -11    1    3    3    0    0  0.22188703995E+03  0.19316315937E+03  0.13951346110E+04  0.14258143103E+04  0.00000000000E+00 0.  1.
         22    1    1    2    0    0 -0.41277846121E+03 -0.31659004053E+03 -0.84631488364E+03  0.99341038553E+03  0.00000000000E+00 0. -1.
<mgrwt>
<rscale>  0 0.29317112E+04</rscale>
<asrwt>0</asrwt>
<pdfrwt beam="1">  1        2 0.34727511E+00 0.29317112E+04</pdfrwt>
<pdfrwt beam="2">  1       -2 0.14644751E+00 0.29317112E+04</pdfrwt>
<totfact> 0.13171283E+00</totfact>
</mgrwt>
</event>
<event>
 6    1  0.1588846E-005  0.1565961E+04  0.7818608E-02  0.8841736E-01
          1   -1    0    0  501    0  0.00000000000E+00  0.00000000000E+00  0.21304698335E+04  0.21304698335E+04  0.00000000000E+00 0. -1.
         -1   -1    0    0    0  501 -0.00000000000E+00 -0.00000000000E+00 -0.28775755737E+03  0.28775755737E+03  0.00000000000E+00 0.  1.
         23    2    1    2    0    0 -0.50246625561E+03  0.40895173625E+03  0.15958120395E+04  0.17249211184E+04  0.94989149296E+02 0.  0.
         11    1    3    3    0    0 -0.17469498413E+03  0.19740633612E+03  0.69225336101E+03  0.74074443289E+03  0.00000000000E+00 0. -1.
        -11    1    3    3    0    0 -0.32777127148E+03  0.21154540013E+03  0.90355867852E+03  0.98417668548E+03  0.00000000000E+00 0.  1.
         22    1    1    2    0    0  0.50246625561E+03 -0.40895173625E+03  0.24690023656E+03  0.69330627245E+03  0.00000000000E+00 0.  1.
<mgrwt>
<rscale>  0 0.15659614E+04</rscale>
<asrwt>0</asrwt>
<pdfrwt beam="1">  1        1 0.32776458E+00 0.15659614E+04</pdfrwt>
<pdfrwt beam="2">  1       -1 0.44270395E-01 0.15659614E+04</pdfrwt>
<totfact> 0.11813899E+01</totfact>
</mgrwt>
</event>
<event>
 6    1  0.1588846E-005  0.2442566E+04  0.7818608E-02  0.8423737E-01
         -2   -1    0    0    0  501 -0.00000000000E+00  0.00000000000E+00  0.11306237198E+04  0.11306237198E+04  0.00000000000E+00 0.  1.
          2   -1    0    0  501    0  0.00000000000E+00 -0.00000000000E+00 -0.13192113967E+04  0.13192113967E+04  0.00000000000E+00 0. -1.
         23    2    1    2    0    0  0.98986528947E+03  0.71143544405E+03 -0.54220564706E+02  0.12234468406E+04  0.88930421487E+02 0.  0.
         13    1    3    3    0    0  0.51509065824E+03  0.33307618032E+03 -0.59963347249E+02  0.61632274915E+03  0.00000000000E+00 0. -1.
        -13    1    3    3    0    0  0.47477463123E+03  0.37835926373E+03  0.57427825439E+01  0.60712409148E+03  0.00000000000E+00 0.  1.
         22    1    1    2    0    0 -0.98986528947E+03 -0.71143544405E+03 -0.13436711223E+03  0.12263882759E+04  0.00000000000E+00 0. -1.
<mgrwt>
<rscale>  0 0.24425656E+04</rscale>
<asrwt>0</asrwt>
<pdfrwt beam="1">  1        2 0.20295560E+00 0.24425656E+04</pdfrwt>
<pdfrwt beam="2">  1       -2 0.17394211E+00 0.24425656E+04</pdfrwt>
<totfact> 0.28858209E+00</totfact>
</mgrwt>
</event>
<event>
 6    1  0.1588846E-005  0.2171452E+04  0.7818608E-02  0.8530405E-01
         -2   -1    0    0    0  501 -0.00000000000E+00  0.00000000000E+00  0.78821176664E+03  0.78821176664E+03  0.00000000000E+00 0.  1.
          2   -1    0    0  501    0  0.00000000000E+00 -0.00000000000E+00 -0.14955390553E+04  0.14955390553E+04  0.00000000000E+00 0. -1.
         23    2    1    2    0    0  0.23618122693E+03 -0.10367474822E+04 -0.13299048748E+03  0.10752436126E+04  0.88518036898E+02 0.  0.
         13    1    3    3    0    0  0.13062728358E+03 -0.75240733713E+03 -0.98504235594E+02  0.76998920292E+03  0.00000000000E+00 0.  1.
        -13    1    3    3    0    0  0.10555394335E+03 -0.28434014508E+03 -0.34486251881E+02  0.30525440968E+03  0.00000000000E+00 0. -1.
         22    1    1    2    0    0 -0.23618122693E+03  0.10367474822E+04 -0.57433680118E+03  0.12085072093E+04  0.00000000000E+00 0. -1.
<mgrwt>
<rscale>  0 0.21714525E+04</rscale>
<asrwt>0</asrwt>
<pdfrwt beam="1">  1        2 0.23008293E+00 0.21714525E+04</pdfrwt>
<pdfrwt beam="2">  1       -2 0.12126335E+00 0.21714525E+04</pdfrwt>
<totfact> 0.60525167E+00</totfact>
</mgrwt>
</event>
<event>
 6    1  0.1588846E-005  0.9397085E+03  0.7818608E-02  0.9377261E-01
         -2   -1    0    0    0  501 -0.00000000000E+00  0.00000000000E+00  0.33707738726E+03  0.33707738726E+03  0.00000000000E+00 0.  1.
          2   -1    0    0  501    0  0.00000000000E+00 -0.00000000000E+00 -0.65493276227E+03  0.65493276227E+03  0.00000000000E+00 0. -1.
         23    2    1    2    0    0  0.35263038294E+03  0.17304256836E+03 -0.42393374034E+03  0.58513850266E+03  0.91516849084E+02 0.  0.
         11    1    3    3    0    0  0.25789757712E+03  0.14433592613E+03 -0.25995820948E+03  0.39360169020E+03  0.00000000000E+00 0. -1.
        -11    1    3    3    0    0  0.94732805819E+02  0.28706642225E+02 -0.16397553086E+03  0.19153681246E+03  0.00000000000E+00 0.  1.
         22    1    1    2    0    0 -0.35263038294E+03 -0.17304256836E+03  0.10607836534E+03  0.40687164687E+03  0.00000000000E+00 0.  1.
<mgrwt>
<rscale>  0 0.93970852E+03</rscale>
<asrwt>0</asrwt>
<pdfrwt beam="1">  1        2 0.10075889E+00 0.93970852E+03</pdfrwt>
<pdfrwt beam="2">  1       -2 0.51858060E-01 0.93970852E+03</pdfrwt>
<totfact> 0.15666345E+02</totfact>
</mgrwt>
</event>
<event>
 6    1  0.1588846E-005  0.4416292E+04  0.7818608E-02  0.7925458E-01
          1   -1    0    0  501    0  0.00000000000E+00  0.00000000000E+00  0.53800433939E+04  0.53800433939E+04  0.00000000000E+00 0. -1.
         -1   -1    0    0    0  501 -0.00000000000E+00 -0.00000000000E+00 -0.90629545468E+03  0.90629545468E+03  0.00000000000E+00 0.  1.
         23    2    1    2    0    0  0.15782290175E+04 -0.14437202776E+03  0.50995051369E+02  0.15882122836E+04  0.90375043218E+02 0.  0.
         13    1    3    3    0    0  0.14169589056E+04 -0.15298600621E+03  0.60053525301E+02  0.14264584411E+04  0.00000000000E+00 0. -1.
        -13    1    3    3    0    0  0.16127011181E+03  0.86139784521E+01 -0.90584739320E+01  0.16175384243E+03  0.00000000000E+00 0.  1.
         22    1    1    2    0    0 -0.15782290175E+04  0.14437202776E+03  0.44227528878E+04  0.46981265650E+04  0.00000000000E+00 0. -1.
<mgrwt>
<rscale>  0 0.44162921E+04</rscale>
<asrwt>0</asrwt>
<pdfrwt beam="1">  1        1 0.82769896E+00 0.44162921E+04</pdfrwt>
<pdfrwt beam="2">  1       -1 0.13943007E+00 0.44162921E+04</pdfrwt>
<totfact> 0.76832050E-04</totfact>
</mgrwt>
</event>
<event>
 6    1  0.1588846E-005  0.2738169E+04  0.7818608E-02  0.8322726E-01
         -2   -1    0    0    0  501 -0.00000000000E+00  0.00000000000E+00  0.17821847648E+04  0.17821847648E+04  0.00000000000E+00 0. -1.
          2   -1    0    0  501    0  0.00000000000E+00 -0.00000000000E+00 -0.10517386473E+04  0.10517386473E+04  0.00000000000E+00 0.  1.
         23    2    1    2    0    0  0.87428149226E+03  0.90544744172E+03 -0.18789479591E+03  0.12758626846E+04  0.91202731077E+02 0.  0.
         11    1    3    3    0    0  0.33711536763E+03  0.38970460867E+03 -0.41635660853E+02  0.51696226300E+03  0.00000000000E+00 0. -1.
        -11    1    3    3    0    0  0.53716612463E+03  0.51574283305E+03 -0.14625913506E+03  0.75890042158E+03  0.00000000000E+00 0.  1.
         22    1    1    2    0    0 -0.87428149226E+03 -0.90544744172E+03  0.91834091339E+03  0.15580607275E+04  0.00000000000E+00 0. -1.
<mgrwt>
<rscale>  0 0.27381692E+04</rscale>
<asrwt>0</asrwt>
<pdfrwt beam="1">  1        2 0.16180595E+00 0.27381692E+04</pdfrwt>
<pdfrwt beam="2">  1       -2 0.27418227E+00 0.27381692E+04</pdfrwt>
<totfact> 0.93317512E-01</totfact>
</mgrwt>
</event>
<event>
 6    1  0.1588846E-005  0.3050122E+04  0.7818608E-02  0.8229561E-01
          2   -1    0    0  501    0  0.00000000000E+00  0.00000000000E+00  0.12013889901E+04  0.12013889901E+04  0.00000000000E+00 0.  1.
         -2   -1    0    0    0  501 -0.00000000000E+00 -0.00000000000E+00 -0.19359348999E+04  0.19359348999E+04  0.00000000000E+00 0. -1.
         23    2    1    2    0    0 -0.13134974784E+03  0.15176187097E+04 -0.32726155896E+03  0.15605233805E+04  0.87828177514E+02 0.  0.
         11    1    3    3    0    0 -0.21988372121E+02  0.74675262161E+03 -0.14892237393E+03  0.76177479602E+03  0.00000000000E+00 0.  1.
        -11    1    3    3    0    0 -0.10936137572E+03  0.77086608813E+03 -0.17833918503E+03  0.79874858450E+03  0.00000000000E+00 0. -1.
         22    1    1    2    0    0  0.13134974784E+03 -0.15176187097E+04 -0.40728435079E+03  0.15768005095E+04  0.00000000000E+00 0.  1.
<mgrwt>
<rscale>  0 0.30501219E+04</rscale>
<asrwt>0</asrwt>
<pdfrwt beam="1">  1        2 0.18482907E+00 0.30501219E+04</pdfrwt>
<pdfrwt beam="2">  1       -2 0.29783614E+00 0.30501219E+04</pdfrwt>
<totfact> 0.52805428E-01</totfact>
</mgrwt>
</event>
<event>
 6    1  0.1588846E-005  0.6140520E+03  0.7818608E-02  0.9876674E-01
         -1   -1    0    0    0  501 -0.00000000000E+00  0.00000000000E+00  0.26071872658E+03  0.26071872658E+03  0.00000000000E+00 0.  1.
          1   -1    0    0  501    0  0.00000000000E+00 -0.00000000000E+00 -0.36155807544E+03  0.36155807544E+03  0.00000000000E+00 0. -1.
         23    2    1    2    0    0 -0.44044877578E+02  0.29068019608E+03 -0.11393710304E+03  0.32798701492E+03  0.90326579011E+02 0.  0.
         13    1    3    3    0    0 -0.67634735463E+02  0.20805373369E+03 -0.10147643616E+03  0.24116027998E+03  0.00000000000E+00 0. -1.
        -13    1    3    3    0    0  0.23589857885E+02  0.82626462385E+02 -0.12460666874E+02  0.86826734939E+02  0.00000000000E+00 0.  1.
         22    1    1    2    0    0  0.44044877578E+02 -0.29068019608E+03  0.13097754174E+02  0.29428978711E+03  0.00000000000E+00 0. -1.
<mgrwt>
<rscale>  0 0.61405199E+03</rscale>
<asrwt>0</asrwt>
<pdfrwt beam="1">  1        1 0.55624319E-01 0.61405199E+03</pdfrwt>
<pdfrwt beam="2">  1       -1 0.40110573E-01 0.61405199E+03</pdfrwt>
<totfact> 0.42088910E+02</totfact>
</mgrwt>
</event>
<event>
 6    1  0.1588846E-005  0.3205081E+04  0.7818608E-02  0.8187477E-01
          1   -1    0    0  501    0  0.00000000000E+00  0.00000000000E+00  0.34732316041E+04  0.34732316041E+04  0.00000000000E+00 0. -1.
         -1   -1    0    0    0  501 -0.00000000000E+00 -0.00000000000E+00 -0.73940801695E+03  0.73940801695E+03  0.00000000000E+00 0.  1.
         23    2    1    2    0    0  0.11355678850E+04  0.37931399414E+03  0.27656001109E+04  0.30149738601E+04  0.90165824468E+02 0.  0.
         13    1    3    3    0    0  0.61643348113E+03  0.20786088548E+03  0.16147260467E+04  0.17408436432E+04  0.00000000000E+00 0. -1.
        -13    1    3    3    0    0  0.51913440390E+03  0.17145310867E+03  0.11508740642E+04  0.12741302168E+04  0.00000000000E+00 0.  1.
         22    1    1    2    0    0 -0.11355678850E+04 -0.37931399414E+03 -0.31776523692E+02  0.11976657610E+04  0.00000000000E+00 0.  1.
<mgrwt>
<rscale>  0 0.32050805E+04</rscale>
<asrwt>0</asrwt>
<pdfrwt beam="1">  1        1 0.53434331E+00 0.32050805E+04</pdfrwt>
<pdfrwt beam="2">  1       -1 0.11375508E+00 0.32050805E+04</pdfrwt>
<totfact> 0.15436571E-01</totfact>
</mgrwt>
</event>
<event>
 6    1  0.1588846E-005  0.3072995E+04  0.7818608E-02  0.8223189E-01
         -2   -1    0    0    0  501 -0.00000000000E+00  0.00000000000E+00  0.13403888808E+04  0.13403888808E+04  0.00000000000E+00 0.  1.
          2   -1    0    0  501    0  0.00000000000E+00 -0.00000000000E+00 -0.17612979004E+04  0.17612979004E+04  0.00000000000E+00 0. -1.
         23    2    1    2    0    0 -0.49409777675E+03  0.14052545688E+04  0.16473911005E+03  0.15011066527E+04  0.85493813720E+02 0.  0.
         11    1    3    3    0    0 -0.15551483032E+03  0.54888862979E+03  0.84990195647E+02  0.57679019037E+03  0.00000000000E+00 0. -1.
        -11    1    3    3    0    0 -0.33858294643E+03  0.85636593901E+03  0.79748914400E+02  0.92431646229E+03  0.00000000000E+00 0.  1.
         22    1    1    2    0    0  0.49409777675E+03 -0.14052545688E+04 -0.58564812959E+03  0.16005801285E+04  0.00000000000E+00 0. -1.
<mgrwt>
<rscale>  0 0.30729947E+04</rscale>
<asrwt>0</asrwt>
<pdfrwt beam="1">  1        2 0.27096891E+00 0.30729947E+04</pdfrwt>
<pdfrwt beam="2">  1       -2 0.20621368E+00 0.30729947E+04</pdfrwt>
<totfact> 0.93468520E-01</totfact>
</mgrwt>
</event>
<event>
 6    1  0.1588846E-005  0.1261919E+04  0.7818608E-02  0.9060321E-01
          2   -1    0    0  501    0  0.00000000000E+00  0.00000000000E+00  0.14384414157E+04  0.14384414157E+04  0.00000000000E+00 0. -1.
         -2   -1    0    0    0  501 -0.00000000000E+00 -0.00000000000E+00 -0.27676474472E+03  0.27676474472E+03  0.00000000000E+00 0.  1.
         23    2    1    2    0    0  0.23133982615E+03 -0.35060300288E+03 -0.43709284065E+02  0.43872823996E+03  0.11887550729E+03 0.  0.
         13    1    3    3    0    0  0.11753419301E+03 -0.18545685305E+03  0.36770043996E+02  0.22262202723E+03  0.00000000000E+00 0. -1.
        -13    1    3    3    0    0  0.11380563313E+03 -0.16514614983E+03 -0.80479328061E+02  0.21610621273E+03  0.00000000000E+00 0.  1.
         22    1    1    2    0    0 -0.23133982615E+03  0.35060300288E+03  0.12053859551E+04  0.12764779205E+04  0.00000000000E+00 0. -1.
<mgrwt>
<rscale>  0 0.12619190E+04</rscale>
<asrwt>0</asrwt>
<pdfrwt beam="1">  1        2 0.22129868E+00 0.12619190E+04</pdfrwt>
<pdfrwt beam="2">  1       -2 0.42579192E-01 0.12619190E+04</pdfrwt>
<totfact> 0.70655705E+01</totfact>
</mgrwt>
</event>
<event>
 6    1  0.1588846E-005  0.1960236E+04  0.7818608E-02  0.8625441E-01
          2   -1    0    0  501    0  0.00000000000E+00  0.00000000000E+00  0.11086321850E+04  0.11086321850E+04  0.00000000000E+00 0. -1.
         -2   -1    0    0    0  501 -0.00000000000E+00 -0.00000000000E+00 -0.86650115286E+03  0.86650115286E+03  0.00000000000E+00 0.  1.
         23    2    1    2    0    0  0.61500682464E+03 -0.31131366200E+03  0.82040189312E+03  0.10753851625E+04  0.90798628785E+02 0.  0.
         13    1    3    3    0    0  0.20804953173E+03 -0.15427301261E+03  0.31200619201E+03  0.40550293948E+03  0.00000000000E+00 0. -1.
        -13    1    3    3    0    0  0.40695729291E+03 -0.15704064939E+03  0.50839570111E+03  0.66988222303E+03  0.00000000000E+00 0.  1.
         22    1    1    2    0    0 -0.61500682464E+03  0.31131366200E+03 -0.57827086094E+03  0.89974817539E+03  0.00000000000E+00 0.  1.
<mgrwt>
<rscale>  0 0.19602358E+04</rscale>
<asrwt>0</asrwt>
<pdfrwt beam="1">  1        2 0.17055880E+00 0.19602358E+04</pdfrwt>
<pdfrwt beam="2">  1       -2 0.13330787E+00 0.19602358E+04</pdfrwt>
<totfact> 0.81728887E+00</totfact>
</mgrwt>
</event>
<event>
 6    1  0.1588846E-005  0.4145265E+04  0.7818608E-02  0.7975866E-01
         -1   -1    0    0    0  501 -0.00000000000E+00  0.00000000000E+00  0.12366525657E+04  0.12366525657E+04  0.00000000000E+00 0.  1.
          1   -1    0    0  501    0  0.00000000000E+00 -0.00000000000E+00 -0.34737359531E+04  0.34737359531E+04  0.00000000000E+00 0. -1.
         23    2    1    2    0    0  0.10205281383E+04  0.11790467762E+04 -0.26688144074E+04  0.30923586503E+04  0.92101567445E+02 0.  0.
         13    1    3    3    0    0  0.36541004985E+03  0.49080661423E+03 -0.10419463583E+04  0.12083326739E+04  0.00000000000E+00 0. -1.
        -13    1    3    3    0    0  0.65511808849E+03  0.68824016199E+03 -0.16268680491E+04  0.18840259764E+04  0.00000000000E+00 0.  1.
         22    1    1    2    0    0 -0.10205281383E+04 -0.11790467762E+04  0.43173102009E+03  0.16180298685E+04  0.00000000000E+00 0. -1.
<mgrwt>
<rscale>  0 0.41452645E+04</rscale>
<asrwt>0</asrwt>
<pdfrwt beam="1">  1        1 0.53442091E+00 0.41452645E+04</pdfrwt>
<pdfrwt beam="2">  1       -1 0.19025424E+00 0.41452645E+04</pdfrwt>
<totfact> 0.35617979E-02</totfact>
</mgrwt>
</event>
<event>
 6    1  0.1588846E-005  0.7856219E+03  0.7818608E-02  0.9581065E-01
          2   -1    0    0  501    0  0.00000000000E+00  0.00000000000E+00  0.99207355559E+03  0.99207355559E+03  0.00000000000E+00 0. -1.
         -2   -1    0    0    0  501 -0.00000000000E+00 -0.00000000000E+00 -0.15553326848E+03  0.15553326848E+03  0.00000000000E+00 0.  1.
         23    2    1    2    0    0  0.94394928463E+02  0.25573794817E+03  0.82628842014E+03  0.87481129362E+03  0.90719047217E+02 0.  0.
         11    1    3    3    0    0 -0.79206411683E+01  0.85753688849E+02  0.30913232105E+03  0.32090376069E+03  0.00000000000E+00 0. -1.
        -11    1    3    3    0    0  0.10231556963E+03  0.16998425933E+03  0.51715609909E+03  0.55390753292E+03  0.00000000000E+00 0.  1.
         22    1    1    2    0    0 -0.94394928463E+02 -0.25573794817E+03  0.10251866976E+02  0.27279553045E+03  0.00000000000E+00 0.  1.
<mgrwt>
<rscale>  0 0.78562190E+03</rscale>
<asrwt>0</asrwt>
<pdfrwt beam="1">  1        2 0.15262670E+00 0.78562190E+03</pdfrwt>
<pdfrwt beam="2">  1       -2 0.23928196E-01 0.78562190E+03</pdfrwt>
<totfact> 0.39740852E+02</totfact>
</mgrwt>
</event>
<event>
 6    1  0.1588846E-005  0.1497648E+04  0.7818608E-02  0.8886018E-01
          2   -1    0    0  501    0  0.00000000000E+00  0.00000000000E+00  0.80008777989E+03  0.80008777989E+03  0.00000000000E+00 0.  1.
         -2   -1    0    0    0  501 -0.00000000000E+00 -0.00000000000E+00 -0.70084480266E+03  0.70084480266E+03  0.00000000000E+00 0. -1.
         23    2    1    2    0    0  0.37062646171E+03 -0.16618997223E+03  0.67707283838E+03  0.79462498000E+03  0.89544119722E+02 0.  0.
         11    1    3    3    0    0  0.10650711324E+03 -0.53319382169E+02  0.12723237119E+03  0.17428367096E+03  0.00000000000E+00 0. -1.
        -11    1    3    3    0    0  0.26411934847E+03 -0.11287059006E+03  0.54984046719E+03  0.62034130904E+03  0.00000000000E+00 0.  1.
         22    1    1    2    0    0 -0.37062646171E+03  0.16618997223E+03 -0.57782986114E+03  0.70630760255E+03  0.00000000000E+00 0. -1.
<mgrwt>
<rscale>  0 0.14976480E+04</rscale>
<asrwt>0</asrwt>
<pdfrwt beam="1">  1        2 0.12309043E+00 0.14976480E+04</pdfrwt>
<pdfrwt beam="2">  1       -2 0.10782228E+00 0.14976480E+04</pdfrwt>
<totfact> 0.22954048E+01</totfact>
</mgrwt>
</event>
<event>
 6    1  0.1588846E-005  0.1669801E+04  0.7818608E-02  0.8778778E-01
          2   -1    0    0  501    0  0.00000000000E+00  0.00000000000E+00  0.20361425947E+04  0.20361425947E+04  0.00000000000E+00 0. -1.
         -2   -1    0    0    0  501 -0.00000000000E+00 -0.00000000000E+00 -0.34234291007E+03  0.34234291007E+03  0.00000000000E+00 0.  1.
         23    2    1    2    0    0 -0.16720626822E+03  0.46506560945E+03 -0.10477615785E+03  0.51324583696E+03  0.90549923699E+02 0.  0.
         11    1    3    3    0    0 -0.20625504715E+02  0.18575600192E+03 -0.44032831979E+02  0.19201456712E+03  0.00000000000E+00 0. -1.
        -11    1    3    3    0    0 -0.14658076350E+03  0.27930960753E+03 -0.60743325873E+02  0.32123126984E+03  0.00000000000E+00 0.  1.
         22    1    1    2    0    0  0.16720626822E+03 -0.46506560945E+03  0.17985758425E+04  0.18652396678E+04  0.00000000000E+00 0. -1.
<mgrwt>
<rscale>  0 0.16698012E+04</rscale>
<asrwt>0</asrwt>
<pdfrwt beam="1">  1        2 0.31325270E+00 0.16698012E+04</pdfrwt>
<pdfrwt beam="2">  1       -2 0.52668141E-01 0.16698012E+04</pdfrwt>
<totfact> 0.20695729E+01</totfact>
</mgrwt>
</event>
<event>
 6    1  0.1588846E-005  0.4379310E+04  0.7818608E-02  0.7932114E-01
          2   -1    0    0  501    0  0.00000000000E+00  0.00000000000E+00  0.23083799263E+04  0.23083799263E+04  0.00000000000E+00 0. -1.
         -2   -1    0    0    0  501 -0.00000000000E+00 -0.00000000000E+00 -0.20770362874E+04  0.20770362874E+04  0.00000000000E+00 0.  1.
         23    2    1    2    0    0 -0.19797929675E+04 -0.61064110038E+03  0.82202875577E+03  0.22310319270E+04  0.96485418338E+02 0.  0.
         13    1    3    3    0    0 -0.14622746137E+04 -0.41891430892E+03  0.57111735182E+03  0.16247803770E+04  0.00000000000E+00 0.  1.
        -13    1    3    3    0    0 -0.51751835386E+03 -0.19172679146E+03  0.25091140395E+03  0.60625154991E+03  0.00000000000E+00 0. -1.
         22    1    1    2    0    0  0.19797929675E+04  0.61064110038E+03 -0.59068511681E+03  0.21543842868E+04  0.00000000000E+00 0.  1.
<mgrwt>
<rscale>  0 0.43793099E+04</rscale>
<asrwt>0</asrwt>
<pdfrwt beam="1">  1        2 0.35513537E+00 0.43793099E+04</pdfrwt>
<pdfrwt beam="2">  1       -2 0.31954404E+00 0.43793099E+04</pdfrwt>
<totfact> 0.82686781E-02</totfact>
</mgrwt>
</event>
<event>
 6    1  0.1588846E-005  0.1305572E+04  0.7818608E-02  0.9025158E-01
          2   -1    0    0  501    0  0.00000000000E+00  0.00000000000E+00  0.12930383569E+04  0.12930383569E+04  0.00000000000E+00 0. -1.
         -2   -1    0    0    0  501 -0.00000000000E+00 -0.00000000000E+00 -0.32955675711E+03  0.32955675711E+03  0.00000000000E+00 0.  1.
         23    2    1    2    0    0  0.29003180003E+03 -0.20806722206E+03  0.11585569095E+04  0.12158214788E+04  0.92505901690E+02 0.  0.
         13    1    3    3    0    0  0.14751788657E+03 -0.50204812618E+02  0.46854970817E+03  0.49378221829E+03  0.00000000000E+00 0.  1.
        -13    1    3    3    0    0  0.14251391346E+03 -0.15786240944E+03  0.69000720128E+03  0.72203926047E+03  0.00000000000E+00 0. -1.
         22    1    1    2    0    0 -0.29003180003E+03  0.20806722206E+03 -0.19507530963E+03  0.40677363528E+03  0.00000000000E+00 0.  1.
<mgrwt>
<rscale>  0 0.13055719E+04</rscale>
<asrwt>0</asrwt>
<pdfrwt beam="1">  1        2 0.19892897E+00 0.13055719E+04</pdfrwt>
<pdfrwt beam="2">  1       -2 0.50701040E-01 0.13055719E+04</pdfrwt>
<totfact> 0.60119629E+01</totfact>
</mgrwt>
</event>
<event>
 6    1  0.1588846E-005  0.1174894E+04  0.7818608E-02  0.9135120E-01
         -3   -1    0    0    0  501 -0.00000000000E+00  0.00000000000E+00  0.50285425973E+03  0.50285425973E+03  0.00000000000E+00 0.  1.
          3   -1    0    0  501    0  0.00000000000E+00 -0.00000000000E+00 -0.68627031487E+03  0.68627031487E+03  0.00000000000E+00 0. -1.
         23    2    1    2    0    0  0.51360556780E+03 -0.21476231613E+03  0.85912240066E+02  0.57069813410E+03  0.91661963570E+02 0.  0.
         11    1    3    3    0    0  0.28249009566E+03 -0.13738337862E+03  0.90593632874E+02  0.32692820800E+03  0.00000000000E+00 0. -1.
        -11    1    3    3    0    0  0.23111547214E+03 -0.77378937511E+02 -0.46813928076E+01  0.24376992610E+03  0.00000000000E+00 0.  1.
         22    1    1    2    0    0 -0.51360556780E+03  0.21476231613E+03 -0.26932829521E+03  0.61842644050E+03  0.00000000000E+00 0. -1.
<mgrwt>
<rscale>  0 0.11748940E+04</rscale>
<asrwt>0</asrwt>
<pdfrwt beam="1">  1        3 0.10558005E+00 0.11748940E+04</pdfrwt>
<pdfrwt beam="2">  1       -3 0.77362194E-01 0.11748940E+04</pdfrwt>
<totfact> 0.31249467E+00</totfact>
</mgrwt>
</event>
<event>
 6    1  0.1588846E-005  0.1316102E+04  0.7818608E-02  0.9016893E-01
         -1   -1    0    0    0  501 -0.00000000000E+00  0.00000000000E+00  0.24972125061E+03  0.24972125061E+03  0.00000000000E+00 0.  1.
          1   -1    0    0  501    0  0.00000000000E+00 -0.00000000000E+00 -0.17340573189E+04  0.17340573189E+04  0.00000000000E+00 0. -1.
         23    2    1    2    0    0 -0.66435686690E+02 -0.59079536492E+03 -0.33129126730E+03  0.68648709233E+03  0.89765029235E+02 0.  0.
         13    1    3    3    0    0 -0.65858401626E+02 -0.22370317772E+03 -0.14780450830E+03  0.27609167583E+03  0.00000000000E+00 0.  1.
        -13    1    3    3    0    0 -0.57728506477E+00 -0.36709218720E+03 -0.18348675900E+03  0.41039541651E+03  0.00000000000E+00 0. -1.
         22    1    1    2    0    0  0.66435686690E+02  0.59079536492E+03 -0.11530448010E+04  0.12972914772E+04  0.00000000000E+00 0. -1.
<mgrwt>
<rscale>  0 0.13161018E+04</rscale>
<asrwt>0</asrwt>
<pdfrwt beam="1">  1        1 0.26677804E+00 0.13161018E+04</pdfrwt>
<pdfrwt beam="2">  1       -1 0.38418655E-01 0.13161018E+04</pdfrwt>
<totfact> 0.29076444E+01</totfact>
</mgrwt>
</event>
<event>
 6    1  0.1588846E-005  0.6873078E+03  0.7818608E-02  0.9739187E-01
          1   -1    0    0  501    0  0.00000000000E+00  0.00000000000E+00  0.10387643889E+04  0.10387643889E+04  0.00000000000E+00 0. -1.
         -1   -1    0    0    0  501 -0.00000000000E+00 -0.00000000000E+00 -0.11369083758E+03  0.11369083758E+03  0.00000000000E+00 0.  1.
         23    2    1    2    0    0  0.23265748425E+03  0.23614900342E+03  0.57885252972E+03  0.67311729496E+03  0.90115397239E+02 0.  0.
         11    1    3    3    0    0  0.73940574056E+02  0.12737390638E+03  0.20206791005E+03  0.25004551744E+03  0.00000000000E+00 0.  1.
        -11    1    3    3    0    0  0.15871691019E+03  0.10877509703E+03  0.37678461967E+03  0.42307177752E+03  0.00000000000E+00 0. -1.
         22    1    1    2    0    0 -0.23265748425E+03 -0.23614900342E+03  0.34622102157E+03  0.47933793149E+03  0.00000000000E+00 0.  1.
<mgrwt>
<rscale>  0 0.68730777E+03</rscale>
<asrwt>0</asrwt>
<pdfrwt beam="1">  1        1 0.15980990E+00 0.68730777E+03</pdfrwt>
<pdfrwt beam="2">  1       -1 0.17490899E-01 0.68730777E+03</pdfrwt>
<totfact> 0.36572872E+02</totfact>
</mgrwt>
</event>
<event>
 6    1  0.1588846E-005  0.1376624E+04  0.7818608E-02  0.8970915E-01
         -2   -1    0    0    0  501 -0.00000000000E+00  0.00000000000E+00  0.19480778337E+03  0.19480778337E+03  0.00000000000E+00 0.  1.
          2   -1    0    0  501    0  0.00000000000E+00 -0.00000000000E+00 -0.24320058556E+04  0.24320058556E+04  0.00000000000E+00 0. -1.
         23    2    1    2    0    0  0.49534646235E+03 -0.14182560663E+03 -0.26184624034E+03  0.58536868986E+03  0.92792397475E+02 0.  0.
         11    1    3    3    0    0  0.15531005082E+03 -0.22750038813E+02 -0.39011589648E+02  0.16174263593E+03  0.00000000000E+00 0.  1.
        -11    1    3    3    0    0  0.34003641154E+03 -0.11907556782E+03 -0.22283465069E+03  0.42362605393E+03  0.00000000000E+00 0. -1.
         22    1    1    2    0    0 -0.49534646235E+03  0.14182560663E+03 -0.19753518319E+04  0.20414449491E+04  0.00000000000E+00 0. -1.
<mgrwt>
<rscale>  0 0.13766244E+04</rscale>
<asrwt>0</asrwt>
<pdfrwt beam="1">  1        2 0.37415473E+00 0.13766244E+04</pdfrwt>
<pdfrwt beam="2">  1       -2 0.29970430E-01 0.13766244E+04</pdfrwt>
<totfact> 0.38294546E+01</totfact>
</mgrwt>
</event>
<event>
 6    1  0.1588846E-005  0.2598244E+04  0.7818608E-02  0.8368798E-01
         -2   -1    0    0    0  501 -0.00000000000E+00  0.00000000000E+00  0.53590550269E+03  0.53590550269E+03  0.00000000000E+00 0. -1.
          2   -1    0    0  501    0  0.00000000000E+00 -0.00000000000E+00 -0.31492817830E+04  0.31492817830E+04  0.00000000000E+00 0.  1.
         23    2    1    2    0    0 -0.39080580727E+03  0.98969094150E+03 -0.25523803469E+03  0.10980975454E+04  0.91947954149E+02 0.  0.
         11    1    3    3    0    0 -0.23870253813E+03  0.53293524454E+03 -0.10132595981E+03  0.59267683160E+03  0.00000000000E+00 0.  1.
        -11    1    3    3    0    0 -0.15210326914E+03  0.45675569696E+03 -0.15391207488E+03  0.50542071384E+03  0.00000000000E+00 0. -1.
         22    1    1    2    0    0  0.39080580727E+03 -0.98969094150E+03 -0.23581382456E+04  0.25870897403E+04  0.00000000000E+00 0.  1.
<mgrwt>
<rscale>  0 0.25982436E+04</rscale>
<asrwt>0</asrwt>
<pdfrwt beam="1">  1        2 0.48450488E+00 0.25982436E+04</pdfrwt>
<pdfrwt beam="2">  1       -2 0.82447003E-01 0.25982436E+04</pdfrwt>
<totfact> 0.15983912E+00</totfact>
</mgrwt>
</event>
<event>
 6    1  0.1588846E-005  0.3139470E+04  0.7818608E-02  0.8204989E-01
          1   -1    0    0  501    0  0.00000000000E+00  0.00000000000E+00  0.30707598394E+04  0.30707598394E+04  0.00000000000E+00 0. -1.
         -1   -1    0    0    0  501 -0.00000000000E+00 -0.00000000000E+00 -0.80242929661E+03  0.80242929661E+03  0.00000000000E+00 0.  1.
         23    2    1    2    0    0 -0.56640204382E+02 -0.58349301471E+03  0.29297961802E+04  0.29893288526E+04  0.93322668418E+02 0.  0.
         11    1    3    3    0    0  0.20764476458E+02 -0.17690084924E+03  0.78375607636E+03  0.80374041903E+03  0.00000000000E+00 0. -1.
        -11    1    3    3    0    0 -0.77404680840E+02 -0.40659216547E+03  0.21460401038E+04  0.21855884336E+04  0.00000000000E+00 0.  1.
         22    1    1    2    0    0  0.56640204382E+02  0.58349301471E+03 -0.66146563747E+03  0.88386028337E+03  0.00000000000E+00 0.  1.
<mgrwt>
<rscale>  0 0.31394698E+04</rscale>
<asrwt>0</asrwt>
<pdfrwt beam="1">  1        1 0.47242458E+00 0.31394698E+04</pdfrwt>
<pdfrwt beam="2">  1       -1 0.12345066E+00 0.31394698E+04</pdfrwt>
<totfact> 0.25725991E-01</totfact>
</mgrwt>
</event>
<event>
 6    1  0.1588846E-005  0.1850510E+04  0.7818608E-02  0.8679890E-01
          1   -1    0    0  501    0  0.00000000000E+00  0.00000000000E+00  0.12322143165E+04  0.12322143165E+04  0.00000000000E+00 0. -1.
         -1   -1    0    0    0  501 -0.00000000000E+00 -0.00000000000E+00 -0.69476324128E+03  0.69476324128E+03  0.00000000000E+00 0.  1.
         23    2    1    2    0    0  0.80556703600E+03 -0.17247871172E+03  0.70271834057E+03  0.10867392436E+04  0.92206084416E+02 0.  0.
         11    1    3    3    0    0  0.59400075286E+03 -0.11471769148E+03  0.56495126029E+03  0.82774813176E+03  0.00000000000E+00 0. -1.
        -11    1    3    3    0    0  0.21156628314E+03 -0.57761020238E+02  0.13776708028E+03  0.25899111187E+03  0.00000000000E+00 0.  1.
         22    1    1    2    0    0 -0.80556703600E+03  0.17247871172E+03 -0.16526726538E+03  0.84023831410E+03  0.00000000000E+00 0.  1.
<mgrwt>
<rscale>  0 0.18505104E+04</rscale>
<asrwt>0</asrwt>
<pdfrwt beam="1">  1        1 0.18957143E+00 0.18505104E+04</pdfrwt>
<pdfrwt beam="2">  1       -1 0.10688665E+00 0.18505104E+04</pdfrwt>
<totfact> 0.77675789E+00</totfact>
</mgrwt>
</event>
<event>
 6    1  0.1588846E-005  0.3885493E+04  0.7818608E-02  0.8028053E-01
         -1   -1    0    0    0  501 -0.00000000000E+00  0.00000000000E+00  0.13666843119E+04  0.13666843119E+04  0.00000000000E+00 0.  1.
          1   -1    0    0  501    0  0.00000000000E+00 -0.00000000000E+00 -0.27616202798E+04  0.27616202798E+04  0.00000000000E+00 0. -1.
         23    2    1    2    0    0  0.65154171810E+03 -0.15076921225E+04  0.40248509311E+03  0.16934812681E+04  0.90787711862E+02 0.  0.
         13    1    3    3    0    0  0.51825100329E+03 -0.11439625278E+04  0.27475423924E+03  0.12855832370E+04  0.00000000000E+00 0.  1.
        -13    1    3    3    0    0  0.13329071481E+03 -0.36372959474E+03  0.12773085386E+03  0.40789803109E+03  0.00000000000E+00 0. -1.
         22    1    1    2    0    0 -0.65154171810E+03  0.15076921225E+04 -0.17974210609E+04  0.24348233236E+04  0.00000000000E+00 0. -1.
<mgrwt>
<rscale>  0 0.38854926E+04</rscale>
<asrwt>0</asrwt>
<pdfrwt beam="1">  1        1 0.42486466E+00 0.38854926E+04</pdfrwt>
<pdfrwt beam="2">  1       -1 0.21025912E+00 0.38854926E+04</pdfrwt>
<totfact> 0.89755748E-02</totfact>
</mgrwt>
</event>
<event>
 6    1  0.1588846E-005  0.2624840E+04  0.7818608E-02  0.8359812E-01
          2   -1    0    0  501    0  0.00000000000E+00  0.00000000000E+00  0.18241520243E+04  0.18241520243E+04  0.00000000000E+00 0. -1.
         -2   -1    0    0    0  501 -0.00000000000E+00 -0.00000000000E+00 -0.94424525899E+03  0.94424525899E+03  0.00000000000E+00 0.  1.
         23    2    1    2    0    0  0.74919561298E+03  0.29234051625E+02 -0.69339358305E+03  0.10255769591E+04  0.94152757473E+02 0.  0.
         13    1    3    3    0    0  0.35774074214E+03 -0.51894218936E+01 -0.38895832967E+03  0.52848268742E+03  0.00000000000E+00 0.  1.
        -13    1    3    3    0    0  0.39145487084E+03  0.34423473519E+02 -0.30443525338E+03  0.49709427167E+03  0.00000000000E+00 0. -1.
         22    1    1    2    0    0 -0.74919561298E+03 -0.29234051625E+02  0.15733003484E+04  0.17428203242E+04  0.00000000000E+00 0. -1.
<mgrwt>
<rscale>  0 0.26248405E+04</rscale>
<asrwt>0</asrwt>
<pdfrwt beam="1">  1        2 0.28063877E+00 0.26248405E+04</pdfrwt>
<pdfrwt beam="2">  1       -2 0.14526850E+00 0.26248405E+04</pdfrwt>
<totfact> 0.24086240E+00</totfact>
</mgrwt>
</event>
<event>
 6    1  0.1588846E-005  0.1365891E+04  0.7818608E-02  0.8978885E-01
         -2   -1    0    0    0  501 -0.00000000000E+00  0.00000000000E+00  0.20871119627E+03  0.20871119627E+03  0.00000000000E+00 0.  1.
          2   -1    0    0  501    0  0.00000000000E+00 -0.00000000000E+00 -0.22347359249E+04  0.22347359249E+04  0.00000000000E+00 0. -1.
         23    2    1    2    0    0 -0.27040332206E+03 -0.22754655498E+03 -0.20566321616E+04  0.20887187656E+04  0.90082420940E+02 0.  0.
         11    1    3    3    0    0 -0.79961325358E+02 -0.19569993602E+02 -0.42565241498E+03  0.43353982121E+03  0.00000000000E+00 0. -1.
        -11    1    3    3    0    0 -0.19044199670E+03 -0.20797656138E+03 -0.16309797466E+04  0.16551789444E+04  0.00000000000E+00 0.  1.
         22    1    1    2    0    0  0.27040332206E+03  0.22754655498E+03  0.30607432963E+02  0.35472835553E+03  0.00000000000E+00 0.  1.
<mgrwt>
<rscale>  0 0.13658908E+04</rscale>
<asrwt>0</asrwt>
<pdfrwt beam="1">  1        2 0.34380553E+00 0.13658908E+04</pdfrwt>
<pdfrwt beam="2">  1       -2 0.32109415E-01 0.13658908E+04</pdfrwt>
<totfact> 0.43553206E+01</totfact>
</mgrwt>
</event>
<event>
 6    1  0.1588846E-005  0.2954009E+04  0.7818608E-02  0.8256987E-01
          2   -1    0    0  501    0  0.00000000000E+00  0.00000000000E+00  0.18422282537E+04  0.18422282537E+04  0.00000000000E+00 0. -1.
         -2   -1    0    0    0  501 -0.00000000000E+00 -0.00000000000E+00 -0.11841865032E+04  0.11841865032E+04  0.00000000000E+00 0.  1.
         23    2    1    2    0    0 -0.60372178576E+03  0.10469765859E+04 -0.53797713528E+03  0.13260909227E+04  0.91966140477E+02 0.  0.
         13    1    3    3    0    0 -0.51411691564E+03  0.81764727266E+03 -0.42780126867E+03  0.10563508844E+04  0.00000000000E+00 0. -1.
        -13    1    3    3    0    0 -0.89604870126E+02  0.22932931327E+03 -0.11017586661E+03  0.26974003830E+03  0.00000000000E+00 0.  1.
         22    1    1    2    0    0  0.60372178576E+03 -0.10469765859E+04  0.11960188858E+04  0.17003238342E+04  0.00000000000E+00 0. -1.
<mgrwt>
<rscale>  0 0.29540087E+04</rscale>
<asrwt>0</asrwt>
<pdfrwt beam="1">  1        2 0.28341973E+00 0.29540087E+04</pdfrwt>
<pdfrwt beam="2">  1       -2 0.18218254E+00 0.29540087E+04</pdfrwt>
<totfact> 0.12305623E+00</totfact>
</mgrwt>
</event>
<event>
 6    1  0.1588846E-005  0.4909492E+03  0.7818608E-02  0.1016169E+00
          2   -1    0    0  501    0  0.00000000000E+00  0.00000000000E+00  0.63248127445E+03  0.63248127445E+03  0.00000000000E+00 0. -1.
         -2   -1    0    0    0  501 -0.00000000000E+00 -0.00000000000E+00 -0.95272043914E+02  0.95272043914E+02  0.00000000000E+00 0.  1.
         23    2    1    2    0    0 -0.19085559403E+03 -0.10920262053E+03  0.14931037049E+03  0.28186477206E+03  0.93824798890E+02 0.  0.
         11    1    3    3    0    0 -0.18066672056E+03 -0.87312481889E+02  0.94144677826E+02  0.22164646122E+03  0.00000000000E+00 0.  1.
        -11    1    3    3    0    0 -0.10188873478E+02 -0.21890138637E+02  0.55165692667E+02  0.60218310834E+02  0.00000000000E+00 0. -1.
         22    1    1    2    0    0  0.19085559403E+03  0.10920262053E+03  0.38789886004E+03  0.44588854630E+03  0.00000000000E+00 0. -1.
<mgrwt>
<rscale>  0 0.49094922E+03</rscale>
<asrwt>0</asrwt>
<pdfrwt beam="1">  1        2 0.97304809E-01 0.49094922E+03</pdfrwt>
<pdfrwt beam="2">  1       -2 0.14657238E-01 0.49094922E+03</pdfrwt>
<totfact> 0.16934583E+03</totfact>
</mgrwt>
</event>
<event>
 6    1  0.1588846E-005  0.2105870E+04  0.7818608E-02  0.8558662E-01
          1   -1    0    0  501    0  0.00000000000E+00  0.00000000000E+00  0.67102152759E+03  0.67102152759E+03  0.00000000000E+00 0. -1.
         -1   -1    0    0    0  501 -0.00000000000E+00 -0.00000000000E+00 -0.16522147103E+04  0.16522147103E+04  0.00000000000E+00 0.  1.
         23    2    1    2    0    0 -0.82682264023E+03 -0.58943624513E+03 -0.19256690293E+03  0.10375449162E+04  0.91360142091E+02 0.  0.
         11    1    3    3    0    0 -0.46687297398E+03 -0.36032150463E+03 -0.15147076527E+03  0.60888862140E+03  0.00000000000E+00 0. -1.
        -11    1    3    3    0    0 -0.35994966625E+03 -0.22911474050E+03 -0.41096137663E+02  0.42865629481E+03  0.00000000000E+00 0.  1.
         22    1    1    2    0    0  0.82682264023E+03  0.58943624513E+03 -0.78862627976E+03  0.12856913217E+04  0.00000000000E+00 0. -1.
<mgrwt>
<rscale>  0 0.21058695E+04</rscale>
<asrwt>0</asrwt>
<pdfrwt beam="1">  1        1 0.10323408E+00 0.21058695E+04</pdfrwt>
<pdfrwt beam="2">  1       -1 0.25418688E+00 0.21058695E+04</pdfrwt>
<totfact> 0.17476996E+00</totfact>
</mgrwt>
</event>
<event>
 6    1  0.1588846E-005  0.2073992E+04  0.7818608E-02  0.8572788E-01
         -1   -1    0    0    0  501 -0.00000000000E+00  0.00000000000E+00  0.76573395249E+03  0.76573395249E+03  0.00000000000E+00 0.  1.
          1   -1    0    0  501    0  0.00000000000E+00 -0.00000000000E+00 -0.14043523075E+04  0.14043523075E+04  0.00000000000E+00 0. -1.
         23    2    1    2    0    0 -0.29417465910E+03 -0.55275609418E+03 -0.11823649801E+04  0.13407863011E+04  0.87423848651E+02 0.  0.
         13    1    3    3    0    0 -0.22539624186E+03 -0.33857555462E+03 -0.73441976205E+03  0.83952918884E+03  0.00000000000E+00 0.  1.
        -13    1    3    3    0    0 -0.68778417245E+02 -0.21418053956E+03 -0.44794521802E+03  0.50125711222E+03  0.00000000000E+00 0. -1.
         22    1    1    2    0    0  0.29417465910E+03  0.55275609418E+03  0.54374662502E+03  0.82929995896E+03  0.00000000000E+00 0.  1.
<mgrwt>
<rscale>  0 0.20739916E+04</rscale>
<asrwt>0</asrwt>
<pdfrwt beam="1">  1        1 0.21605420E+00 0.20739916E+04</pdfrwt>
<pdfrwt beam="2">  1       -1 0.11780522E+00 0.20739916E+04</pdfrwt>
<totfact> 0.45542052E+00</totfact>
</mgrwt>
</event>
<event>
 6    1  0.1588846E-005  0.2305124E+04  0.7818608E-02  0.8475904E-01
         -2   -1    0    0    0  501 -0.00000000000E+00  0.00000000000E+00  0.23708876456E+04  0.23708876456E+04  0.00000000000E+00 0.  1.
          2   -1    0    0  501    0  0.00000000000E+00 -0.00000000000E+00 -0.56029607232E+03  0.56029607232E+03  0.00000000000E+00 0. -1.
         23    2    1    2    0    0  0.23229457084E+03  0.91075336032E+03  0.17506124411E+04  0.19893610449E+04  0.97370412139E+02 0.  0.
         11    1    3    3    0    0  0.90629546316E+02  0.25346372087E+03  0.42714630615E+03  0.50488765019E+03  0.00000000000E+00 0. -1.
        -11    1    3    3    0    0  0.14166502453E+03  0.65728963945E+03  0.13234661350E+04  0.14844733948E+04  0.00000000000E+00 0.  1.
         22    1    1    2    0    0 -0.23229457084E+03 -0.91075336032E+03  0.59979132126E+02  0.94182267294E+03  0.00000000000E+00 0. -1.
<mgrwt>
<rscale>  0 0.23051239E+04</rscale>
<asrwt>0</asrwt>
<pdfrwt beam="1">  1        2 0.86199397E-01 0.23051239E+04</pdfrwt>
<pdfrwt beam="2">  1       -2 0.36475194E+00 0.23051239E+04</pdfrwt>
<totfact> 0.61278005E-01</totfact>
</mgrwt>
</event>
<event>
 6    1  0.1588846E-005  0.2026025E+04  0.7818608E-02  0.8594549E-01
         -2   -1    0    0    0  501 -0.00000000000E+00  0.00000000000E+00  0.91782069578E+03  0.91782069578E+03  0.00000000000E+00 0.  1.
          2   -1    0    0  501    0  0.00000000000E+00 -0.00000000000E+00 -0.11180772167E+04  0.11180772167E+04  0.00000000000E+00 0. -1.
         23    2    1    2    0    0  0.20990740305E+03  0.76212141642E+03  0.53304116943E+03  0.95765133867E+03  0.89850024665E+02 0.  0.
         13    1    3    3    0    0  0.14567646132E+03  0.53287295389E+03  0.32149381573E+03  0.63916624591E+03  0.00000000000E+00 0. -1.
        -13    1    3    3    0    0  0.64230941732E+02  0.22924846253E+03  0.21154735371E+03  0.31848509276E+03  0.00000000000E+00 0.  1.
         22    1    1    2    0    0 -0.20990740305E+03 -0.76212141642E+03 -0.73329769031E+03  0.10782465738E+04  0.00000000000E+00 0. -1.
<mgrwt>
<rscale>  0 0.20260251E+04</rscale>
<asrwt>0</asrwt>
<pdfrwt beam="1">  1        2 0.17201188E+00 0.20260251E+04</pdfrwt>
<pdfrwt beam="2">  1       -2 0.14120319E+00 0.20260251E+04</pdfrwt>
<totfact> 0.69152179E+00</totfact>
</mgrwt>
</event>
<event>
 6    1  0.1588846E-005  0.2290825E+04  0.7818608E-02  0.8481547E-01
          2   -1    0    0  501    0  0.00000000000E+00  0.00000000000E+00  0.19068121673E+04  0.19068121673E+04  0.00000000000E+00 0. -1.
         -2   -1    0    0    0  501 -0.00000000000E+00 -0.00000000000E+00 -0.68804379254E+03  0.68804379254E+03  0.00000000000E+00 0.  1.
         23    2    1    2    0    0  0.70289863252E+03  0.37829594302E+03  0.15378889423E+04  0.17351977460E+04  0.92922069385E+02 0.  0.
         13    1    3    3    0    0  0.52527450861E+03  0.32678713028E+03  0.11757108064E+04  0.13285326636E+04  0.00000000000E+00 0. -1.
        -13    1    3    3    0    0  0.17762412390E+03  0.51508812738E+02  0.36217813589E+03  0.40666508247E+03  0.00000000000E+00 0.  1.
         22    1    1    2    0    0 -0.70289863252E+03 -0.37829594302E+03 -0.31912056745E+03  0.85965821387E+03  0.00000000000E+00 0.  1.
<mgrwt>
<rscale>  0 0.22908254E+04</rscale>
<asrwt>0</asrwt>
<pdfrwt beam="1">  1        2 0.29335572E+00 0.22908254E+04</pdfrwt>
<pdfrwt beam="2">  1       -2 0.10585289E+00 0.22908254E+04</pdfrwt>
<totfact> 0.49236358E+00</totfact>
</mgrwt>
</event>
<event>
 6    1  0.1588846E-005  0.1777813E+04  0.7818608E-02  0.8718188E-01
         -2   -1    0    0    0  501 -0.00000000000E+00  0.00000000000E+00  0.49352362485E+03  0.49352362485E+03  0.00000000000E+00 0. -1.
          2   -1    0    0  501    0  0.00000000000E+00 -0.00000000000E+00 -0.16010476305E+04  0.16010476305E+04  0.00000000000E+00 0.  1.
         23    2    1    2    0    0  0.83239296941E+03  0.52698607606E+01 -0.19573319720E+03  0.85995864189E+03  0.91167726310E+02 0.  0.
         11    1    3    3    0    0  0.39378984643E+03  0.41012635784E+02 -0.67806758987E+02  0.40168424914E+03  0.00000000000E+00 0.  1.
        -11    1    3    3    0    0  0.43860312297E+03 -0.35742775023E+02 -0.12792643821E+03  0.45827439274E+03  0.00000000000E+00 0. -1.
         22    1    1    2    0    0 -0.83239296941E+03 -0.52698607606E+01 -0.91179080848E+03  0.12346126135E+04  0.00000000000E+00 0.  1.
<mgrwt>
<rscale>  0 0.17778131E+04</rscale>
<asrwt>0</asrwt>
<pdfrwt beam="1">  1        2 0.24631502E+00 0.17778131E+04</pdfrwt>
<pdfrwt beam="2">  1       -2 0.75926711E-01 0.17778131E+04</pdfrwt>
<totfact> 0.16364522E+01</totfact>
</mgrwt>
</event>
<event>
 6    1  0.1588846E-005  0.3798284E+04  0.7818608E-02  0.8046523E-01
         -2   -1    0    0    0  501 -0.00000000000E+00  0.00000000000E+00  0.40059688346E+04  0.40059688346E+04  0.00000000000E+00 0.  1.
          2   -1    0    0  501    0  0.00000000000E+00 -0.00000000000E+00 -0.90034138710E+03  0.90034138710E+03  0.00000000000E+00 0. -1.
         23    2    1    2    0    0  0.10095898701E+04  0.74847669982E+03 -0.28337325273E+03  0.12917819230E+04  0.94398412067E+02 0.  0.
         11    1    3    3    0    0  0.28868981091E+03  0.17007801947E+03 -0.98250405081E+02  0.34917256726E+03  0.00000000000E+00 0.  1.
        -11    1    3    3    0    0  0.72090005919E+03  0.57839868035E+03 -0.18512284765E+03  0.94260935572E+03  0.00000000000E+00 0. -1.
         22    1    1    2    0    0 -0.10095898701E+04 -0.74847669982E+03  0.33890007003E+04  0.36145282987E+04  0.00000000000E+00 0.  1.
<mgrwt>
<rscale>  0 0.37982836E+04</rscale>
<asrwt>0</asrwt>
<pdfrwt beam="1">  1        2 0.13851406E+00 0.37982836E+04</pdfrwt>
<pdfrwt beam="2">  1       -2 0.61630289E+00 0.37982836E+04</pdfrwt>
<totfact> 0.10305027E-02</totfact>
</mgrwt>
</event>
<event>
 6    1  0.1588846E-005  0.3047603E+04  0.7818608E-02  0.8230267E-01
         -3   -1    0    0    0  501 -0.00000000000E+00  0.00000000000E+00  0.22548840653E+04  0.22548840653E+04  0.00000000000E+00 0.  1.
          3   -1    0    0  501    0  0.00000000000E+00 -0.00000000000E+00 -0.10297519139E+04  0.10297519139E+04  0.00000000000E+00 0. -1.
         23    2    1    2    0    0  0.14054097839E+03  0.11921844380E+04 -0.39544462581E+03  0.12678750633E+04  0.10037541107E+03 0.  0.
         11    1    3    3    0    0  0.14007264296E+03  0.79595263140E+03 -0.25412246752E+03  0.84719488032E+03  0.00000000000E+00 0.  1.
        -11    1    3    3    0    0  0.46833543205E+00  0.39623180663E+03 -0.14132215829E+03  0.42068018297E+03  0.00000000000E+00 0. -1.
         22    1    1    2    0    0 -0.14054097839E+03 -0.11921844380E+04  0.16205767773E+04  0.20167609159E+04  0.00000000000E+00 0.  1.
<mgrwt>
<rscale>  0 0.30476031E+04</rscale>
<asrwt>0</asrwt>
<pdfrwt beam="1">  1        3 0.15842337E+00 0.30476031E+04</pdfrwt>
<pdfrwt beam="2">  1       -3 0.34690524E+00 0.30476031E+04</pdfrwt>
<totfact> 0.12909308E-02</totfact>
</mgrwt>
</event>
<event>
 6    1  0.1588846E-005  0.6242146E+03  0.7818608E-02  0.9856404E-01
         -2   -1    0    0    0  501 -0.00000000000E+00  0.00000000000E+00  0.84423141566E+02  0.84423141566E+02  0.00000000000E+00 0.  1.
          2   -1    0    0  501    0  0.00000000000E+00 -0.00000000000E+00 -0.11538421649E+04  0.11538421649E+04  0.00000000000E+00 0. -1.
         23    2    1    2    0    0  0.23540455673E+03 -0.12535400367E+03 -0.25163348770E+03  0.37808967681E+03  0.92214207200E+02 0.  0.
         11    1    3    3    0    0  0.86661783285E+02 -0.97297859865E+02 -0.12799040494E+03  0.18264359275E+03  0.00000000000E+00 0.  1.
        -11    1    3    3    0    0  0.14874277345E+03 -0.28056143804E+02 -0.12364308276E+03  0.19544608405E+03  0.00000000000E+00 0. -1.
         22    1    1    2    0    0 -0.23540455673E+03  0.12535400367E+03 -0.81778553567E+03  0.86017562970E+03  0.00000000000E+00 0. -1.
<mgrwt>
<rscale>  0 0.62421464E+03</rscale>
<asrwt>0</asrwt>
<pdfrwt beam="1">  1        2 0.17751417E+00 0.62421464E+03</pdfrwt>
<pdfrwt beam="2">  1       -2 0.12988176E-01 0.62421464E+03</pdfrwt>
<totfact> 0.91063545E+02</totfact>
</mgrwt>
</event>
<event>
 6    1  0.1588846E-005  0.2006735E+04  0.7818608E-02  0.8603478E-01
          1   -1    0    0  501    0  0.00000000000E+00  0.00000000000E+00  0.92629900086E+03  0.92629900086E+03  0.00000000000E+00 0. -1.
         -1   -1    0    0    0  501 -0.00000000000E+00 -0.00000000000E+00 -0.10868477285E+04  0.10868477285E+04  0.00000000000E+00 0.  1.
         23    2    1    2    0    0 -0.26429677831E+03 -0.38426850970E+03  0.80827459097E+03  0.93791015202E+03  0.94088066677E+02 0.  0.
         11    1    3    3    0    0 -0.13438252335E+03 -0.25516144953E+03  0.43180856402E+03  0.51925394931E+03  0.00000000000E+00 0. -1.
        -11    1    3    3    0    0 -0.12991425496E+03 -0.12910706017E+03  0.37646602694E+03  0.41865620271E+03  0.00000000000E+00 0.  1.
         22    1    1    2    0    0  0.26429677831E+03  0.38426850970E+03 -0.96882331859E+03  0.10752365773E+04  0.00000000000E+00 0.  1.
<mgrwt>
<rscale>  0 0.20067346E+04</rscale>
<asrwt>0</asrwt>
<pdfrwt beam="1">  1        1 0.14250754E+00 0.20067346E+04</pdfrwt>
<pdfrwt beam="2">  1       -1 0.16720734E+00 0.20067346E+04</pdfrwt>
<totfact> 0.41434318E+00</totfact>
</mgrwt>
</event>
<event>
 6    1  0.1588846E-005  0.1481401E+04  0.7818608E-02  0.8896916E-01
         -2   -1    0    0    0  501 -0.00000000000E+00  0.00000000000E+00  0.23143837338E+03  0.23143837338E+03  0.00000000000E+00 0.  1.
          2   -1    0    0  501    0  0.00000000000E+00 -0.00000000000E+00 -0.23705539890E+04  0.23705539890E+04  0.00000000000E+00 0. -1.
         23    2    1    2    0    0  0.41744700258E+02  0.19415577378E+03 -0.23218617329E+04  0.23321123373E+04  0.90922839658E+02 0.  0.
         13    1    3    3    0    0  0.61999783841E+02  0.74423341981E+02 -0.99223131668E+03  0.99694823980E+03  0.00000000000E+00 0. -1.
        -13    1    3    3    0    0 -0.20255083584E+02  0.11973243179E+03 -0.13296304162E+04  0.13351640975E+04  0.00000000000E+00 0.  1.
         22    1    1    2    0    0 -0.41744700258E+02 -0.19415577378E+03  0.18274611733E+03  0.26988002499E+03  0.00000000000E+00 0.  1.
<mgrwt>
<rscale>  0 0.14814009E+04</rscale>
<asrwt>0</asrwt>
<pdfrwt beam="1">  1        2 0.36470063E+00 0.14814009E+04</pdfrwt>
<pdfrwt beam="2">  1       -2 0.35605902E-01 0.14814009E+04</pdfrwt>
<totfact> 0.29702646E+01</totfact>
</mgrwt>
</event>
<event>
 6    1  0.1588846E-005  0.1585281E+04  0.7818608E-02  0.8829642E-01
          2   -1    0    0  501    0  0.00000000000E+00  0.00000000000E+00  0.15511577672E+04  0.15511577672E+04  0.00000000000E+00 0. -1.
         -2   -1    0    0    0  501 -0.00000000000E+00 -0.00000000000E+00 -0.40503848411E+03  0.40503848411E+03  0.00000000000E+00 0.  1.
         23    2    1    2    0    0 -0.79012174675E+03  0.15200159527E+02  0.57813324633E+03  0.98298940923E+03  0.86641263917E+02 0.  0.
         11    1    3    3    0    0 -0.58840877252E+03  0.45602859408E+02  0.44906387046E+03  0.74159481128E+03  0.00000000000E+00 0.  1.
        -11    1    3    3    0    0 -0.20171297424E+03 -0.30402699881E+02  0.12906937587E+03  0.24139459795E+03  0.00000000000E+00 0. -1.
         22    1    1    2    0    0  0.79012174675E+03 -0.15200159527E+02  0.56798603680E+03  0.97320684211E+03  0.00000000000E+00 0.  1.
<mgrwt>
<rscale>  0 0.15852805E+04</rscale>
<asrwt>0</asrwt>
<pdfrwt beam="1">  1        2 0.23863965E+00 0.15852805E+04</pdfrwt>
<pdfrwt beam="2">  1       -2 0.62313614E-01 0.15852805E+04</pdfrwt>
<totfact> 0.27248509E+01</totfact>
</mgrwt>
</event>
<event>
 6    1  0.1588846E-005  0.1935346E+04  0.7818608E-02  0.8637460E-01
         -2   -1    0    0    0  501 -0.00000000000E+00  0.00000000000E+00  0.35085158597E+03  0.35085158597E+03  0.00000000000E+00 0. -1.
          2   -1    0    0  501    0  0.00000000000E+00 -0.00000000000E+00 -0.26689079365E+04  0.26689079365E+04  0.00000000000E+00 0.  1.
         23    2    1    2    0    0 -0.91504205019E+03 -0.29869546946E+03 -0.10433497727E+04  0.14224499730E+04  0.90907868406E+02 0.  0.
         13    1    3    3    0    0 -0.61137809305E+03 -0.22829723372E+03 -0.65717476123E+03  0.92616492397E+03  0.00000000000E+00 0. -1.
        -13    1    3    3    0    0 -0.30366395714E+03 -0.70398235743E+02 -0.38617501142E+03  0.49628504905E+03  0.00000000000E+00 0.  1.
         22    1    1    2    0    0  0.91504205019E+03  0.29869546946E+03 -0.12747065779E+04  0.15973095495E+04  0.00000000000E+00 0. -1.
<mgrwt>
<rscale>  0 0.19353455E+04</rscale>
<asrwt>0</asrwt>
<pdfrwt beam="1">  1        2 0.41060121E+00 0.19353455E+04</pdfrwt>
<pdfrwt beam="2">  1       -2 0.53977169E-01 0.19353455E+04</pdfrwt>
<totfact> 0.83765182E+00</totfact>
</mgrwt>
</event>
<event>
 6    1  0.1588846E-005  0.3161622E+04  0.7818608E-02  0.8199027E-01
          1   -1    0    0  501    0  0.00000000000E+00  0.00000000000E+00  0.20422987632E+04  0.20422987632E+04  0.00000000000E+00 0. -1.
         -1   -1    0    0    0  501 -0.00000000000E+00 -0.00000000000E+00 -0.12236029581E+04  0.12236029581E+04  0.00000000000E+00 0.  1.
         23    2    1    2    0    0  0.48315386566E+03 -0.91825172905E+03  0.16400000159E+04  0.19425859984E+04  0.86118598885E+02 0.  0.
         11    1    3    3    0    0  0.15181798338E+03 -0.37627514648E+03  0.65741305343E+03  0.77254359667E+03  0.00000000000E+00 0. -1.
        -11    1    3    3    0    0  0.33133588228E+03 -0.54197658257E+03  0.98258696251E+03  0.11700424017E+04  0.00000000000E+00 0.  1.
         22    1    1    2    0    0 -0.48315386566E+03  0.91825172905E+03 -0.82130421082E+03  0.13233157229E+04  0.00000000000E+00 0.  1.
<mgrwt>
<rscale>  0 0.31616216E+04</rscale>
<asrwt>0</asrwt>
<pdfrwt beam="1">  1        1 0.31419981E+00 0.31616216E+04</pdfrwt>
<pdfrwt beam="2">  1       -1 0.18824661E+00 0.31616216E+04</pdfrwt>
<totfact> 0.42563920E-01</totfact>
</mgrwt>
</event>
<event>
 6    1  0.1588846E-005  0.2002545E+04  0.7818608E-02  0.8605432E-01
          1   -1    0    0  501    0  0.00000000000E+00  0.00000000000E+00  0.10297632889E+04  0.10297632889E+04  0.00000000000E+00 0. -1.
         -1   -1    0    0    0  501 -0.00000000000E+00 -0.00000000000E+00 -0.97356984492E+03  0.97356984492E+03  0.00000000000E+00 0.  1.
         23    2    1    2    0    0  0.72890627619E+03 -0.58329692284E+03 -0.32872777735E+03  0.99352918934E+03  0.86594681165E+02 0.  0.
         13    1    3    3    0    0  0.46737832203E+03 -0.32488628523E+03 -0.18082780882E+03  0.59723721474E+03  0.00000000000E+00 0.  1.
        -13    1    3    3    0    0  0.26152795416E+03 -0.25841063761E+03 -0.14789996853E+03  0.39629197460E+03  0.00000000000E+00 0. -1.
         22    1    1    2    0    0 -0.72890627619E+03  0.58329692284E+03  0.38492122133E+03  0.10098039445E+04  0.00000000000E+00 0.  1.
<mgrwt>
<rscale>  0 0.20025449E+04</rscale>
<asrwt>0</asrwt>
<pdfrwt beam="1">  1        1 0.15842512E+00 0.20025449E+04</pdfrwt>
<pdfrwt beam="2">  1       -1 0.14977998E+00 0.20025449E+04</pdfrwt>
<totfact> 0.46607173E+00</totfact>
</mgrwt>
</event>
<event>
 6    1  0.1623106E-005  0.1552424E+04  0.7818608E-02  0.8850321E-01
         -1   -1    0    0    0  501 -0.00000000000E+00  0.00000000000E+00  0.35876973602E+03  0.35876973602E+03  0.00000000000E+00 0.  1.
          1   -1    0    0  501    0  0.00000000000E+00 -0.00000000000E+00 -0.16793639954E+04  0.16793639954E+04  0.00000000000E+00 0. -1.
         23    2    1    2    0    0 -0.33196962138E+03  0.34211032259E+03  0.13729667124E+03  0.50428586805E+03  0.90612131864E+02 0.  0.
         13    1    3    3    0    0 -0.96477908752E+02  0.15230336503E+03  0.76115925844E+02  0.19569858467E+03  0.00000000000E+00 0.  1.
        -13    1    3    3    0    0 -0.23549171263E+03  0.18980695756E+03  0.61180745399E+02  0.30858728338E+03  0.00000000000E+00 0. -1.
         22    1    1    2    0    0  0.33196962138E+03 -0.34211032259E+03 -0.14578909307E+04  0.15338478634E+04  0.00000000000E+00 0. -1.
<mgrwt>
<rscale>  0 0.15524239E+04</rscale>
<asrwt>0</asrwt>
<pdfrwt beam="1">  1        1 0.25836369E+00 0.15524239E+04</pdfrwt>
<pdfrwt beam="2">  1       -1 0.55195345E-01 0.15524239E+04</pdfrwt>
<totfact> 0.15736071E+01</totfact>
</mgrwt>
</event>
<event>
 6    1  0.1588846E-005  0.4080113E+04  0.7818608E-02  0.7988577E-01
          2   -1    0    0  501    0  0.00000000000E+00  0.00000000000E+00  0.17490150073E+04  0.17490150073E+04  0.00000000000E+00 0. -1.
         -2   -1    0    0    0  501 -0.00000000000E+00 -0.00000000000E+00 -0.23795284385E+04  0.23795284385E+04  0.00000000000E+00 0.  1.
         23    2    1    2    0    0  0.34112875483E+03 -0.13667659771E+04 -0.18078184212E+04  0.22926607962E+04  0.60564168096E+02 0.  0.
         13    1    3    3    0    0  0.16047362609E+03 -0.74699970570E+03 -0.10068423955E+04  0.12639192832E+04  0.00000000000E+00 0. -1.
        -13    1    3    3    0    0  0.18065512873E+03 -0.61976627144E+03 -0.80097602575E+03  0.10287415130E+04  0.00000000000E+00 0.  1.
         22    1    1    2    0    0 -0.34112875483E+03  0.13667659771E+04  0.11773049900E+04  0.18358826496E+04  0.00000000000E+00 0. -1.
<mgrwt>
<rscale>  0 0.40801132E+04</rscale>
<asrwt>0</asrwt>
<pdfrwt beam="1">  1        2 0.26907923E+00 0.40801132E+04</pdfrwt>
<pdfrwt beam="2">  1       -2 0.36608130E+00 0.40801132E+04</pdfrwt>
<totfact> 0.88764065E-02</totfact>
</mgrwt>
</event>
<event>
 6    1  0.1588846E-005  0.3133528E+04  0.7818608E-02  0.8206596E-01
          1   -1    0    0  501    0  0.00000000000E+00  0.00000000000E+00  0.12810917651E+04  0.12810917651E+04  0.00000000000E+00 0. -1.
         -1   -1    0    0    0  501 -0.00000000000E+00 -0.00000000000E+00 -0.19161384685E+04  0.19161384685E+04  0.00000000000E+00 0.  1.
         23    2    1    2    0    0 -0.87101172420E+03 -0.29070713718E+03 -0.16111276482E+04  0.18571160317E+04  0.99877890826E+02 0.  0.
         11    1    3    3    0    0 -0.29697571154E+03 -0.14454092435E+03 -0.61917773624E+03  0.70176044425E+03  0.00000000000E+00 0.  1.
        -11    1    3    3    0    0 -0.57403601265E+03 -0.14616621284E+03 -0.99194991199E+03  0.11553555875E+04  0.00000000000E+00 0. -1.
         22    1    1    2    0    0  0.87101172420E+03  0.29070713718E+03  0.97608094482E+03  0.13401142019E+04  0.00000000000E+00 0. -1.
<mgrwt>
<rscale>  0 0.31335279E+04</rscale>
<asrwt>0</asrwt>
<pdfrwt beam="1">  1        1 0.19709104E+00 0.31335279E+04</pdfrwt>
<pdfrwt beam="2">  1       -1 0.29479053E+00 0.31335279E+04</pdfrwt>
<totfact> 0.28026330E-01</totfact>
</mgrwt>
</event>
<event>
 6    1  0.1588846E-005  0.1054903E+04  0.7818608E-02  0.9250296E-01
         -2   -1    0    0    0  501 -0.00000000000E+00  0.00000000000E+00  0.19417212666E+03  0.19417212666E+03  0.00000000000E+00 0.  1.
          2   -1    0    0  501    0  0.00000000000E+00 -0.00000000000E+00 -0.14327767545E+04  0.14327767545E+04  0.00000000000E+00 0. -1.
         23    2    1    2    0    0 -0.82090536754E+02 -0.49802283481E+03 -0.40569923555E+03  0.65304077835E+03  0.84289905887E+02 0.  0.
         11    1    3    3    0    0 -0.69694414544E+01 -0.14516096289E+03 -0.74558003572E+02  0.16333760791E+03  0.00000000000E+00 0.  1.
        -11    1    3    3    0    0 -0.75121095299E+02 -0.35286187192E+03 -0.33114123198E+03  0.48970317044E+03  0.00000000000E+00 0. -1.
         22    1    1    2    0    0  0.82090536754E+02  0.49802283481E+03 -0.83290539230E+03  0.97390810282E+03  0.00000000000E+00 0. -1.
<mgrwt>
<rscale>  0 0.10549034E+04</rscale>
<asrwt>0</asrwt>
<pdfrwt beam="1">  1        2 0.22042720E+00 0.10549034E+04</pdfrwt>
<pdfrwt beam="2">  1       -2 0.29872634E-01 0.10549034E+04</pdfrwt>
<totfact> 0.14245931E+02</totfact>
</mgrwt>
</event>
<event>
 6    1  0.1588846E-005  0.3689793E+04  0.7818608E-02  0.8070228E-01
          1   -1    0    0  501    0  0.00000000000E+00  0.00000000000E+00  0.30999684715E+04  0.30999684715E+04  0.00000000000E+00 0. -1.
         -1   -1    0    0    0  501 -0.00000000000E+00 -0.00000000000E+00 -0.10979604991E+04  0.10979604991E+04  0.00000000000E+00 0.  1.
         23    2    1    2    0    0 -0.17942885387E+04 -0.15872967783E+03  0.55542109612E+03  0.18876735602E+04  0.10075914382E+03 0.  0.
         13    1    3    3    0    0 -0.29867871599E+03 -0.57211983423E+02  0.11683157877E+03  0.32577876577E+03  0.00000000000E+00 0.  1.
        -13    1    3    3    0    0 -0.14956098227E+04 -0.10151769440E+03  0.43858951735E+03  0.15618947944E+04  0.00000000000E+00 0. -1.
         22    1    1    2    0    0  0.17942885387E+04  0.15872967783E+03  0.14465868763E+04  0.23102554105E+04  0.00000000000E+00 0. -1.
<mgrwt>
<rscale>  0 0.36897929E+04</rscale>
<asrwt>0</asrwt>
<pdfrwt beam="1">  1        1 0.47691822E+00 0.36897929E+04</pdfrwt>
<pdfrwt beam="2">  1       -1 0.16891700E+00 0.36897929E+04</pdfrwt>
<totfact> 0.10148719E-01</totfact>
</mgrwt>
</event>
<event>
 6    1  0.1588846E-005  0.2357193E+04  0.7818608E-02  0.8455706E-01
         -2   -1    0    0    0  501 -0.00000000000E+00  0.00000000000E+00  0.39309336990E+03  0.39309336990E+03  0.00000000000E+00 0.  1.
          2   -1    0    0  501    0  0.00000000000E+00 -0.00000000000E+00 -0.35337395668E+04  0.35337395668E+04  0.00000000000E+00 0. -1.
         23    2    1    2    0    0  0.92447472413E+03  0.61463800066E+03 -0.22235841473E+04  0.24868898162E+04  0.88662904158E+02 0.  0.
         11    1    3    3    0    0  0.39037235183E+03  0.20937554100E+03 -0.85855061533E+03  0.96609412033E+03  0.00000000000E+00 0.  1.
        -11    1    3    3    0    0  0.53410237230E+03  0.40526245966E+03 -0.13650335319E+04  0.15207956959E+04  0.00000000000E+00 0. -1.
         22    1    1    2    0    0 -0.92447472413E+03 -0.61463800066E+03 -0.91706204969E+03  0.14399431205E+04  0.00000000000E+00 0.  1.
<mgrwt>
<rscale>  0 0.23571929E+04</rscale>
<asrwt>0</asrwt>
<pdfrwt beam="1">  1        2 0.54365222E+00 0.23571929E+04</pdfrwt>
<pdfrwt beam="2">  1       -2 0.60475906E-01 0.23571929E+04</pdfrwt>
<totfact> 0.17733728E+00</totfact>
</mgrwt>
</event>
<event>
 6    1  0.1588846E-005  0.8781389E+03  0.7818608E-02  0.9453329E-01
          1   -1    0    0  501    0  0.00000000000E+00  0.00000000000E+00  0.39870253955E+03  0.39870253955E+03  0.00000000000E+00 0. -1.
         -1   -1    0    0    0  501 -0.00000000000E+00 -0.00000000000E+00 -0.48352329506E+03  0.48352329506E+03  0.00000000000E+00 0.  1.
         23    2    1    2    0    0  0.46270489216E+02 -0.38828813889E+03  0.14492402656E+03  0.42869380502E+03  0.99331606308E+02 0.  0.
         11    1    3    3    0    0  0.48167313672E+02 -0.37149827099E+03  0.15875427172E+03  0.40685866618E+03  0.00000000000E+00 0.  1.
        -11    1    3    3    0    0 -0.18968244558E+01 -0.16789867901E+02 -0.13830245157E+02  0.21835138842E+02  0.00000000000E+00 0. -1.
         22    1    1    2    0    0 -0.46270489216E+02  0.38828813889E+03 -0.22974478207E+03  0.45353202959E+03  0.00000000000E+00 0.  1.
<mgrwt>
<rscale>  0 0.87813886E+03</rscale>
<asrwt>0</asrwt>
<pdfrwt beam="1">  1        1 0.61338852E-01 0.87813886E+03</pdfrwt>
<pdfrwt beam="2">  1       -1 0.74388199E-01 0.87813886E+03</pdfrwt>
<totfact> 0.11063406E+02</totfact>
</mgrwt>
</event>
<event>
 6    1  0.1588846E-005  0.3289619E+04  0.7818608E-02  0.8165542E-01
         -1   -1    0    0    0  501 -0.00000000000E+00  0.00000000000E+00  0.15809761737E+04  0.15809761737E+04  0.00000000000E+00 0.  1.
          1   -1    0    0  501    0  0.00000000000E+00 -0.00000000000E+00 -0.17112203487E+04  0.17112203487E+04  0.00000000000E+00 0. -1.
         23    2    1    2    0    0  0.80362393846E+03  0.12290073152E+04 -0.80395349907E+03  0.16765992123E+04  0.91505599769E+02 0.  0.
         13    1    3    3    0    0  0.58886646973E+03  0.96037004471E+03 -0.63926616039E+03  0.12952743207E+04  0.00000000000E+00 0.  1.
        -13    1    3    3    0    0  0.21475746873E+03  0.26863727046E+03 -0.16468733868E+03  0.38132489163E+03  0.00000000000E+00 0. -1.
         22    1    1    2    0    0 -0.80362393846E+03 -0.12290073152E+04  0.67370932410E+03  0.16155973102E+04  0.00000000000E+00 0.  1.
<mgrwt>
<rscale>  0 0.32896192E+04</rscale>
<asrwt>0</asrwt>
<pdfrwt beam="1">  1        1 0.26326467E+00 0.32896192E+04</pdfrwt>
<pdfrwt beam="2">  1       -1 0.24322710E+00 0.32896192E+04</pdfrwt>
<totfact> 0.30023357E-01</totfact>
</mgrwt>
</event>
<event>
 6    1  0.1588846E-005  0.2390311E+04  0.7818608E-02  0.8443140E-01
          1   -1    0    0  501    0  0.00000000000E+00  0.00000000000E+00  0.22314624528E+04  0.22314624528E+04  0.00000000000E+00 0. -1.
         -1   -1    0    0    0  501 -0.00000000000E+00 -0.00000000000E+00 -0.64011656389E+03  0.64011656389E+03  0.00000000000E+00 0.  1.
         23    2    1    2    0    0 -0.41907593499E+03  0.76432994121E+03 -0.18240850267E+03  0.89521125234E+03  0.91134110809E+02 0.  0.
         13    1    3    3    0    0 -0.32503054807E+03  0.57793431013E+03 -0.17735566389E+03  0.68637304399E+03  0.00000000000E+00 0.  1.
        -13    1    3    3    0    0 -0.94045386926E+02  0.18639563108E+03 -0.50528387787E+01  0.20883820836E+03  0.00000000000E+00 0. -1.
         22    1    1    2    0    0  0.41907593499E+03 -0.76432994121E+03  0.17737543915E+04  0.19763677643E+04  0.00000000000E+00 0.  1.
<mgrwt>
<rscale>  0 0.23903105E+04</rscale>
<asrwt>0</asrwt>
<pdfrwt beam="1">  1        1 0.34330191E+00 0.23903105E+04</pdfrwt>
<pdfrwt beam="2">  1       -1 0.98479472E-01 0.23903105E+04</pdfrwt>
<totfact> 0.18350529E+00</totfact>
</mgrwt>
</event>
<event>
 6    1  0.1606415E-005  0.3269993E+04  0.7818608E-02  0.8170573E-01
         -2   -1    0    0    0  501 -0.00000000000E+00  0.00000000000E+00  0.14015826049E+04  0.14015826049E+04  0.00000000000E+00 0.  1.
          2   -1    0    0  501    0  0.00000000000E+00 -0.00000000000E+00 -0.19072817246E+04  0.19072817246E+04  0.00000000000E+00 0. -1.
         23    2    1    2    0    0 -0.91286539664E+02  0.12418963062E+04  0.81725034058E+03  0.14920443213E+04  0.87512684008E+02 0.  0.
         13    1    3    3    0    0 -0.86906363868E+02  0.59522647284E+03  0.38460029154E+03  0.71397804890E+03  0.00000000000E+00 0. -1.
        -13    1    3    3    0    0 -0.43801757961E+01  0.64666983335E+03  0.43265004904E+03  0.77806627239E+03  0.00000000000E+00 0.  1.
         22    1    1    2    0    0  0.91286539664E+02 -0.12418963062E+04 -0.13229494603E+04  0.18168200082E+04  0.00000000000E+00 0. -1.
<mgrwt>
<rscale>  0 0.32699926E+04</rscale>
<asrwt>0</asrwt>
<pdfrwt beam="1">  1        2 0.29342796E+00 0.32699926E+04</pdfrwt>
<pdfrwt beam="2">  1       -2 0.21562809E+00 0.32699926E+04</pdfrwt>
<totfact> 0.66376481E-01</totfact>
</mgrwt>
</event>
<event>
 6    1  0.1588846E-005  0.3113947E+04  0.7818608E-02  0.8211921E-01
          2   -1    0    0  501    0  0.00000000000E+00  0.00000000000E+00  0.11329898668E+04  0.11329898668E+04  0.00000000000E+00 0.  1.
         -2   -1    0    0    0  501 -0.00000000000E+00 -0.00000000000E+00 -0.21396189555E+04  0.21396189555E+04  0.00000000000E+00 0. -1.
         23    2    1    2    0    0  0.87596768392E+03 -0.82918410417E+03  0.52855503454E+03  0.13202625534E+04  0.94112291556E+02 0.  0.
         13    1    3    3    0    0  0.28003785747E+03 -0.29593142594E+03  0.22075808853E+03  0.46339048774E+03  0.00000000000E+00 0.  1.
        -13    1    3    3    0    0  0.59592982645E+03 -0.53325267823E+03  0.30779694601E+03  0.85687206564E+03  0.00000000000E+00 0. -1.
         22    1    1    2    0    0 -0.87596768392E+03  0.82918410417E+03 -0.15351841232E+04  0.19523462690E+04  0.00000000000E+00 0. -1.
<mgrwt>
<rscale>  0 0.31139471E+04</rscale>
<asrwt>0</asrwt>
<pdfrwt beam="1">  1        2 0.17430613E+00 0.31139471E+04</pdfrwt>
<pdfrwt beam="2">  1       -2 0.32917215E+00 0.31139471E+04</pdfrwt>
<totfact> 0.37032201E-01</totfact>
</mgrwt>
</event>
<event>
 6    1  0.1588846E-005  0.2880999E+04  0.7818608E-02  0.8278553E-01
         -2   -1    0    0    0  501 -0.00000000000E+00  0.00000000000E+00  0.64333823024E+03  0.64333823024E+03  0.00000000000E+00 0. -1.
          2   -1    0    0  501    0  0.00000000000E+00 -0.00000000000E+00 -0.32254246111E+04  0.32254246111E+04  0.00000000000E+00 0.  1.
         23    2    1    2    0    0  0.10177097401E+03 -0.13247696751E+04 -0.20345074903E+04  0.24316773656E+04  0.91989449661E+02 0.  0.
         13    1    3    3    0    0  0.96118062960E+02 -0.11047437277E+04 -0.16355974416E+04  0.19760760048E+04  0.00000000000E+00 0. -1.
        -13    1    3    3    0    0  0.56529110533E+01 -0.22002594739E+03 -0.39891004874E+03  0.45560136075E+03  0.00000000000E+00 0.  1.
         22    1    1    2    0    0 -0.10177097401E+03  0.13247696751E+04 -0.54757889052E+03  0.14370854757E+04  0.00000000000E+00 0. -1.
<mgrwt>
<rscale>  0 0.28809991E+04</rscale>
<asrwt>0</asrwt>
<pdfrwt beam="1">  1        2 0.49621916E+00 0.28809991E+04</pdfrwt>
<pdfrwt beam="2">  1       -2 0.98975114E-01 0.28809991E+04</pdfrwt>
<totfact> 0.91258256E-01</totfact>
</mgrwt>
</event>
<event>
 6    1  0.1588846E-005  0.1637595E+04  0.7818608E-02  0.8797779E-01
         -1   -1    0    0    0  501 -0.00000000000E+00  0.00000000000E+00  0.28185639549E+03  0.28185639549E+03  0.00000000000E+00 0.  1.
          1   -1    0    0  501    0  0.00000000000E+00 -0.00000000000E+00 -0.23786203640E+04  0.23786203640E+04  0.00000000000E+00 0. -1.
         23    2    1    2    0    0  0.45121172265E+03 -0.33925503306E+03 -0.93944600731E+02  0.57961842311E+03  0.91901753520E+02 0.  0.
         11    1    3    3    0    0  0.22378509220E+03 -0.17030353549E+03 -0.93339046572E+02  0.29630261441E+03  0.00000000000E+00 0. -1.
        -11    1    3    3    0    0  0.22742663045E+03 -0.16895149757E+03 -0.60555415910E+00  0.28331580871E+03  0.00000000000E+00 0.  1.
         22    1    1    2    0    0 -0.45121172265E+03  0.33925503306E+03 -0.20028193678E+04  0.20808583364E+04  0.00000000000E+00 0. -1.
<mgrwt>
<rscale>  0 0.16375950E+04</rscale>
<asrwt>0</asrwt>
<pdfrwt beam="1">  1        1 0.36594161E+00 0.16375950E+04</pdfrwt>
<pdfrwt beam="2">  1       -1 0.43362521E-01 0.16375950E+04</pdfrwt>
<totfact> 0.82615416E+00</totfact>
</mgrwt>
</event>
<event>
 6    1  0.1588846E-005  0.2798513E+04  0.7818608E-02  0.8303730E-01
         -2   -1    0    0    0  501 -0.00000000000E+00  0.00000000000E+00  0.18157324172E+04  0.18157324172E+04  0.00000000000E+00 0.  1.
          2   -1    0    0  501    0  0.00000000000E+00 -0.00000000000E+00 -0.10783081344E+04  0.10783081344E+04  0.00000000000E+00 0. -1.
         23    2    1    2    0    0 -0.43631053485E+03  0.94980258841E+03  0.13288869372E+04  0.16930743109E+04  0.89823664038E+02 0.  0.
         11    1    3    3    0    0 -0.32301697092E+03  0.66090774683E+03  0.87319164661E+03  0.11417542052E+04  0.00000000000E+00 0. -1.
        -11    1    3    3    0    0 -0.11329356393E+03  0.28889484158E+03  0.45569529060E+03  0.55132010574E+03  0.00000000000E+00 0.  1.
         22    1    1    2    0    0  0.43631053485E+03 -0.94980258841E+03 -0.59146265444E+03  0.12009662407E+04  0.00000000000E+00 0. -1.
<mgrwt>
<rscale>  0 0.27985132E+04</rscale>
<asrwt>0</asrwt>
<pdfrwt beam="1">  1        2 0.16589356E+00 0.27985132E+04</pdfrwt>
<pdfrwt beam="2">  1       -2 0.27934345E+00 0.27985132E+04</pdfrwt>
<totfact> 0.83117634E-01</totfact>
</mgrwt>
</event>
<event>
 6    1  0.1588846E-005  0.1153976E+04  0.7818608E-02  0.9154124E-01
         -1   -1    0    0    0  501 -0.00000000000E+00  0.00000000000E+00  0.28384505836E+03  0.28384505836E+03  0.00000000000E+00 0.  1.
          1   -1    0    0  501    0  0.00000000000E+00 -0.00000000000E+00 -0.11728758804E+04  0.11728758804E+04  0.00000000000E+00 0. -1.
         23    2    1    2    0    0 -0.21675781781E+03  0.53067671160E+03 -0.44683640163E+03  0.73274743840E+03  0.93028570067E+02 0.  0.
         11    1    3    3    0    0 -0.20726071126E+02  0.84214917632E+02 -0.11016407569E+03  0.14020644047E+03  0.00000000000E+00 0.  1.
        -11    1    3    3    0    0 -0.19603174668E+03  0.44646179397E+03 -0.33667232595E+03  0.59254099794E+03  0.00000000000E+00 0. -1.
         22    1    1    2    0    0  0.21675781781E+03 -0.53067671160E+03 -0.44219442044E+03  0.72397350040E+03  0.00000000000E+00 0.  1.
<mgrwt>
<rscale>  0 0.11539758E+04</rscale>
<asrwt>0</asrwt>
<pdfrwt beam="1">  1        1 0.18044244E+00 0.11539758E+04</pdfrwt>
<pdfrwt beam="2">  1       -1 0.43668470E-01 0.11539758E+04</pdfrwt>
<totfact> 0.57507086E+01</totfact>
</mgrwt>
</event>
<event>
 6    1  0.1588846E-005  0.3815326E+04  0.7818608E-02  0.8042874E-01
          1   -1    0    0  501    0  0.00000000000E+00  0.00000000000E+00  0.27163825855E+04  0.27163825855E+04  0.00000000000E+00 0. -1.
         -1   -1    0    0    0  501 -0.00000000000E+00 -0.00000000000E+00 -0.13397148949E+04  0.13397148949E+04  0.00000000000E+00 0.  1.
         23    2    1    2    0    0 -0.11303543941E+04 -0.13677503840E+04  0.14302888078E+04  0.22809024507E+04  0.91366002768E+02 0.  0.
         13    1    3    3    0    0 -0.88772596596E+02 -0.12201245314E+03  0.92432786260E+02  0.17695036763E+03  0.00000000000E+00 0. -1.
        -13    1    3    3    0    0 -0.10415817975E+04 -0.12457379309E+04  0.13378560216E+04  0.21039520831E+04  0.00000000000E+00 0.  1.
         22    1    1    2    0    0  0.11303543941E+04  0.13677503840E+04 -0.53621117327E+02  0.17751950297E+04  0.00000000000E+00 0.  1.
<mgrwt>
<rscale>  0 0.38153260E+04</rscale>
<asrwt>0</asrwt>
<pdfrwt beam="1">  1        1 0.41790501E+00 0.38153260E+04</pdfrwt>
<pdfrwt beam="2">  1       -1 0.20610998E+00 0.38153260E+04</pdfrwt>
<totfact> 0.10373578E-01</totfact>
</mgrwt>
</event>
<event>
 6    1  0.1588846E-005  0.1176404E+04  0.7818608E-02  0.9133764E-01
         -2   -1    0    0    0  501 -0.00000000000E+00  0.00000000000E+00  0.46782626188E+03  0.46782626188E+03  0.00000000000E+00 0.  1.
          2   -1    0    0  501    0  0.00000000000E+00 -0.00000000000E+00 -0.73955176044E+03  0.73955176044E+03  0.00000000000E+00 0. -1.
         23    2    1    2    0    0  0.18160218620E+03  0.55099105891E+03 -0.61005598497E+02  0.59014761371E+03  0.89342161891E+02 0.  0.
         11    1    3    3    0    0  0.79293691370E+02  0.32661601095E+03  0.45700839244E-01  0.33610342186E+03  0.00000000000E+00 0. -1.
        -11    1    3    3    0    0  0.10230849483E+03  0.22437504796E+03 -0.61051299336E+02  0.25404419185E+03  0.00000000000E+00 0.  1.
         22    1    1    2    0    0 -0.18160218620E+03 -0.55099105891E+03 -0.21071990006E+03  0.61723040861E+03  0.00000000000E+00 0.  1.
<mgrwt>
<rscale>  0 0.11764042E+04</rscale>
<asrwt>0</asrwt>
<pdfrwt beam="1">  1        2 0.11377719E+00 0.11764042E+04</pdfrwt>
<pdfrwt beam="2">  1       -2 0.71973271E-01 0.11764042E+04</pdfrwt>
<totfact> 0.66037984E+01</totfact>
</mgrwt>
</event>
<event>
 6    1  0.1588846E-005  0.2292893E+04  0.7818608E-02  0.8480729E-01
          2   -1    0    0  501    0  0.00000000000E+00  0.00000000000E+00  0.37710935676E+04  0.37710935676E+04  0.00000000000E+00 0. -1.
         -2   -1    0    0    0  501 -0.00000000000E+00 -0.00000000000E+00 -0.34853006046E+03  0.34853006046E+03  0.00000000000E+00 0.  1.
         23    2    1    2    0    0  0.10495238805E+04  0.40444205329E+03  0.13305283401E+04  0.17444005037E+04  0.86912043308E+02 0.  0.
         13    1    3    3    0    0  0.79344908299E+03  0.26757832161E+03  0.10080414980E+04  0.13104607080E+04  0.00000000000E+00 0. -1.
        -13    1    3    3    0    0  0.25607479754E+03  0.13686373168E+03  0.32248684206E+03  0.43393979570E+03  0.00000000000E+00 0.  1.
         22    1    1    2    0    0 -0.10495238805E+04 -0.40444205329E+03  0.20920351671E+04  0.23752231244E+04  0.00000000000E+00 0. -1.
<mgrwt>
<rscale>  0 0.22928929E+04</rscale>
<asrwt>0</asrwt>
<pdfrwt beam="1">  1        2 0.58016821E+00 0.22928929E+04</pdfrwt>
<pdfrwt beam="2">  1       -2 0.53620012E-01 0.22928929E+04</pdfrwt>
<totfact> 0.15422953E+00</totfact>
</mgrwt>
</event>
<event>
 6    1  0.1588846E-005  0.1797845E+04  0.7818608E-02  0.8707446E-01
          2   -1    0    0  501    0  0.00000000000E+00  0.00000000000E+00  0.13407377388E+04  0.13407377388E+04  0.00000000000E+00 0.  1.
         -2   -1    0    0    0  501 -0.00000000000E+00 -0.00000000000E+00 -0.60269960103E+03  0.60269960103E+03  0.00000000000E+00 0. -1.
         23    2    1    2    0    0 -0.44944178512E+03 -0.51185152944E+03  0.10002940930E+04  0.12135276931E+04  0.89840319963E+02 0.  0.
         13    1    3    3    0    0 -0.18952862050E+03 -0.23344541426E+03  0.36616746957E+03  0.47381059000E+03  0.00000000000E+00 0. -1.
        -13    1    3    3    0    0 -0.25991316462E+03 -0.27840611518E+03  0.63412662339E+03  0.73971710309E+03  0.00000000000E+00 0.  1.
         22    1    1    2    0    0  0.44944178512E+03  0.51185152944E+03 -0.26225595517E+03  0.72990964675E+03  0.00000000000E+00 0.  1.
<mgrwt>
<rscale>  0 0.17978455E+04</rscale>
<asrwt>0</asrwt>
<pdfrwt beam="1">  1        2 0.20626734E+00 0.17978455E+04</pdfrwt>
<pdfrwt beam="2">  1       -2 0.92723016E-01 0.17978455E+04</pdfrwt>
<totfact> 0.14579651E+01</totfact>
</mgrwt>
</event>
<event>
 6    1  0.1588846E-005  0.2517171E+04  0.7818608E-02  0.8396894E-01
          2   -1    0    0  501    0  0.00000000000E+00  0.00000000000E+00  0.24926124393E+04  0.24926124393E+04  0.00000000000E+00 0. -1.
         -2   -1    0    0    0  501 -0.00000000000E+00 -0.00000000000E+00 -0.63549282791E+03  0.63549282791E+03  0.00000000000E+00 0.  1.
         23    2    1    2    0    0  0.29304040924E+03 -0.12064967466E+04  0.11736793583E+04  0.17108552326E+04  0.89416495043E+02 0.  0.
         13    1    3    3    0    0  0.22021719991E+03 -0.91776550352E+03  0.83822469180E+03  0.12623033584E+04  0.00000000000E+00 0. -1.
        -13    1    3    3    0    0  0.72823209325E+02 -0.28873124313E+03  0.33545466654E+03  0.44855187424E+03  0.00000000000E+00 0.  1.
         22    1    1    2    0    0 -0.29304040924E+03  0.12064967466E+04  0.68344025306E+03  0.14172500346E+04  0.00000000000E+00 0.  1.
<mgrwt>
<rscale>  0 0.25171709E+04</rscale>
<asrwt>0</asrwt>
<pdfrwt beam="1">  1        2 0.38347883E+00 0.25171709E+04</pdfrwt>
<pdfrwt beam="2">  1       -2 0.97768129E-01 0.25171709E+04</pdfrwt>
<totfact> 0.27274574E+00</totfact>
</mgrwt>
</event>
<event>
 6    1  0.1588846E-005  0.3469307E+04  0.7818608E-02  0.8121102E-01
          1   -1    0    0  501    0  0.00000000000E+00  0.00000000000E+00  0.40209746991E+04  0.40209746991E+04  0.00000000000E+00 0. -1.
         -1   -1    0    0    0  501 -0.00000000000E+00 -0.00000000000E+00 -0.74833189654E+03  0.74833189654E+03  0.00000000000E+00 0.  1.
         23    2    1    2    0    0  0.11925433319E+04 -0.52092458344E+03  0.63395889196E+02  0.13062461326E+04  0.93476735618E+02 0.  0.
         13    1    3    3    0    0  0.12807775621E+03 -0.76632008948E+02 -0.15674729670E+02  0.15007356057E+03  0.00000000000E+00 0. -1.
        -13    1    3    3    0    0  0.10644655756E+04 -0.44429257449E+03  0.79070618866E+02  0.11561725720E+04  0.00000000000E+00 0.  1.
         22    1    1    2    0    0 -0.11925433319E+04  0.52092458344E+03  0.32092469134E+04  0.34630604631E+04  0.00000000000E+00 0. -1.
<mgrwt>
<rscale>  0 0.34693075E+04</rscale>
<asrwt>0</asrwt>
<pdfrwt beam="1">  1        1 0.61861148E+00 0.34693075E+04</pdfrwt>
<pdfrwt beam="2">  1       -1 0.11512799E+00 0.34693075E+04</pdfrwt>
<totfact> 0.51356075E-02</totfact>
</mgrwt>
</event>
<event>
 6    1  0.1588846E-005  0.9053668E+03  0.7818608E-02  0.9418897E-01
         -2   -1    0    0    0  501 -0.00000000000E+00  0.00000000000E+00  0.90513895593E+03  0.90513895593E+03  0.00000000000E+00 0.  1.
          2   -1    0    0  501    0  0.00000000000E+00 -0.00000000000E+00 -0.22639869600E+03  0.22639869600E+03  0.00000000000E+00 0. -1.
         23    2    1    2    0    0  0.13112111235E+03  0.19526829266E+03 -0.13458896691E+03  0.28488135599E+03  0.87867768566E+02 0.  0.
         11    1    3    3    0    0  0.97997972778E+02  0.69264936937E+02 -0.75862267459E+02  0.14197294736E+03  0.00000000000E+00 0. -1.
        -11    1    3    3    0    0  0.33123139573E+02  0.12600335572E+03 -0.58726699451E+02  0.14290840863E+03  0.00000000000E+00 0.  1.
         22    1    1    2    0    0 -0.13112111235E+03 -0.19526829266E+03  0.81332922684E+03  0.84665629594E+03  0.00000000000E+00 0.  1.
<mgrwt>
<rscale>  0 0.90536684E+03</rscale>
<asrwt>0</asrwt>
<pdfrwt beam="1">  1        2 0.34830569E-01 0.90536684E+03</pdfrwt>
<pdfrwt beam="2">  1       -2 0.13925214E+00 0.90536684E+03</pdfrwt>
<totfact> 0.54914250E+01</totfact>
</mgrwt>
</event>
<event>
 6    1  0.1588846E-005  0.4951297E+04  0.7818608E-02  0.7836064E-01
         -2   -1    0    0    0  501 -0.00000000000E+00  0.00000000000E+00  0.18625598882E+04  0.18625598882E+04  0.00000000000E+00 0.  1.
          2   -1    0    0  501    0  0.00000000000E+00 -0.00000000000E+00 -0.32905441977E+04  0.32905441977E+04  0.00000000000E+00 0. -1.
         23    2    1    2    0    0 -0.52585259930E+03 -0.83268926647E+03 -0.30771361680E+04  0.32322724370E+04  0.94476136021E+02 0.  0.
         13    1    3    3    0    0 -0.32543370315E+03 -0.48876698427E+03 -0.19757065958E+04  0.20611202810E+04  0.00000000000E+00 0.  1.
        -13    1    3    3    0    0 -0.20041889615E+03 -0.34392228220E+03 -0.11014295722E+04  0.11711521560E+04  0.00000000000E+00 0. -1.
         22    1    1    2    0    0  0.52585259930E+03  0.83268926647E+03  0.16491518585E+04  0.19208316489E+04  0.00000000000E+00 0.  1.
<mgrwt>
<rscale>  0 0.49512971E+04</rscale>
<asrwt>0</asrwt>
<pdfrwt beam="1">  1        2 0.50623756E+00 0.49512971E+04</pdfrwt>
<pdfrwt beam="2">  1       -2 0.28654768E+00 0.49512971E+04</pdfrwt>
<totfact> 0.31686476E-02</totfact>
</mgrwt>
</event>
<event>
 6    1  0.1588846E-005  0.3950509E+04  0.7818608E-02  0.8014606E-01
         -2   -1    0    0    0  501 -0.00000000000E+00  0.00000000000E+00  0.20190674776E+04  0.20190674776E+04  0.00000000000E+00 0.  1.
          2   -1    0    0  501    0  0.00000000000E+00 -0.00000000000E+00 -0.19323922114E+04  0.19323922114E+04  0.00000000000E+00 0. -1.
         23    2    1    2    0    0  0.11942743310E+04 -0.15064349846E+04 -0.40709250091E+03  0.19666563868E+04  0.79846722643E+02 0.  0.
         13    1    3    3    0    0  0.36750628209E+03 -0.40680030951E+03 -0.12357899950E+03  0.56197787172E+03  0.00000000000E+00 0. -1.
        -13    1    3    3    0    0  0.82676804891E+03 -0.10996346751E+04 -0.28351350141E+03  0.14046785151E+04  0.00000000000E+00 0.  1.
         22    1    1    2    0    0 -0.11942743310E+04  0.15064349846E+04  0.49376776706E+03  0.19848033022E+04  0.00000000000E+00 0.  1.
<mgrwt>
<rscale>  0 0.39505090E+04</rscale>
<asrwt>0</asrwt>
<pdfrwt beam="1">  1        2 0.29729111E+00 0.39505090E+04</pdfrwt>
<pdfrwt beam="2">  1       -2 0.31062577E+00 0.39505090E+04</pdfrwt>
<totfact> 0.15782141E-01</totfact>
</mgrwt>
</event>
<event>
 6    1  0.1588846E-005  0.3112436E+04  0.7818608E-02  0.8212333E-01
         -2   -1    0    0    0  501 -0.00000000000E+00  0.00000000000E+00  0.23802570792E+04  0.23802570792E+04  0.00000000000E+00 0.  1.
          2   -1    0    0  501    0  0.00000000000E+00 -0.00000000000E+00 -0.10174591353E+04  0.10174591353E+04  0.00000000000E+00 0. -1.
         23    2    1    2    0    0  0.81132402144E+03  0.96307512610E+02  0.21261788222E+04  0.22795605142E+04  0.90763150329E+02 0.  0.
         13    1    3    3    0    0  0.70146105993E+03  0.87543388140E+02  0.17443699855E+04  0.18821631464E+04  0.00000000000E+00 0. -1.
        -13    1    3    3    0    0  0.10986296151E+03  0.87641244707E+01  0.38180883671E+03  0.39739736785E+03  0.00000000000E+00 0.  1.
         22    1    1    2    0    0 -0.81132402144E+03 -0.96307512610E+02 -0.76338087823E+03  0.11181557002E+04  0.00000000000E+00 0. -1.
<mgrwt>
<rscale>  0 0.31124359E+04</rscale>
<asrwt>0</asrwt>
<pdfrwt beam="1">  1        2 0.15653218E+00 0.31124359E+04</pdfrwt>
<pdfrwt beam="2">  1       -2 0.36619340E+00 0.31124359E+04</pdfrwt>
<totfact> 0.25553471E-01</totfact>
</mgrwt>
</event>
<event>
 6    1  0.1588846E-005  0.1516127E+04  0.7818608E-02  0.8873799E-01
          2   -1    0    0  501    0  0.00000000000E+00  0.00000000000E+00  0.16262470021E+04  0.16262470021E+04  0.00000000000E+00 0. -1.
         -2   -1    0    0    0  501 -0.00000000000E+00 -0.00000000000E+00 -0.35336569374E+03  0.35336569374E+03  0.00000000000E+00 0.  1.
         23    2    1    2    0    0 -0.31888296131E+03  0.35749016336E+03 -0.12368039705E+03  0.50317436088E+03  0.91662625538E+02 0.  0.
         13    1    3    3    0    0 -0.31232413058E+03  0.34295861213E+03 -0.99823376928E+02  0.47448043032E+03  0.00000000000E+00 0. -1.
        -13    1    3    3    0    0 -0.65588307296E+01  0.14531551229E+02 -0.23857020126E+02  0.28693930559E+02  0.00000000000E+00 0.  1.
         22    1    1    2    0    0  0.31888296131E+03 -0.35749016336E+03  0.13965617054E+04  0.14764383349E+04  0.00000000000E+00 0. -1.
<mgrwt>
<rscale>  0 0.15161265E+04</rscale>
<asrwt>0</asrwt>
<pdfrwt beam="1">  1        2 0.25019184E+00 0.15161265E+04</pdfrwt>
<pdfrwt beam="2">  1       -2 0.54363954E-01 0.15161265E+04</pdfrwt>
<totfact> 0.33132823E+01</totfact>
</mgrwt>
</event>
<event>
 6    1  0.1588846E-005  0.8507082E+03  0.7818608E-02  0.9489387E-01
         -2   -1    0    0    0  501 -0.00000000000E+00  0.00000000000E+00  0.96773322368E+03  0.96773322368E+03  0.00000000000E+00 0.  1.
          2   -1    0    0  501    0  0.00000000000E+00 -0.00000000000E+00 -0.18695865325E+03  0.18695865325E+03  0.00000000000E+00 0. -1.
         23    2    1    2    0    0 -0.36948896325E+03  0.11330722172E+03  0.17112502986E+03  0.43286559397E+03  0.93424975998E+02 0.  0.
         11    1    3    3    0    0 -0.15126404297E+03  0.16719936726E+01  0.81817852699E+02  0.17198188067E+03  0.00000000000E+00 0. -1.
        -11    1    3    3    0    0 -0.21822492028E+03  0.11163522805E+03  0.89307177164E+02  0.26088371330E+03  0.00000000000E+00 0.  1.
         22    1    1    2    0    0  0.36948896325E+03 -0.11330722172E+03  0.60964954056E+03  0.72182628296E+03  0.00000000000E+00 0.  1.
<mgrwt>
<rscale>  0 0.85070818E+03</rscale>
<asrwt>0</asrwt>
<pdfrwt beam="1">  1        2 0.28762870E-01 0.85070818E+03</pdfrwt>
<pdfrwt beam="2">  1       -2 0.14888203E+00 0.85070818E+03</pdfrwt>
<totfact> 0.57380899E+01</totfact>
</mgrwt>
</event>
<event>
 6    1  0.1588846E-005  0.5503190E+04  0.7818608E-02  0.7755250E-01
          2   -1    0    0  501    0  0.00000000000E+00  0.00000000000E+00  0.15122191514E+04  0.15122191514E+04  0.00000000000E+00 0.  1.
         -2   -1    0    0    0  501 -0.00000000000E+00 -0.00000000000E+00 -0.50067312438E+04  0.50067312438E+04  0.00000000000E+00 0. -1.
         23    2    1    2    0    0 -0.58759336098E+03  0.23191442141E+04 -0.33559948681E+04  0.41225191182E+04  0.93629489194E+02 0.  0.
         13    1    3    3    0    0 -0.29137646228E+03  0.12386671847E+04 -0.18557286086E+04  0.22500945104E+04  0.00000000000E+00 0.  1.
        -13    1    3    3    0    0 -0.29621689870E+03  0.10804770295E+04 -0.15002662595E+04  0.18724246077E+04  0.00000000000E+00 0. -1.
         22    1    1    2    0    0  0.58759336098E+03 -0.23191442141E+04 -0.13851722435E+03  0.23964312770E+04  0.00000000000E+00 0.  1.
<mgrwt>
<rscale>  0 0.55031899E+04</rscale>
<asrwt>0</asrwt>
<pdfrwt beam="1">  1        2 0.23264910E+00 0.55031899E+04</pdfrwt>
<pdfrwt beam="2">  1       -2 0.77026636E+00 0.55031899E+04</pdfrwt>
<totfact> 0.10090149E-03</totfact>
</mgrwt>
</event>
<event>
 6    1  0.1588846E-005  0.1855147E+04  0.7818608E-02  0.8677510E-01
          1   -1    0    0  501    0  0.00000000000E+00  0.00000000000E+00  0.10653949543E+04  0.10653949543E+04  0.00000000000E+00 0. -1.
         -1   -1    0    0    0  501 -0.00000000000E+00 -0.00000000000E+00 -0.80758083746E+03  0.80758083746E+03  0.00000000000E+00 0.  1.
         23    2    1    2    0    0  0.33519996620E+03 -0.38423284895E+03  0.90883452308E+03  0.10460408071E+04  0.90704356567E+02 0.  0.
         13    1    3    3    0    0  0.15646940150E+03 -0.15800126607E+03  0.48367435426E+03  0.53234195275E+03  0.00000000000E+00 0.  1.
        -13    1    3    3    0    0  0.17873056471E+03 -0.22623158288E+03  0.42516016882E+03  0.51369885439E+03  0.00000000000E+00 0. -1.
         22    1    1    2    0    0 -0.33519996620E+03  0.38423284895E+03 -0.65102040620E+03  0.82693498465E+03  0.00000000000E+00 0.  1.
<mgrwt>
<rscale>  0 0.18551469E+04</rscale>
<asrwt>0</asrwt>
<pdfrwt beam="1">  1        1 0.16390692E+00 0.18551469E+04</pdfrwt>
<pdfrwt beam="2">  1       -1 0.12424320E+00 0.18551469E+04</pdfrwt>
<totfact> 0.71879850E+00</totfact>
</mgrwt>
</event>
<event>
 6    1  0.1588846E-005  0.1265572E+04  0.7818608E-02  0.9057321E-01
          2   -1    0    0  501    0  0.00000000000E+00  0.00000000000E+00  0.76548211691E+03  0.76548211691E+03  0.00000000000E+00 0.  1.
         -2   -1    0    0    0  501 -0.00000000000E+00 -0.00000000000E+00 -0.52309312434E+03  0.52309312434E+03  0.00000000000E+00 0. -1.
         23    2    1    2    0    0  0.19867886261E+03  0.59710188809E+03  0.11316877862E+03  0.64615651572E+03  0.93311923877E+02 0.  0.
         11    1    3    3    0    0  0.11115060392E+03  0.23456987381E+03  0.12558181902E+02  0.25987533623E+03  0.00000000000E+00 0. -1.
        -11    1    3    3    0    0  0.87528258688E+02  0.36253201429E+03  0.10061059672E+03  0.38628117949E+03  0.00000000000E+00 0.  1.
         22    1    1    2    0    0 -0.19867886261E+03 -0.59710188809E+03  0.12922021395E+03  0.64241872553E+03  0.00000000000E+00 0. -1.
<mgrwt>
<rscale>  0 0.12655725E+04</rscale>
<asrwt>0</asrwt>
<pdfrwt beam="1">  1        2 0.11776648E+00 0.12655725E+04</pdfrwt>
<pdfrwt beam="2">  1       -2 0.80475865E-01 0.12655725E+04</pdfrwt>
<totfact> 0.48951749E+01</totfact>
</mgrwt>
</event>
<event>
 6    1  0.1588846E-005  0.3279415E+04  0.7818608E-02  0.8168153E-01
         -2   -1    0    0    0  501 -0.00000000000E+00  0.00000000000E+00  0.93846833383E+03  0.93846833383E+03  0.00000000000E+00 0. -1.
          2   -1    0    0  501    0  0.00000000000E+00 -0.00000000000E+00 -0.28649235789E+04  0.28649235789E+04  0.00000000000E+00 0.  1.
         23    2    1    2    0    0  0.11146593036E+04 -0.69821272581E+03 -0.20970391624E+04  0.24770943418E+04  0.91960622209E+02 0.  0.
         13    1    3    3    0    0  0.19871972407E+03 -0.91367659236E+02 -0.38597237975E+03  0.44363527341E+03  0.00000000000E+00 0.  1.
        -13    1    3    3    0    0  0.91593957958E+03 -0.60684506658E+03 -0.17110667827E+04  0.20334590684E+04  0.00000000000E+00 0. -1.
         22    1    1    2    0    0 -0.11146593036E+04  0.69821272581E+03  0.17058391734E+03  0.13262975709E+04  0.00000000000E+00 0. -1.
<mgrwt>
<rscale>  0 0.32794146E+04</rscale>
<asrwt>0</asrwt>
<pdfrwt beam="1">  1        2 0.44075747E+00 0.32794146E+04</pdfrwt>
<pdfrwt beam="2">  1       -2 0.14437974E+00 0.32794146E+04</pdfrwt>
<totfact> 0.58499056E-01</totfact>
</mgrwt>
</event>
<event>
 6    1  0.1588846E-005  0.2099025E+04  0.7818608E-02  0.8561673E-01
         -2   -1    0    0    0  501 -0.00000000000E+00  0.00000000000E+00  0.35039257798E+03  0.35039257798E+03  0.00000000000E+00 0.  1.
          2   -1    0    0  501    0  0.00000000000E+00 -0.00000000000E+00 -0.31435488038E+04  0.31435488038E+04  0.00000000000E+00 0. -1.
         23    2    1    2    0    0 -0.74151888199E+03  0.51662487509E+03 -0.22810034954E+04  0.24551671362E+04  0.90095544163E+02 0.  0.
         11    1    3    3    0    0 -0.48227848308E+03  0.29053031887E+03 -0.13536762020E+04  0.14660967435E+04  0.00000000000E+00 0. -1.
        -11    1    3    3    0    0 -0.25924039891E+03  0.22609455621E+03 -0.92732729333E+03  0.98907039271E+03  0.00000000000E+00 0.  1.
         22    1    1    2    0    0  0.74151888199E+03 -0.51662487509E+03 -0.51215273045E+03  0.10387742455E+04  0.00000000000E+00 0.  1.
<mgrwt>
<rscale>  0 0.20990247E+04</rscale>
<asrwt>0</asrwt>
<pdfrwt beam="1">  1        2 0.48362288E+00 0.20990247E+04</pdfrwt>
<pdfrwt beam="2">  1       -2 0.53906552E-01 0.20990247E+04</pdfrwt>
<totfact> 0.42253448E+00</totfact>
</mgrwt>
</event>
<event>
 6    1  0.1588846E-005  0.2640318E+04  0.7818608E-02  0.8354634E-01
         -1   -1    0    0    0  501 -0.00000000000E+00  0.00000000000E+00  0.10049033369E+04  0.10049033369E+04  0.00000000000E+00 0. -1.
          1   -1    0    0  501    0  0.00000000000E+00 -0.00000000000E+00 -0.17343158852E+04  0.17343158852E+04  0.00000000000E+00 0.  1.
         23    2    1    2    0    0 -0.61906215799E+03 -0.11636493562E+04 -0.41055844102E+03  0.13831271451E+04  0.84644470565E+02 0.  0.
         13    1    3    3    0    0 -0.57338166670E+03 -0.10906996179E+04 -0.36200569441E+03  0.12843053823E+04  0.00000000000E+00 0.  1.
        -13    1    3    3    0    0 -0.45680491292E+02 -0.72949738303E+02 -0.48552746614E+02  0.98821762820E+02  0.00000000000E+00 0. -1.
         22    1    1    2    0    0  0.61906215799E+03  0.11636493562E+04 -0.31885410726E+03  0.13560920770E+04  0.00000000000E+00 0. -1.
<mgrwt>
<rscale>  0 0.26403180E+04</rscale>
<asrwt>0</asrwt>
<pdfrwt beam="1">  1        1 0.26681783E+00 0.26403180E+04</pdfrwt>
<pdfrwt beam="2">  1       -1 0.15460051E+00 0.26403180E+04</pdfrwt>
<totfact> 0.12738050E+00</totfact>
</mgrwt>
</event>
<event>
 6    1  0.1588846E-005  0.2286997E+04  0.7818608E-02  0.8483066E-01
         -1   -1    0    0    0  501 -0.00000000000E+00  0.00000000000E+00  0.62989052111E+03  0.62989052111E+03  0.00000000000E+00 0.  1.
          1   -1    0    0  501    0  0.00000000000E+00 -0.00000000000E+00 -0.20758986574E+04  0.20758986574E+04  0.00000000000E+00 0. -1.
         23    2    1    2    0    0 -0.23463968708E+03 -0.89827935886E+03  0.61768531360E+02  0.93509663919E+03  0.92891247380E+02 0.  0.
         13    1    3    3    0    0 -0.17957739125E+03 -0.72821707715E+03  0.14389398662E+02  0.75017011784E+03  0.00000000000E+00 0. -1.
        -13    1    3    3    0    0 -0.55062295832E+02 -0.17006228171E+03  0.47379132698E+02  0.18492652135E+03  0.00000000000E+00 0.  1.
         22    1    1    2    0    0  0.23463968708E+03  0.89827935886E+03 -0.15077766676E+04  0.17706925393E+04  0.00000000000E+00 0. -1.
<mgrwt>
<rscale>  0 0.22869971E+04</rscale>
<asrwt>0</asrwt>
<pdfrwt beam="1">  1        1 0.31936903E+00 0.22869971E+04</pdfrwt>
<pdfrwt beam="2">  1       -1 0.96906233E-01 0.22869971E+04</pdfrwt>
<totfact> 0.24513038E+00</totfact>
</mgrwt>
</event>
<event>
 6    1  0.1588846E-005  0.2449866E+04  0.7818608E-02  0.8421067E-01
          1   -1    0    0  501    0  0.00000000000E+00  0.00000000000E+00  0.24429266702E+04  0.24429266702E+04  0.00000000000E+00 0. -1.
         -1   -1    0    0    0  501 -0.00000000000E+00 -0.00000000000E+00 -0.61420645332E+03  0.61420645332E+03  0.00000000000E+00 0.  1.
         23    2    1    2    0    0  0.10707428745E+04 -0.30197964904E+03  0.28073476310E+03  0.11508432775E+04  0.89141631753E+02 0.  0.
         11    1    3    3    0    0  0.42041257852E+03 -0.12310574151E+03  0.66037891731E+02  0.44301553349E+03  0.00000000000E+00 0.  1.
        -11    1    3    3    0    0  0.65033029600E+03 -0.17887390753E+03  0.21469687137E+03  0.70782774406E+03  0.00000000000E+00 0. -1.
         22    1    1    2    0    0 -0.10707428745E+04  0.30197964904E+03  0.15479854538E+04  0.19062898460E+04  0.00000000000E+00 0. -1.
<mgrwt>
<rscale>  0 0.24498664E+04</rscale>
<asrwt>0</asrwt>
<pdfrwt beam="1">  1        1 0.37583487E+00 0.24498664E+04</pdfrwt>
<pdfrwt beam="2">  1       -1 0.94493302E-01 0.24498664E+04</pdfrwt>
<totfact> 0.14344495E+00</totfact>
</mgrwt>
</event>
<event>
 6    1  0.1588846E-005  0.3041889E+04  0.7818608E-02  0.8231869E-01
          1   -1    0    0  501    0  0.00000000000E+00  0.00000000000E+00  0.24503462444E+04  0.24503462444E+04  0.00000000000E+00 0. -1.
         -1   -1    0    0    0  501 -0.00000000000E+00 -0.00000000000E+00 -0.94405931558E+03  0.94405931558E+03  0.00000000000E+00 0.  1.
         23    2    1    2    0    0 -0.14709773985E+04 -0.22632643664E+03  0.10963533494E+04  0.18506945436E+04  0.89896963133E+02 0.  0.
         13    1    3    3    0    0 -0.29569828971E+03 -0.10897039681E+02  0.23097586492E+03  0.37537457851E+03  0.00000000000E+00 0.  1.
        -13    1    3    3    0    0 -0.11752791088E+04 -0.21542939696E+03  0.86537748451E+03  0.14753199650E+04  0.00000000000E+00 0. -1.
         22    1    1    2    0    0  0.14709773985E+04  0.22632643664E+03  0.40993357941E+03  0.15437110164E+04  0.00000000000E+00 0.  1.
<mgrwt>
<rscale>  0 0.30418890E+04</rscale>
<asrwt>0</asrwt>
<pdfrwt beam="1">  1        1 0.37697634E+00 0.30418890E+04</pdfrwt>
<pdfrwt beam="2">  1       -1 0.14523990E+00 0.30418890E+04</pdfrwt>
<totfact> 0.47290309E-01</totfact>
</mgrwt>
</event>
<event>
 6    1  0.1588846E-005  0.2566284E+04  0.7818608E-02  0.8379745E-01
         -1   -1    0    0    0  501 -0.00000000000E+00  0.00000000000E+00  0.57340414365E+03  0.57340414365E+03  0.00000000000E+00 0.  1.
          1   -1    0    0  501    0  0.00000000000E+00 -0.00000000000E+00 -0.28713661869E+04  0.28713661869E+04  0.00000000000E+00 0. -1.
         23    2    1    2    0    0 -0.50469166685E+03 -0.63648313541E+03  0.18024647165E+03  0.83683208290E+03  0.89301087173E+02 0.  0.
         11    1    3    3    0    0 -0.11895006176E+03 -0.15144302983E+03  0.43275268383E+01  0.19262096450E+03  0.00000000000E+00 0.  1.
        -11    1    3    3    0    0 -0.38574160509E+03 -0.48504010558E+03  0.17591894481E+03  0.64421111839E+03  0.00000000000E+00 0. -1.
         22    1    1    2    0    0  0.50469166685E+03  0.63648313541E+03 -0.24782085149E+04  0.26079382476E+04  0.00000000000E+00 0. -1.
<mgrwt>
<rscale>  0 0.25662839E+04</rscale>
<asrwt>0</asrwt>
<pdfrwt beam="1">  1        1 0.44174864E+00 0.25662839E+04</pdfrwt>
<pdfrwt beam="2">  1       -1 0.88216024E-01 0.25662839E+04</pdfrwt>
<totfact> 0.82590428E-01</totfact>
</mgrwt>
</event>
<event>
 6    1  0.1588846E-005  0.4702105E+04  0.7818608E-02  0.7876179E-01
         -2   -1    0    0    0  501 -0.00000000000E+00  0.00000000000E+00  0.27858820159E+04  0.27858820159E+04  0.00000000000E+00 0.  1.
          2   -1    0    0  501    0  0.00000000000E+00 -0.00000000000E+00 -0.19840926292E+04  0.19840926292E+04  0.00000000000E+00 0. -1.
         23    2    1    2    0    0  0.13169034382E+04  0.17599980137E+04  0.12445155112E+04  0.25276914126E+04  0.92613962220E+02 0.  0.
         13    1    3    3    0    0  0.53527625732E+03  0.67350342439E+03  0.53030659960E+03  0.10106199206E+04  0.00000000000E+00 0. -1.
        -13    1    3    3    0    0  0.78162718087E+03  0.10864945893E+04  0.71420891157E+03  0.15170714920E+04  0.00000000000E+00 0.  1.
         22    1    1    2    0    0 -0.13169034382E+04 -0.17599980137E+04 -0.44272612454E+03  0.22422832326E+04  0.00000000000E+00 0. -1.
<mgrwt>
<rscale>  0 0.47021050E+04</rscale>
<asrwt>0</asrwt>
<pdfrwt beam="1">  1        2 0.30524502E+00 0.47021050E+04</pdfrwt>
<pdfrwt beam="2">  1       -2 0.42859723E+00 0.47021050E+04</pdfrwt>
<totfact> 0.24476287E-02</totfact>
</mgrwt>
</event>
<event>
 6    1  0.1588846E-005  0.1409927E+04  0.7818608E-02  0.8946664E-01
         -2   -1    0    0    0  501 -0.00000000000E+00  0.00000000000E+00  0.46798224598E+03  0.46798224598E+03  0.00000000000E+00 0.  1.
          2   -1    0    0  501    0  0.00000000000E+00 -0.00000000000E+00 -0.10619493404E+04  0.10619493404E+04  0.00000000000E+00 0. -1.
         23    2    1    2    0    0 -0.60558637997E+03 -0.32520272912E+03 -0.45073496819E+03  0.82778692847E+03  0.97864747357E+02 0.  0.
         13    1    3    3    0    0 -0.22901607481E+03 -0.12858707394E+03 -0.22966960906E+03  0.34889988168E+03  0.00000000000E+00 0.  1.
        -13    1    3    3    0    0 -0.37657030515E+03 -0.19661565518E+03 -0.22106535913E+03  0.47888704680E+03  0.00000000000E+00 0. -1.
         22    1    1    2    0    0  0.60558637997E+03  0.32520272912E+03 -0.14323212622E+03  0.70214465789E+03  0.00000000000E+00 0. -1.
<mgrwt>
<rscale>  0 0.14099269E+04</rscale>
<asrwt>0</asrwt>
<pdfrwt beam="1">  1        2 0.16337682E+00 0.14099269E+04</pdfrwt>
<pdfrwt beam="2">  1       -2 0.71997269E-01 0.14099269E+04</pdfrwt>
<totfact> 0.39115667E+01</totfact>
</mgrwt>
</event>
<event>
 6    1  0.2570647E-005  0.3674411E+04  0.7818608E-02  0.8073657E-01
         -2   -1    0    0    0  501 -0.00000000000E+00  0.00000000000E+00  0.14508737960E+04  0.14508737960E+04  0.00000000000E+00 0.  1.
          2   -1    0    0  501    0  0.00000000000E+00 -0.00000000000E+00 -0.23264071330E+04  0.23264071330E+04  0.00000000000E+00 0. -1.
         23    2    1    2    0    0 -0.24937644520E+03 -0.38993198679E+03  0.13884046340E+04  0.14665125066E+04  0.93573173201E+02 0.  0.
         13    1    3    3    0    0 -0.18335651691E+03 -0.29290857690E+03  0.89630758181E+03  0.96061559842E+03  0.00000000000E+00 0.  1.
        -13    1    3    3    0    0 -0.66019928297E+02 -0.97023409889E+02  0.49209705215E+03  0.50589690821E+03  0.00000000000E+00 0. -1.
         22    1    1    2    0    0  0.24937644520E+03  0.38993198679E+03 -0.22639379709E+04  0.23107684224E+04  0.00000000000E+00 0. -1.
<mgrwt>
<rscale>  0 0.36744105E+04</rscale>
<asrwt>0</asrwt>
<pdfrwt beam="1">  1        2 0.35790879E+00 0.36744105E+04</pdfrwt>
<pdfrwt beam="2">  1       -2 0.22321136E+00 0.36744105E+04</pdfrwt>
<totfact> 0.33464059E-01</totfact>
</mgrwt>
</event>
<event>
 6    1  0.1588846E-005  0.3411742E+03  0.7818608E-02  0.1066297E+00
          2   -1    0    0  501    0  0.00000000000E+00  0.00000000000E+00  0.97071128263E+02  0.97071128263E+02  0.00000000000E+00 0.  1.
         -2   -1    0    0    0  501 -0.00000000000E+00 -0.00000000000E+00 -0.29977974160E+03  0.29977974160E+03  0.00000000000E+00 0. -1.
         23    2    1    2    0    0  0.15398423900E+03  0.66109313112E+01 -0.70885524735E+02  0.19404017744E+03  0.94191202197E+02 0.  0.
         13    1    3    3    0    0  0.10248982035E+03 -0.30993132055E+02 -0.12888838583E+02  0.10784646341E+03  0.00000000000E+00 0.  1.
        -13    1    3    3    0    0  0.51494418645E+02  0.37604063366E+02 -0.57996686152E+02  0.86193714027E+02  0.00000000000E+00 0. -1.
         22    1    1    2    0    0 -0.15398423900E+03 -0.66109313112E+01 -0.13182308861E+03  0.20281069243E+03  0.00000000000E+00 0. -1.
<mgrwt>
<rscale>  0 0.34117419E+03</rscale>
<asrwt>0</asrwt>
<pdfrwt beam="1">  1        2 0.14934020E-01 0.34117419E+03</pdfrwt>
<pdfrwt beam="2">  1       -2 0.46119959E-01 0.34117419E+03</pdfrwt>
<totfact> 0.17758317E+03</totfact>
</mgrwt>
</event>
<event>
 6    1  0.1588846E-005  0.1524490E+04  0.7818608E-02  0.8868329E-01
         -4   -1    0    0    0  501 -0.00000000000E+00  0.00000000000E+00  0.36576070544E+03  0.36576070544E+03  0.00000000000E+00 0.  1.
          4   -1    0    0  501    0  0.00000000000E+00 -0.00000000000E+00 -0.15885172620E+04  0.15885172620E+04  0.00000000000E+00 0. -1.
         23    2    1    2    0    0  0.75133990916E+03 -0.86843049622E+02 -0.52568026110E+03  0.92570189535E+03  0.92362805198E+02 0.  0.
         13    1    3    3    0    0  0.31292944007E+03  0.93935549785E+01 -0.21124491479E+03  0.37767378432E+03  0.00000000000E+00 0.  1.
        -13    1    3    3    0    0  0.43841046909E+03 -0.96236604601E+02 -0.31443534631E+03  0.54802811103E+03  0.00000000000E+00 0. -1.
         22    1    1    2    0    0 -0.75133990916E+03  0.86843049622E+02 -0.69707629544E+03  0.10285760721E+04  0.00000000000E+00 0. -1.
<mgrwt>
<rscale>  0 0.15244897E+04</rscale>
<asrwt>0</asrwt>
<pdfrwt beam="1">  1        4 0.24438727E+00 0.15244897E+04</pdfrwt>
<pdfrwt beam="2">  1       -4 0.56270878E-01 0.15244897E+04</pdfrwt>
<totfact> 0.39795587E-01</totfact>
</mgrwt>
</event>
<event>
 6    1  0.1588846E-005  0.1286526E+04  0.7818608E-02  0.9040319E-01
         -2   -1    0    0    0  501 -0.00000000000E+00  0.00000000000E+00  0.60315468417E+03  0.60315468417E+03  0.00000000000E+00 0.  1.
          2   -1    0    0  501    0  0.00000000000E+00 -0.00000000000E+00 -0.68603871509E+03  0.68603871509E+03  0.00000000000E+00 0. -1.
         23    2    1    2    0    0  0.26106293895E+03 -0.56831340721E+03  0.10125639304E+03  0.63724119040E+03  0.68479856160E+02 0.  0.
         11    1    3    3    0    0  0.15410131714E+03 -0.31150629753E+03  0.89125137163E+02  0.35878500445E+03  0.00000000000E+00 0.  1.
        -11    1    3    3    0    0  0.10696162181E+03 -0.25680710968E+03  0.12131255880E+02  0.27845618594E+03  0.00000000000E+00 0. -1.
         22    1    1    2    0    0 -0.26106293895E+03  0.56831340721E+03 -0.18414042396E+03  0.65195220886E+03  0.00000000000E+00 0. -1.
<mgrwt>
<rscale>  0 0.12865263E+04</rscale>
<asrwt>0</asrwt>
<pdfrwt beam="1">  1        2 0.10554442E+00 0.12865263E+04</pdfrwt>
<pdfrwt beam="2">  1       -2 0.92793029E-01 0.12865263E+04</pdfrwt>
<totfact> 0.40611909E+01</totfact>
</mgrwt>
</event>
<event>
 6    1  0.1588846E-005  0.1771152E+04  0.7818608E-02  0.8721793E-01
         -2   -1    0    0    0  501 -0.00000000000E+00  0.00000000000E+00  0.72554034741E+03  0.72554034741E+03  0.00000000000E+00 0.  1.
          2   -1    0    0  501    0  0.00000000000E+00 -0.00000000000E+00 -0.10809109765E+04  0.10809109765E+04  0.00000000000E+00 0. -1.
         23    2    1    2    0    0  0.65046216771E+02  0.39646551759E+03  0.62413593471E+03  0.74774974863E+03  0.90377567053E+02 0.  0.
         11    1    3    3    0    0  0.22194479942E+02  0.17692510156E+03  0.35913293172E+03  0.40096327656E+03  0.00000000000E+00 0. -1.
        -11    1    3    3    0    0  0.42851736829E+02  0.21954041603E+03  0.26500300300E+03  0.34678647208E+03  0.00000000000E+00 0.  1.
         22    1    1    2    0    0 -0.65046216771E+02 -0.39646551759E+03 -0.97950656380E+03  0.10587015753E+04  0.00000000000E+00 0. -1.
<mgrwt>
<rscale>  0 0.17711516E+04</rscale>
<asrwt>0</asrwt>
<pdfrwt beam="1">  1        2 0.16629400E+00 0.17711516E+04</pdfrwt>
<pdfrwt beam="2">  1       -2 0.11162159E+00 0.17711516E+04</pdfrwt>
<totfact> 0.13434897E+01</totfact>
</mgrwt>
</event>
<event>
 6    1  0.1687605E-005  0.3682057E+04  0.7818608E-02  0.8071950E-01
         -2   -1    0    0    0  501 -0.00000000000E+00  0.00000000000E+00  0.20033719666E+04  0.20033719666E+04  0.00000000000E+00 0.  1.
          2   -1    0    0  501    0  0.00000000000E+00 -0.00000000000E+00 -0.16918408019E+04  0.16918408019E+04  0.00000000000E+00 0. -1.
         23    2    1    2    0    0  0.13813428332E+04  0.37516757363E+03  0.13160021141E+04  0.19465502455E+04  0.91310255391E+02 0.  0.
         11    1    3    3    0    0  0.65690975824E+03  0.21617322112E+03  0.59776167223E+03  0.91410081981E+03  0.00000000000E+00 0. -1.
        -11    1    3    3    0    0  0.72443307500E+03  0.15899435251E+03  0.71824044184E+03  0.10324494257E+04  0.00000000000E+00 0.  1.
         22    1    1    2    0    0 -0.13813428332E+04 -0.37516757363E+03 -0.10044709494E+04  0.17486625230E+04  0.00000000000E+00 0. -1.
<mgrwt>
<rscale>  0 0.36820573E+04</rscale>
<asrwt>0</asrwt>
<pdfrwt beam="1">  1        2 0.26028320E+00 0.36820573E+04</pdfrwt>
<pdfrwt beam="2">  1       -2 0.30821107E+00 0.36820573E+04</pdfrwt>
<totfact> 0.22705292E-01</totfact>
</mgrwt>
</event>
<event>
 6    1  0.1588846E-005  0.4354861E+04  0.7818608E-02  0.7936551E-01
          1   -1    0    0  501    0  0.00000000000E+00  0.00000000000E+00  0.23138597225E+04  0.23138597225E+04  0.00000000000E+00 0. -1.
         -1   -1    0    0    0  501 -0.00000000000E+00 -0.00000000000E+00 -0.20490451121E+04  0.20490451121E+04  0.00000000000E+00 0.  1.
         23    2    1    2    0    0 -0.21247243799E+03  0.70161353692E+03  0.21855594193E+04  0.23070189640E+04  0.90886922651E+02 0.  0.
         13    1    3    3    0    0 -0.10417411102E+03  0.46150435842E+03  0.13173088501E+04  0.13996932252E+04  0.00000000000E+00 0. -1.
        -13    1    3    3    0    0 -0.10829832698E+03  0.24010917850E+03  0.86825056925E+03  0.90732573877E+03  0.00000000000E+00 0.  1.
         22    1    1    2    0    0  0.21247243799E+03 -0.70161353692E+03 -0.19207448089E+04  0.20558858706E+04  0.00000000000E+00 0.  1.
<mgrwt>
<rscale>  0 0.43548607E+04</rscale>
<asrwt>0</asrwt>
<pdfrwt beam="1">  1        1 0.35597842E+00 0.43548607E+04</pdfrwt>
<pdfrwt beam="2">  1       -1 0.31523771E+00 0.43548607E+04</pdfrwt>
<totfact> 0.36398080E-02</totfact>
</mgrwt>
</event>
<event>
 6    1  0.1588846E-005  0.2833172E+04  0.7818608E-02  0.8293043E-01
         -2   -1    0    0    0  501 -0.00000000000E+00  0.00000000000E+00  0.82421618970E+03  0.82421618970E+03  0.00000000000E+00 0.  1.
          2   -1    0    0  501    0  0.00000000000E+00 -0.00000000000E+00 -0.24346960331E+04  0.24346960331E+04  0.00000000000E+00 0. -1.
         23    2    1    2    0    0  0.10657582254E+04  0.43299118607E+03  0.14203156384E+03  0.11625777565E+04  0.89956170436E+02 0.  0.
         11    1    3    3    0    0  0.35259248446E+03  0.98417020877E+02  0.39924618435E+02  0.36824087939E+03  0.00000000000E+00 0. -1.
        -11    1    3    3    0    0  0.71316574090E+03  0.33457416519E+03  0.10210694541E+03  0.79433687709E+03  0.00000000000E+00 0.  1.
         22    1    1    2    0    0 -0.10657582254E+04 -0.43299118607E+03 -0.17525114072E+04  0.20963344663E+04  0.00000000000E+00 0. -1.
<mgrwt>
<rscale>  0 0.28331720E+04</rscale>
<asrwt>0</asrwt>
<pdfrwt beam="1">  1        2 0.37456862E+00 0.28331720E+04</pdfrwt>
<pdfrwt beam="2">  1       -2 0.12680249E+00 0.28331720E+04</pdfrwt>
<totfact> 0.15237671E+00</totfact>
</mgrwt>
</event>
<event>
 6    1  0.1588846E-005  0.1417608E+04  0.7818608E-02  0.8941170E-01
         -2   -1    0    0    0  501 -0.00000000000E+00  0.00000000000E+00  0.92459902078E+03  0.92459902078E+03  0.00000000000E+00 0.  1.
          2   -1    0    0  501    0  0.00000000000E+00 -0.00000000000E+00 -0.54337431906E+03  0.54337431906E+03  0.00000000000E+00 0. -1.
         23    2    1    2    0    0 -0.91788367149E+02 -0.14703945686E+02  0.91601376234E+03  0.92516522483E+03  0.90598951835E+02 0.  0.
         11    1    3    3    0    0 -0.39845519721E+02  0.12852866112E+02  0.12213062780E+03  0.12910752052E+03  0.00000000000E+00 0. -1.
        -11    1    3    3    0    0 -0.51942847428E+02 -0.27556811798E+02  0.79388313454E+03  0.79605770431E+03  0.00000000000E+00 0.  1.
         22    1    1    2    0    0  0.91788367149E+02  0.14703945686E+02 -0.53478906062E+03  0.54280811501E+03  0.00000000000E+00 0. -1.
<mgrwt>
<rscale>  0 0.14176084E+04</rscale>
<asrwt>0</asrwt>
<pdfrwt beam="1">  1        2 0.83596049E-01 0.14176084E+04</pdfrwt>
<pdfrwt beam="2">  1       -2 0.14224600E+00 0.14176084E+04</pdfrwt>
<totfact> 0.18692588E+01</totfact>
</mgrwt>
</event>
<event>
 6    1  0.1588846E-005  0.1000032E+04  0.7818608E-02  0.9308510E-01
          2   -1    0    0  501    0  0.00000000000E+00  0.00000000000E+00  0.27633757103E+03  0.27633757103E+03  0.00000000000E+00 0. -1.
         -2   -1    0    0    0  501 -0.00000000000E+00 -0.00000000000E+00 -0.90474815440E+03  0.90474815440E+03  0.00000000000E+00 0.  1.
         23    2    1    2    0    0 -0.44329884299E+03  0.22099681502E+03 -0.34150793215E+03  0.60866403845E+03  0.92145469448E+02 0.  0.
         13    1    3    3    0    0 -0.14332336210E+03  0.52816185168E+02 -0.59523312728E+02  0.16393340202E+03  0.00000000000E+00 0. -1.
        -13    1    3    3    0    0 -0.29997548089E+03  0.16818062985E+03 -0.28198461942E+03  0.44473063643E+03  0.00000000000E+00 0.  1.
         22    1    1    2    0    0  0.44329884299E+03 -0.22099681502E+03 -0.28690265122E+03  0.57242168698E+03  0.00000000000E+00 0.  1.
<mgrwt>
<rscale>  0 0.10000318E+04</rscale>
<asrwt>0</asrwt>
<pdfrwt beam="1">  1        2 0.42513472E-01 0.10000318E+04</pdfrwt>
<pdfrwt beam="2">  1       -2 0.13919202E+00 0.10000318E+04</pdfrwt>
<totfact> 0.43765970E+01</totfact>
</mgrwt>
</event>
<event>
 6    1  0.1588846E-005  0.4126827E+04  0.7818608E-02  0.7979439E-01
          1   -1    0    0  501    0  0.00000000000E+00  0.00000000000E+00  0.24990158326E+04  0.24990158326E+04  0.00000000000E+00 0. -1.
         -1   -1    0    0    0  501 -0.00000000000E+00 -0.00000000000E+00 -0.17037411327E+04  0.17037411327E+04  0.00000000000E+00 0.  1.
         23    2    1    2    0    0  0.68358572976E+03  0.14546383720E+04  0.17139873546E+04  0.23514614229E+04  0.91410767118E+02 0.  0.
         11    1    3    3    0    0  0.53282111975E+03  0.10628575524E+04  0.13048133956E+04  0.17652485717E+04  0.00000000000E+00 0. -1.
        -11    1    3    3    0    0  0.15076461001E+03  0.39178081957E+03  0.40917395902E+03  0.58621285124E+03  0.00000000000E+00 0.  1.
         22    1    1    2    0    0 -0.68358572976E+03 -0.14546383720E+04 -0.91871265481E+03  0.18512955424E+04  0.00000000000E+00 0.  1.
<mgrwt>
<rscale>  0 0.41268274E+04</rscale>
<asrwt>0</asrwt>
<pdfrwt beam="1">  1        1 0.38446397E+00 0.41268274E+04</pdfrwt>
<pdfrwt beam="2">  1       -1 0.26211402E+00 0.41268274E+04</pdfrwt>
<totfact> 0.61101174E-02</totfact>
</mgrwt>
</event>
<event>
 6    1  0.1588846E-005  0.1843628E+04  0.7818608E-02  0.8683436E-01
         -2   -1    0    0    0  501 -0.00000000000E+00  0.00000000000E+00  0.52191157618E+03  0.52191157618E+03  0.00000000000E+00 0.  1.
          2   -1    0    0  501    0  0.00000000000E+00 -0.00000000000E+00 -0.16281329811E+04  0.16281329811E+04  0.00000000000E+00 0. -1.
         23    2    1    2    0    0  0.18750197558E+03 -0.85441500315E+03 -0.88514175328E+03  0.12477928181E+04  0.91263383394E+02 0.  0.
         11    1    3    3    0    0  0.14395003540E+02 -0.21309417791E+03 -0.18347792075E+03  0.28156791754E+03  0.00000000000E+00 0. -1.
        -11    1    3    3    0    0  0.17310697203E+03 -0.64132082524E+03 -0.70166383253E+03  0.96622490060E+03  0.00000000000E+00 0.  1.
         22    1    1    2    0    0 -0.18750197558E+03  0.85441500315E+03 -0.22107965168E+03  0.90225173917E+03  0.00000000000E+00 0.  1.
<mgrwt>
<rscale>  0 0.18436284E+04</rscale>
<asrwt>0</asrwt>
<pdfrwt beam="1">  1        2 0.25048199E+00 0.18436284E+04</pdfrwt>
<pdfrwt beam="2">  1       -2 0.80294090E-01 0.18436284E+04</pdfrwt>
<totfact> 0.13870485E+01</totfact>
</mgrwt>
</event>
<event>
 6    1  0.1588846E-005  0.6271358E+03  0.7818608E-02  0.9850654E-01
          2   -1    0    0  501    0  0.00000000000E+00  0.00000000000E+00  0.38294459464E+03  0.38294459464E+03  0.00000000000E+00 0. -1.
         -2   -1    0    0    0  501 -0.00000000000E+00 -0.00000000000E+00 -0.25675995919E+03  0.25675995919E+03  0.00000000000E+00 0.  1.
         23    2    1    2    0    0  0.27804002412E+03 -0.12894509287E+03  0.69461887916E+02  0.32801470466E+03  0.93997875556E+02 0.  0.
         13    1    3    3    0    0  0.15904114859E+03 -0.22217237026E+02  0.39683469172E+02  0.16541605210E+03  0.00000000000E+00 0. -1.
        -13    1    3    3    0    0  0.11899887553E+03 -0.10672785585E+03  0.29778418744E+02  0.16259865256E+03  0.00000000000E+00 0.  1.
         22    1    1    2    0    0 -0.27804002412E+03  0.12894509287E+03  0.56722747533E+02  0.31168984917E+03  0.00000000000E+00 0.  1.
<mgrwt>
<rscale>  0 0.62713583E+03</rscale>
<asrwt>0</asrwt>
<pdfrwt beam="1">  1        2 0.58914553E-01 0.62713583E+03</pdfrwt>
<pdfrwt beam="2">  1       -2 0.39501532E-01 0.62713583E+03</pdfrwt>
<totfact> 0.51025765E+02</totfact>
</mgrwt>
</event>
<event>
 6    1  0.1588846E-005  0.1422223E+04  0.7818608E-02  0.8937888E-01
          2   -1    0    0  501    0  0.00000000000E+00  0.00000000000E+00  0.87388331513E+03  0.87388331513E+03  0.00000000000E+00 0. -1.
         -2   -1    0    0    0  501 -0.00000000000E+00 -0.00000000000E+00 -0.57865804603E+03  0.57865804603E+03  0.00000000000E+00 0.  1.
         23    2    1    2    0    0 -0.66425281442E+03  0.17064243917E+03 -0.32544915288E+02  0.69242035942E+03  0.89644515276E+02 0.  0.
         11    1    3    3    0    0 -0.44364448746E+03  0.75667656867E+02 -0.42329272229E+02  0.45203737991E+03  0.00000000000E+00 0. -1.
        -11    1    3    3    0    0 -0.22060832696E+03  0.94974782300E+02  0.97843569411E+01  0.24038297951E+03  0.00000000000E+00 0.  1.
         22    1    1    2    0    0  0.66425281442E+03 -0.17064243917E+03  0.32777018439E+03  0.76012100174E+03  0.00000000000E+00 0. -1.
<mgrwt>
<rscale>  0 0.14222231E+04</rscale>
<asrwt>0</asrwt>
<pdfrwt beam="1">  1        2 0.13444359E+00 0.14222231E+04</pdfrwt>
<pdfrwt beam="2">  1       -2 0.89024315E-01 0.14222231E+04</pdfrwt>
<totfact> 0.32182943E+01</totfact>
</mgrwt>
</event>
<event>
 6    1  0.1588846E-005  0.1057562E+04  0.7818608E-02  0.9247571E-01
         -1   -1    0    0    0  501 -0.00000000000E+00  0.00000000000E+00  0.31137299043E+03  0.31137299043E+03  0.00000000000E+00 0.  1.
          1   -1    0    0  501    0  0.00000000000E+00 -0.00000000000E+00 -0.89798915577E+03  0.89798915577E+03  0.00000000000E+00 0. -1.
         23    2    1    2    0    0  0.15084833016E+03  0.24217898479E+03 -0.79924206922E+03  0.85353121108E+03  0.91223701303E+02 0.  0.
         13    1    3    3    0    0  0.10376748972E+03  0.17505427759E+03 -0.43602325568E+03  0.48117353576E+03  0.00000000000E+00 0. -1.
        -13    1    3    3    0    0  0.47080840437E+02  0.67124707207E+02 -0.36321881354E+03  0.37235767532E+03  0.00000000000E+00 0.  1.
         22    1    1    2    0    0 -0.15084833016E+03 -0.24217898479E+03  0.21262590388E+03  0.35583093512E+03  0.00000000000E+00 0.  1.
<mgrwt>
<rscale>  0 0.10575624E+04</rscale>
<asrwt>0</asrwt>
<pdfrwt beam="1">  1        1 0.13815218E+00 0.10575624E+04</pdfrwt>
<pdfrwt beam="2">  1       -1 0.47903537E-01 0.10575624E+04</pdfrwt>
<totfact> 0.79428222E+01</totfact>
</mgrwt>
</event>
<event>
 6    1  0.1588846E-005  0.1890646E+04  0.7818608E-02  0.8659527E-01
         -2   -1    0    0    0  501 -0.00000000000E+00  0.00000000000E+00  0.19077112840E+04  0.19077112840E+04  0.00000000000E+00 0.  1.
          2   -1    0    0  501    0  0.00000000000E+00 -0.00000000000E+00 -0.46843335114E+03  0.46843335114E+03  0.00000000000E+00 0. -1.
         23    2    1    2    0    0 -0.34985309081E+03 -0.74173864814E+03  0.13072782880E+04  0.15454838659E+04  0.83489221266E+02 0.  0.
         13    1    3    3    0    0 -0.76829119443E+02 -0.24373836724E+03  0.43872330223E+03  0.50772949607E+03  0.00000000000E+00 0.  1.
        -13    1    3    3    0    0 -0.27302397136E+03 -0.49800028090E+03  0.86855498581E+03  0.10377543698E+04  0.00000000000E+00 0. -1.
         22    1    1    2    0    0  0.34985309081E+03  0.74173864814E+03  0.13199964478E+03  0.83066076921E+03  0.00000000000E+00 0. -1.
<mgrwt>
<rscale>  0 0.18906460E+04</rscale>
<asrwt>0</asrwt>
<pdfrwt beam="1">  1        2 0.72066671E-01 0.18906460E+04</pdfrwt>
<pdfrwt beam="2">  1       -2 0.29349404E+00 0.18906460E+04</pdfrwt>
<totfact> 0.21707641E+00</totfact>
</mgrwt>
</event>
<event>
 6    1  0.1588846E-005  0.7424883E+03  0.7818608E-02  0.9647209E-01
         -1   -1    0    0    0  501 -0.00000000000E+00  0.00000000000E+00  0.48602413610E+03  0.48602413610E+03  0.00000000000E+00 0.  1.
          1   -1    0    0  501    0  0.00000000000E+00 -0.00000000000E+00 -0.28357070790E+03  0.28357070790E+03  0.00000000000E+00 0. -1.
         23    2    1    2    0    0 -0.23693137924E+02 -0.20496184227E+03 -0.20883154625E+03  0.30945785159E+03  0.97891907891E+02 0.  0.
         13    1    3    3    0    0 -0.37220116450E+02 -0.15350566524E+03 -0.96331167982E+02  0.18501086524E+03  0.00000000000E+00 0.  1.
        -13    1    3    3    0    0  0.13526978526E+02 -0.51456177026E+02 -0.11250037827E+03  0.12444698636E+03  0.00000000000E+00 0. -1.
         22    1    1    2    0    0  0.23693137924E+02  0.20496184227E+03  0.41128497445E+03  0.46013699241E+03  0.00000000000E+00 0.  1.
<mgrwt>
<rscale>  0 0.74248827E+03</rscale>
<asrwt>0</asrwt>
<pdfrwt beam="1">  1        1 0.43626263E-01 0.74248827E+03</pdfrwt>
<pdfrwt beam="2">  1       -1 0.74772944E-01 0.74248827E+03</pdfrwt>
<totfact> 0.17217565E+02</totfact>
</mgrwt>
</event>
<event>
 6    1  0.1588846E-005  0.1953297E+04  0.7818608E-02  0.8628772E-01
          2   -1    0    0  501    0  0.00000000000E+00  0.00000000000E+00  0.24017821381E+04  0.24017821381E+04  0.00000000000E+00 0. -1.
         -2   -1    0    0    0  501 -0.00000000000E+00 -0.00000000000E+00 -0.39713955454E+03  0.39713955454E+03  0.00000000000E+00 0.  1.
         23    2    1    2    0    0 -0.74081324248E+03  0.11721523476E+03  0.11300136096E+03  0.76401378649E+03  0.91673806857E+02 0.  0.
         13    1    3    3    0    0 -0.67163170007E+03  0.12904623387E+03  0.11637334854E+03  0.69374694757E+03  0.00000000000E+00 0. -1.
        -13    1    3    3    0    0 -0.69181542413E+02 -0.11830999112E+02 -0.33719875812E+01  0.70266838914E+02  0.00000000000E+00 0.  1.
         22    1    1    2    0    0  0.74081324248E+03 -0.11721523476E+03  0.18916412226E+04  0.20349079061E+04  0.00000000000E+00 0. -1.
<mgrwt>
<rscale>  0 0.19532974E+04</rscale>
<asrwt>0</asrwt>
<pdfrwt beam="1">  1        2 0.36950494E+00 0.19532974E+04</pdfrwt>
<pdfrwt beam="2">  1       -2 0.61098394E-01 0.19532974E+04</pdfrwt>
<totfact> 0.92217842E+00</totfact>
</mgrwt>
</event>
<event>
 6    1  0.1588846E-005  0.3058192E+04  0.7818608E-02  0.8227306E-01
          2   -1    0    0  501    0  0.00000000000E+00  0.00000000000E+00  0.10069893225E+04  0.10069893225E+04  0.00000000000E+00 0. -1.
         -2   -1    0    0    0  501 -0.00000000000E+00 -0.00000000000E+00 -0.23219058419E+04  0.23219058419E+04  0.00000000000E+00 0.  1.
         23    2    1    2    0    0  0.74183313673E+03  0.89129123853E+03  0.42422913007E+03  0.12385975624E+04  0.97144697441E+02 0.  0.
         13    1    3    3    0    0  0.48366055619E+03  0.55548544995E+03  0.31562365164E+03  0.80131760757E+03  0.00000000000E+00 0. -1.
        -13    1    3    3    0    0  0.25817258055E+03  0.33580578857E+03  0.10860547843E+03  0.43727995487E+03  0.00000000000E+00 0.  1.
         22    1    1    2    0    0 -0.74183313673E+03 -0.89129123853E+03 -0.17391456495E+04  0.20902976019E+04  0.00000000000E+00 0.  1.
<mgrwt>
<rscale>  0 0.30581919E+04</rscale>
<asrwt>0</asrwt>
<pdfrwt beam="1">  1        2 0.15492144E+00 0.30581919E+04</pdfrwt>
<pdfrwt beam="2">  1       -2 0.35721628E+00 0.30581919E+04</pdfrwt>
<totfact> 0.29736158E-01</totfact>
</mgrwt>
</event>
<event>
 6    1  0.1588846E-005  0.2128654E+04  0.7818608E-02  0.8548725E-01
         -2   -1    0    0    0  501 -0.00000000000E+00  0.00000000000E+00  0.20432130416E+04  0.20432130416E+04  0.00000000000E+00 0.  1.
          2   -1    0    0  501    0  0.00000000000E+00 -0.00000000000E+00 -0.55441711576E+03  0.55441711576E+03  0.00000000000E+00 0. -1.
         23    2    1    2    0    0 -0.66139740456E+03  0.38600869707E+03  0.16442737734E+04  0.18162067113E+04  0.92311077987E+02 0.  0.
         11    1    3    3    0    0 -0.10621228959E+03  0.10376318926E+03  0.30865431532E+03  0.34251326438E+03  0.00000000000E+00 0. -1.
        -11    1    3    3    0    0 -0.55518511497E+03  0.28224550781E+03  0.13356194581E+04  0.14736934469E+04  0.00000000000E+00 0.  1.
         22    1    1    2    0    0  0.66139740456E+03 -0.38600869707E+03 -0.15547784760E+03  0.78142344607E+03  0.00000000000E+00 0. -1.
<mgrwt>
<rscale>  0 0.21286543E+04</rscale>
<asrwt>0</asrwt>
<pdfrwt beam="1">  1        2 0.85294942E-01 0.21286543E+04</pdfrwt>
<pdfrwt beam="2">  1       -2 0.31434047E+00 0.21286543E+04</pdfrwt>
<totfact> 0.13022934E+00</totfact>
</mgrwt>
</event>
<event>
 6    1  0.1588846E-005  0.3467492E+04  0.7818608E-02  0.8121537E-01
         -2   -1    0    0    0  501 -0.00000000000E+00  0.00000000000E+00  0.10612590380E+04  0.10612590380E+04  0.00000000000E+00 0.  1.
          2   -1    0    0  501    0  0.00000000000E+00 -0.00000000000E+00 -0.28323665805E+04  0.28323665805E+04  0.00000000000E+00 0. -1.
         23    2    1    2    0    0  0.80630975588E+03 -0.13863459142E+04 -0.16220318626E+04  0.22829381955E+04  0.93429251130E+02 0.  0.
         11    1    3    3    0    0  0.20609513838E+03 -0.40782622420E+03 -0.50869046884E+03  0.68378609835E+03  0.00000000000E+00 0.  1.
        -11    1    3    3    0    0  0.60021461750E+03 -0.97851968998E+03 -0.11133413938E+04  0.15991520971E+04  0.00000000000E+00 0. -1.
         22    1    1    2    0    0 -0.80630975588E+03  0.13863459142E+04 -0.14907567994E+03  0.16106874230E+04  0.00000000000E+00 0. -1.
<mgrwt>
<rscale>  0 0.34674917E+04</rscale>
<asrwt>0</asrwt>
<pdfrwt beam="1">  1        2 0.43574870E+00 0.34674917E+04</pdfrwt>
<pdfrwt beam="2">  1       -2 0.16327062E+00 0.34674917E+04</pdfrwt>
<totfact> 0.43375805E-01</totfact>
</mgrwt>
</event>
<event>
 6    1  0.1588846E-005  0.1974415E+04  0.7818608E-02  0.8618677E-01
          2   -1    0    0  501    0  0.00000000000E+00  0.00000000000E+00  0.13766305976E+04  0.13766305976E+04  0.00000000000E+00 0. -1.
         -2   -1    0    0    0  501 -0.00000000000E+00 -0.00000000000E+00 -0.70794477814E+03  0.70794477814E+03  0.00000000000E+00 0.  1.
         23    2    1    2    0    0  0.15987611599E+03 -0.72875584945E+03 -0.34399197288E+03  0.82673525407E+03  0.92278070749E+02 0.  0.
         11    1    3    3    0    0 -0.10909829018E+02 -0.49402096042E+02 -0.14561620457E+02  0.52646293819E+02  0.00000000000E+00 0. -1.
        -11    1    3    3    0    0  0.17078594500E+03 -0.67935375341E+03 -0.32943035243E+03  0.77408896025E+03  0.00000000000E+00 0.  1.
         22    1    1    2    0    0 -0.15987611599E+03  0.72875584945E+03  0.10126777923E+04  0.12578401216E+04  0.00000000000E+00 0. -1.
<mgrwt>
<rscale>  0 0.19744148E+04</rscale>
<asrwt>0</asrwt>
<pdfrwt beam="1">  1        2 0.21178932E+00 0.19744148E+04</pdfrwt>
<pdfrwt beam="2">  1       -2 0.10891458E+00 0.19744148E+04</pdfrwt>
<totfact> 0.93524630E+00</totfact>
</mgrwt>
</event>
<event>
 6    1  0.1588846E-005  0.2288677E+04  0.7818608E-02  0.8482399E-01
         -1   -1    0    0    0  501 -0.00000000000E+00  0.00000000000E+00  0.28545266909E+04  0.28545266909E+04  0.00000000000E+00 0.  1.
          1   -1    0    0  501    0  0.00000000000E+00 -0.00000000000E+00 -0.45874896742E+03  0.45874896742E+03  0.00000000000E+00 0. -1.
         23    2    1    2    0    0  0.24513765885E+03  0.31673124077E+01  0.28152608957E+04  0.28274067096E+04  0.91827486720E+02 0.  0.
         11    1    3    3    0    0  0.87179777104E+02  0.45165483753E+02  0.11049471408E+04  0.11093008692E+04  0.00000000000E+00 0. -1.
        -11    1    3    3    0    0  0.15795788175E+03 -0.41998171346E+02  0.17103137549E+04  0.17181058404E+04  0.00000000000E+00 0.  1.
         22    1    1    2    0    0 -0.24513765885E+03 -0.31673124077E+01 -0.41948317213E+03  0.48586894874E+03  0.00000000000E+00 0. -1.
<mgrwt>
<rscale>  0 0.22886775E+04</rscale>
<asrwt>0</asrwt>
<pdfrwt beam="1">  1        1 0.70576766E-01 0.22886775E+04</pdfrwt>
<pdfrwt beam="2">  1       -1 0.43915794E+00 0.22886775E+04</pdfrwt>
<totfact> 0.17348933E-01</totfact>
</mgrwt>
</event>
<event>
 6    1  0.1588846E-005  0.2822960E+04  0.7818608E-02  0.8296176E-01
         -1   -1    0    0    0  501 -0.00000000000E+00  0.00000000000E+00  0.18494465900E+04  0.18494465900E+04  0.00000000000E+00 0.  1.
          1   -1    0    0  501    0  0.00000000000E+00 -0.00000000000E+00 -0.10772278045E+04  0.10772278045E+04  0.00000000000E+00 0. -1.
         23    2    1    2    0    0  0.28871236842E+03 -0.70605449812E+03  0.16159515008E+04  0.17892418994E+04  0.90661655808E+02 0.  0.
         11    1    3    3    0    0  0.10593881876E+03 -0.33606981647E+03  0.82526291846E+03  0.89734321163E+03  0.00000000000E+00 0. -1.
        -11    1    3    3    0    0  0.18277354966E+03 -0.36998468164E+03  0.79068858229E+03  0.89189868779E+03  0.00000000000E+00 0.  1.
         22    1    1    2    0    0 -0.28871236842E+03  0.70605449812E+03 -0.84373271533E+03  0.11374324951E+04  0.00000000000E+00 0. -1.
<mgrwt>
<rscale>  0 0.28229596E+04</rscale>
<asrwt>0</asrwt>
<pdfrwt beam="1">  1        1 0.16572736E+00 0.28229596E+04</pdfrwt>
<pdfrwt beam="2">  1       -1 0.28453024E+00 0.28229596E+04</pdfrwt>
<totfact> 0.47414408E-01</totfact>
</mgrwt>
</event>
<event>
 6    1  0.1588846E-005  0.1673392E+04  0.7818608E-02  0.8776687E-01
         -1   -1    0    0    0  501 -0.00000000000E+00  0.00000000000E+00  0.47991798027E+03  0.47991798027E+03  0.00000000000E+00 0.  1.
          1   -1    0    0  501    0  0.00000000000E+00 -0.00000000000E+00 -0.14587076717E+04  0.14587076717E+04  0.00000000000E+00 0. -1.
         23    2    1    2    0    0 -0.24821147497E+03  0.78300814806E+03 -0.66375226346E+03  0.10588760983E+04  0.77076766937E+02 0.  0.
         13    1    3    3    0    0 -0.71042210981E+02  0.24507076716E+03 -0.25230094366E+03  0.35883484060E+03  0.00000000000E+00 0.  1.
        -13    1    3    3    0    0 -0.17716926399E+03  0.53793738090E+03 -0.41145131980E+03  0.70004125766E+03  0.00000000000E+00 0. -1.
         22    1    1    2    0    0  0.24821147497E+03 -0.78300814806E+03 -0.31503742796E+03  0.87974955371E+03  0.00000000000E+00 0.  1.
<mgrwt>
<rscale>  0 0.16733918E+04</rscale>
<asrwt>0</asrwt>
<pdfrwt beam="1">  1        1 0.22441656E+00 0.16733918E+04</pdfrwt>
<pdfrwt beam="2">  1       -1 0.73833538E-01 0.16733918E+04</pdfrwt>
<totfact> 0.12314068E+01</totfact>
</mgrwt>
</event>
<event>
 6    1  0.1588846E-005  0.1833527E+04  0.7818608E-02  0.8688671E-01
          1   -1    0    0  501    0  0.00000000000E+00  0.00000000000E+00  0.14915101897E+04  0.14915101897E+04  0.00000000000E+00 0. -1.
         -1   -1    0    0    0  501 -0.00000000000E+00 -0.00000000000E+00 -0.56349263053E+03  0.56349263053E+03  0.00000000000E+00 0.  1.
         23    2    1    2    0    0 -0.55200597758E+03 -0.16483246154E+03 -0.33006041925E+03  0.67129745440E+03  0.99096176857E+02 0.  0.
         11    1    3    3    0    0 -0.18709839401E+03 -0.47633101140E+02 -0.59054839185E+02  0.20189649674E+03  0.00000000000E+00 0. -1.
        -11    1    3    3    0    0 -0.36490758357E+03 -0.11719936040E+03 -0.27100558007E+03  0.46940095766E+03  0.00000000000E+00 0.  1.
         22    1    1    2    0    0  0.55200597758E+03  0.16483246154E+03  0.12580779784E+04  0.13837053659E+04  0.00000000000E+00 0. -1.
<mgrwt>
<rscale>  0 0.18335267E+04</rscale>
<asrwt>0</asrwt>
<pdfrwt beam="1">  1        1 0.22946310E+00 0.18335267E+04</pdfrwt>
<pdfrwt beam="2">  1       -1 0.86691175E-01 0.18335267E+04</pdfrwt>
<totfact> 0.81829106E+00</totfact>
</mgrwt>
</event>
<event>
 6    1  0.1588846E-005  0.3401033E+04  0.7818608E-02  0.8137653E-01
          1   -1    0    0  501    0  0.00000000000E+00  0.00000000000E+00  0.11562198823E+04  0.11562198823E+04  0.00000000000E+00 0. -1.
         -1   -1    0    0    0  501 -0.00000000000E+00 -0.00000000000E+00 -0.25010437461E+04  0.25010437461E+04  0.00000000000E+00 0.  1.
         23    2    1    2    0    0  0.67536932008E+03  0.88822583782E+03 -0.20510257783E+04  0.23367372176E+04  0.92548490492E+02 0.  0.
         11    1    3    3    0    0  0.22503933255E+03  0.29980184548E+03 -0.60019637684E+03  0.70764365221E+03  0.00000000000E+00 0. -1.
        -11    1    3    3    0    0  0.45032998753E+03  0.58842399234E+03 -0.14508294015E+04  0.16290935654E+04  0.00000000000E+00 0.  1.
         22    1    1    2    0    0 -0.67536932008E+03 -0.88822583782E+03  0.70620191451E+03  0.13205264108E+04  0.00000000000E+00 0. -1.
<mgrwt>
<rscale>  0 0.34010331E+04</rscale>
<asrwt>0</asrwt>
<pdfrwt beam="1">  1        1 0.17787998E+00 0.34010331E+04</pdfrwt>
<pdfrwt beam="2">  1       -1 0.38477596E+00 0.34010331E+04</pdfrwt>
<totfact> 0.85924501E-02</totfact>
</mgrwt>
</event>
<event>
 6    1  0.1588846E-005  0.1019088E+04  0.7818608E-02  0.9287854E-01
         -1   -1    0    0    0  501 -0.00000000000E+00  0.00000000000E+00  0.28039518884E+03  0.28039518884E+03  0.00000000000E+00 0.  1.
          1   -1    0    0  501    0  0.00000000000E+00 -0.00000000000E+00 -0.92596137562E+03  0.92596137562E+03  0.00000000000E+00 0. -1.
         23    2    1    2    0    0 -0.23185522359E+03  0.38914893180E+03 -0.59342058539E+02  0.46551078810E+03  0.89359264203E+02 0.  0.
         11    1    3    3    0    0 -0.14152158881E+03  0.16136437622E+03 -0.59262810807E+01  0.21471362979E+03  0.00000000000E+00 0.  1.
        -11    1    3    3    0    0 -0.90333634784E+02  0.22778455558E+03 -0.53415777458E+02  0.25079715831E+03  0.00000000000E+00 0. -1.
         22    1    1    2    0    0  0.23185522359E+03 -0.38914893180E+03 -0.58622412824E+03  0.74084577636E+03  0.00000000000E+00 0. -1.
<mgrwt>
<rscale>  0 0.10190881E+04</rscale>
<asrwt>0</asrwt>
<pdfrwt beam="1">  1        1 0.14245560E+00 0.10190881E+04</pdfrwt>
<pdfrwt beam="2">  1       -1 0.43137721E-01 0.10190881E+04</pdfrwt>
<totfact> 0.91898516E+01</totfact>
</mgrwt>
</event>
<event>
 6    1  0.1588846E-005  0.2127375E+04  0.7818608E-02  0.8549279E-01
          2   -1    0    0  501    0  0.00000000000E+00  0.00000000000E+00  0.32695108054E+04  0.32695108054E+04  0.00000000000E+00 0. -1.
         -2   -1    0    0    0  501 -0.00000000000E+00 -0.00000000000E+00 -0.34605527585E+03  0.34605527585E+03  0.00000000000E+00 0.  1.
         23    2    1    2    0    0 -0.50161970405E+03  0.61951814918E+03  0.26563171920E+04  0.27748592620E+04  0.91639698603E+02 0.  0.
         11    1    3    3    0    0 -0.11262782687E+03  0.19433430424E+03  0.67104428474E+03  0.70763781786E+03  0.00000000000E+00 0.  1.
        -11    1    3    3    0    0 -0.38899187718E+03  0.42518384494E+03  0.19852729073E+04  0.20672214441E+04  0.00000000000E+00 0. -1.
         22    1    1    2    0    0  0.50161970405E+03 -0.61951814918E+03  0.26713833754E+03  0.84070681932E+03  0.00000000000E+00 0.  1.
<mgrwt>
<rscale>  0 0.21273753E+04</rscale>
<asrwt>0</asrwt>
<pdfrwt beam="1">  1        2 0.50300164E+00 0.21273753E+04</pdfrwt>
<pdfrwt beam="2">  1       -2 0.53239275E-01 0.21273753E+04</pdfrwt>
<totfact> 0.35797413E+00</totfact>
</mgrwt>
</event>
<event>
 6    1  0.1588846E-005  0.1580473E+04  0.7818608E-02  0.8832635E-01
         -2   -1    0    0    0  501 -0.00000000000E+00  0.00000000000E+00  0.15120447103E+04  0.15120447103E+04  0.00000000000E+00 0. -1.
          2   -1    0    0  501    0  0.00000000000E+00 -0.00000000000E+00 -0.41299958964E+03  0.41299958964E+03  0.00000000000E+00 0.  1.
         23    2    1    2    0    0  0.71016632519E+03 -0.20133930103E+03  0.88555934503E+03  0.11566369211E+04  0.93380351208E+02 0.  0.
         13    1    3    3    0    0  0.41548980419E+03 -0.16530925507E+03  0.53217694544E+03  0.69510519236E+03  0.00000000000E+00 0. -1.
        -13    1    3    3    0    0  0.29467652101E+03 -0.36030045960E+02  0.35338239960E+03  0.46153172869E+03  0.00000000000E+00 0.  1.
         22    1    1    2    0    0 -0.71016632519E+03  0.20133930103E+03  0.21348577567E+03  0.76840737893E+03  0.00000000000E+00 0.  1.
<mgrwt>
<rscale>  0 0.15804732E+04</rscale>
<asrwt>0</asrwt>
<pdfrwt beam="1">  1        2 0.63538399E-01 0.15804732E+04</pdfrwt>
<pdfrwt beam="2">  1       -2 0.23262226E+00 0.15804732E+04</pdfrwt>
<totfact> 0.60618553E+00</totfact>
</mgrwt>
</event>
<event>
 6    1  0.1588846E-005  0.1564997E+04  0.7818608E-02  0.8842345E-01
          4   -1    0    0  501    0  0.00000000000E+00  0.00000000000E+00  0.31912455347E+03  0.31912455347E+03  0.00000000000E+00 0. -1.
         -4   -1    0    0    0  501 -0.00000000000E+00 -0.00000000000E+00 -0.19186988067E+04  0.19186988067E+04  0.00000000000E+00 0.  1.
         23    2    1    2    0    0  0.35408469283E+03  0.43939738805E+03 -0.32796770528E+02  0.57251926943E+03  0.90866117946E+02 0.  0.
         11    1    3    3    0    0  0.48059087140E+02  0.33305480164E+02 -0.25979568410E+02  0.63983348150E+02  0.00000000000E+00 0. -1.
        -11    1    3    3    0    0  0.30602560569E+03  0.40609190788E+03 -0.68172021186E+01  0.50853592128E+03  0.00000000000E+00 0.  1.
         22    1    1    2    0    0 -0.35408469283E+03 -0.43939738805E+03 -0.15667774827E+04  0.16653040908E+04  0.00000000000E+00 0.  1.
<mgrwt>
<rscale>  0 0.15649970E+04</rscale>
<asrwt>0</asrwt>
<pdfrwt beam="1">  1        4 0.49096086E-01 0.15649970E+04</pdfrwt>
<pdfrwt beam="2">  1       -4 0.29518443E+00 0.15649970E+04</pdfrwt>
<totfact> 0.25652293E-01</totfact>
</mgrwt>
</event>
<event>
 6    1  0.1588846E-005  0.2846291E+04  0.7818608E-02  0.8289039E-01
          1   -1    0    0  501    0  0.00000000000E+00  0.00000000000E+00  0.26034343784E+04  0.26034343784E+04  0.00000000000E+00 0. -1.
         -1   -1    0    0    0  501 -0.00000000000E+00 -0.00000000000E+00 -0.77795038222E+03  0.77795038222E+03  0.00000000000E+00 0.  1.
         23    2    1    2    0    0  0.63993401174E+03 -0.10200242760E+04  0.15629049816E+02  0.12075540428E+04  0.89316492961E+02 0.  0.
         11    1    3    3    0    0  0.40426689421E+03 -0.69985269711E+03  0.40370924973E+02  0.80923132106E+03  0.00000000000E+00 0.  1.
        -11    1    3    3    0    0  0.23566711753E+03 -0.32017157891E+03 -0.24741875157E+02  0.39832272169E+03  0.00000000000E+00 0. -1.
         22    1    1    2    0    0 -0.63993401174E+03  0.10200242760E+04  0.18098549464E+04  0.21738307179E+04  0.00000000000E+00 0. -1.
<mgrwt>
<rscale>  0 0.28462908E+04</rscale>
<asrwt>0</asrwt>
<pdfrwt beam="1">  1        1 0.40052836E+00 0.28462908E+04</pdfrwt>
<pdfrwt beam="2">  1       -1 0.11968468E+00 0.28462908E+04</pdfrwt>
<totfact> 0.61623314E-01</totfact>
</mgrwt>
</event>
<event>
 6    1  0.1588846E-005  0.1574843E+04  0.7818608E-02  0.8836154E-01
         -2   -1    0    0    0  501 -0.00000000000E+00  0.00000000000E+00  0.15595744539E+03  0.15595744539E+03  0.00000000000E+00 0.  1.
          2   -1    0    0  501    0  0.00000000000E+00 -0.00000000000E+00 -0.39756534566E+04  0.39756534566E+04  0.00000000000E+00 0. -1.
         23    2    1    2    0    0 -0.66196717962E+03  0.32653354897E+03 -0.26153040191E+04  0.27190300101E+04  0.92110683231E+02 0.  0.
         11    1    3    3    0    0 -0.19948922490E+03  0.12956047496E+03 -0.72464208114E+03  0.76268474043E+03  0.00000000000E+00 0.  1.
        -11    1    3    3    0    0 -0.46247795472E+03  0.19697307401E+03 -0.18906619380E+04  0.19563452697E+04  0.00000000000E+00 0. -1.
         22    1    1    2    0    0  0.66196717962E+03 -0.32653354897E+03 -0.12043919921E+04  0.14125808919E+04  0.00000000000E+00 0.  1.
<mgrwt>
<rscale>  0 0.15748432E+04</rscale>
<asrwt>0</asrwt>
<pdfrwt beam="1">  1        2 0.61163905E+00 0.15748432E+04</pdfrwt>
<pdfrwt beam="2">  1       -2 0.23993451E-01 0.15748432E+04</pdfrwt>
<totfact> 0.54253123E+00</totfact>
</mgrwt>
</event>
<event>
 6    1  0.1588846E-005  0.2683223E+04  0.7818608E-02  0.8340469E-01
         -1   -1    0    0    0  501 -0.00000000000E+00  0.00000000000E+00  0.78481902662E+03  0.78481902662E+03  0.00000000000E+00 0.  1.
          1   -1    0    0  501    0  0.00000000000E+00 -0.00000000000E+00 -0.22934219081E+04  0.22934219081E+04  0.00000000000E+00 0. -1.
         23    2    1    2    0    0  0.48472101920E+03  0.66504850502E+03 -0.19684454488E+04  0.21355325136E+04  0.92074161846E+02 0.  0.
         13    1    3    3    0    0  0.16553066835E+03  0.21342443306E+03 -0.75956599329E+03  0.80615810420E+03  0.00000000000E+00 0.  1.
        -13    1    3    3    0    0  0.31919035084E+03  0.45162407195E+03 -0.12088794555E+04  0.13293744094E+04  0.00000000000E+00 0. -1.
         22    1    1    2    0    0 -0.48472101920E+03 -0.66504850502E+03  0.45984256734E+03  0.94270842110E+03  0.00000000000E+00 0.  1.
<mgrwt>
<rscale>  0 0.26832228E+04</rscale>
<asrwt>0</asrwt>
<pdfrwt beam="1">  1        1 0.35283414E+00 0.26832228E+04</pdfrwt>
<pdfrwt beam="2">  1       -1 0.12074139E+00 0.26832228E+04</pdfrwt>
<totfact> 0.10023991E+00</totfact>
</mgrwt>
</event>
<event>
 6    1  0.1588846E-005  0.6901388E+03  0.7818608E-02  0.9734246E-01
         -2   -1    0    0    0  501 -0.00000000000E+00  0.00000000000E+00  0.36579152161E+03  0.36579152161E+03  0.00000000000E+00 0.  1.
          2   -1    0    0  501    0  0.00000000000E+00 -0.00000000000E+00 -0.32552116550E+03  0.32552116550E+03  0.00000000000E+00 0. -1.
         23    2    1    2    0    0 -0.21510291792E+03 -0.52584488461E+02 -0.23598435958E+03  0.33726316844E+03  0.94991752783E+02 0.  0.
         13    1    3    3    0    0  0.94859765176E+01  0.22165903554E+01 -0.84829306060E+01  0.12917319186E+02  0.00000000000E+00 0. -1.
        -13    1    3    3    0    0 -0.22458889444E+03 -0.54801078816E+02 -0.22750142898E+03  0.32434584926E+03  0.00000000000E+00 0.  1.
         22    1    1    2    0    0  0.21510291792E+03  0.52584488461E+02  0.27625471570E+03  0.35404951867E+03  0.00000000000E+00 0.  1.
<mgrwt>
<rscale>  0 0.69013878E+03</rscale>
<asrwt>0</asrwt>
<pdfrwt beam="1">  1        2 0.50080179E-01 0.69013878E+03</pdfrwt>
<pdfrwt beam="2">  1       -2 0.56275619E-01 0.69013878E+03</pdfrwt>
<totfact> 0.29990768E+02</totfact>
</mgrwt>
</event>
<event>
 6    1  0.1588846E-005  0.2799186E+04  0.7818608E-02  0.8303521E-01
         -1   -1    0    0    0  501 -0.00000000000E+00  0.00000000000E+00  0.85781485022E+03  0.85781485022E+03  0.00000000000E+00 0.  1.
          1   -1    0    0  501    0  0.00000000000E+00 -0.00000000000E+00 -0.22835475667E+04  0.22835475667E+04  0.00000000000E+00 0. -1.
         23    2    1    2    0    0  0.11565230211E+04 -0.79564889640E+02 -0.15906627979E+04  0.19704320169E+04  0.92293696857E+02 0.  0.
         13    1    3    3    0    0  0.10212492021E+04 -0.94781326093E+02 -0.14314037569E+04  0.17609230954E+04  0.00000000000E+00 0. -1.
        -13    1    3    3    0    0  0.13527381898E+03  0.15216436453E+02 -0.15925904103E+03  0.20950892150E+03  0.00000000000E+00 0.  1.
         22    1    1    2    0    0 -0.11565230211E+04  0.79564889640E+02  0.16493008146E+03  0.11709304000E+04  0.00000000000E+00 0.  1.
<mgrwt>
<rscale>  0 0.27991863E+04</rscale>
<asrwt>0</asrwt>
<pdfrwt beam="1">  1        1 0.35131501E+00 0.27991863E+04</pdfrwt>
<pdfrwt beam="2">  1       -1 0.13197152E+00 0.27991863E+04</pdfrwt>
<totfact> 0.80702584E-01</totfact>
</mgrwt>
</event>
<event>
 6    1  0.1588846E-005  0.1555089E+04  0.7818608E-02  0.8848624E-01
          2   -1    0    0  501    0  0.00000000000E+00  0.00000000000E+00  0.10575835969E+04  0.10575835969E+04  0.00000000000E+00 0. -1.
         -2   -1    0    0    0  501 -0.00000000000E+00 -0.00000000000E+00 -0.57165716223E+03  0.57165716223E+03  0.00000000000E+00 0.  1.
         23    2    1    2    0    0  0.55413391817E+03 -0.51171402582E+03  0.58577182385E+02  0.76232494606E+03  0.93767764120E+02 0.  0.
         11    1    3    3    0    0  0.33023763642E+03 -0.36443017175E+03  0.28099708931E+02  0.49260109646E+03  0.00000000000E+00 0. -1.
        -11    1    3    3    0    0  0.22389628175E+03 -0.14728385408E+03  0.30477473454E+02  0.26972384960E+03  0.00000000000E+00 0.  1.
         22    1    1    2    0    0 -0.55413391817E+03  0.51171402582E+03  0.42734925225E+03  0.86691581304E+03  0.00000000000E+00 0. -1.
<mgrwt>
<rscale>  0 0.15550887E+04</rscale>
<asrwt>0</asrwt>
<pdfrwt beam="1">  1        2 0.16270517E+00 0.15550887E+04</pdfrwt>
<pdfrwt beam="2">  1       -2 0.87947256E-01 0.15550887E+04</pdfrwt>
<totfact> 0.24833669E+01</totfact>
</mgrwt>
</event>
<event>
 6    1  0.1588846E-005  0.3456647E+04  0.7818608E-02  0.8124142E-01
          2   -1    0    0  501    0  0.00000000000E+00  0.00000000000E+00  0.21665070119E+04  0.21665070119E+04  0.00000000000E+00 0. -1.
         -2   -1    0    0    0  501 -0.00000000000E+00 -0.00000000000E+00 -0.13787639126E+04  0.13787639126E+04  0.00000000000E+00 0.  1.
         23    2    1    2    0    0  0.99572234825E+03 -0.69293268274E+03  0.16559242582E+04  0.20535077990E+04  0.56483927474E+02 0.  0.
         11    1    3    3    0    0  0.90662622776E+03 -0.64159462989E+03  0.15367097835E+04  0.18960727161E+04  0.00000000000E+00 0. -1.
        -11    1    3    3    0    0  0.89096120488E+02 -0.51338052848E+02  0.11921447470E+03  0.15743508292E+03  0.00000000000E+00 0.  1.
         22    1    1    2    0    0 -0.99572234825E+03  0.69293268274E+03 -0.86818115900E+03  0.14917631254E+04  0.00000000000E+00 0.  1.
<mgrwt>
<rscale>  0 0.34566467E+04</rscale>
<asrwt>0</asrwt>
<pdfrwt beam="1">  1        2 0.33330877E+00 0.34566467E+04</pdfrwt>
<pdfrwt beam="2">  1       -2 0.21211753E+00 0.34566467E+04</pdfrwt>
<totfact> 0.49350154E-01</totfact>
</mgrwt>
</event>
<event>
 6    1  0.1588846E-005  0.2010310E+04  0.7818608E-02  0.8601815E-01
         -1   -1    0    0    0  501 -0.00000000000E+00  0.00000000000E+00  0.14147500604E+04  0.14147500604E+04  0.00000000000E+00 0.  1.
          1   -1    0    0  501    0  0.00000000000E+00 -0.00000000000E+00 -0.71414500816E+03  0.71414500816E+03  0.00000000000E+00 0. -1.
         23    2    1    2    0    0  0.72393366842E+03 -0.28766841828E+03 -0.31816892138E+03  0.84642343750E+03  0.91477307927E+02 0.  0.
         11    1    3    3    0    0  0.68582922410E+03 -0.25760180531E+03 -0.31594151595E+03  0.79783422853E+03  0.00000000000E+00 0. -1.
        -11    1    3    3    0    0  0.38104444326E+02 -0.30066612971E+02 -0.22274054358E+01  0.48589208966E+02  0.00000000000E+00 0.  1.
         22    1    1    2    0    0 -0.72393366842E+03  0.28766841828E+03  0.10187739736E+04  0.12824716311E+04  0.00000000000E+00 0. -1.
<mgrwt>
<rscale>  0 0.20103101E+04</rscale>
<asrwt>0</asrwt>
<pdfrwt beam="1">  1        1 0.10986846E+00 0.20103101E+04</pdfrwt>
<pdfrwt beam="2">  1       -1 0.21765385E+00 0.20103101E+04</pdfrwt>
<totfact> 0.27943048E+00</totfact>
</mgrwt>
</event>
<event>
 6    1  0.1588846E-005  0.1261300E+04  0.7818608E-02  0.9060830E-01
         -2   -1    0    0    0  501 -0.00000000000E+00  0.00000000000E+00  0.15552574335E+03  0.15552574335E+03  0.00000000000E+00 0.  1.
          2   -1    0    0  501    0  0.00000000000E+00 -0.00000000000E+00 -0.25572590483E+04  0.25572590483E+04  0.00000000000E+00 0. -1.
         23    2    1    2    0    0  0.16692894224E+02 -0.61759507612E+03 -0.14414504588E+04  0.15709242592E+04  0.91221008934E+02 0.  0.
         11    1    3    3    0    0 -0.24098115615E+02 -0.20565959258E+03 -0.56168352686E+03  0.59863592570E+03  0.00000000000E+00 0. -1.
        -11    1    3    3    0    0  0.40791009839E+02 -0.41193548355E+03 -0.87976693189E+03  0.97228833354E+03  0.00000000000E+00 0.  1.
         22    1    1    2    0    0 -0.16692894224E+02  0.61759507612E+03 -0.96028284617E+03  0.11418605324E+04  0.00000000000E+00 0. -1.
<mgrwt>
<rscale>  0 0.12613003E+04</rscale>
<asrwt>0</asrwt>
<pdfrwt beam="1">  1        2 0.39342444E+00 0.12613003E+04</pdfrwt>
<pdfrwt beam="2">  1       -2 0.23927039E-01 0.12613003E+04</pdfrwt>
<totfact> 0.49504183E+01</totfact>
</mgrwt>
</event>
<event>
 6    1  0.1588846E-005  0.3051146E+04  0.7818608E-02  0.8229275E-01
         -1   -1    0    0    0  501 -0.00000000000E+00  0.00000000000E+00  0.18209229920E+04  0.18209229920E+04  0.00000000000E+00 0.  1.
          1   -1    0    0  501    0  0.00000000000E+00 -0.00000000000E+00 -0.12781282997E+04  0.12781282997E+04  0.00000000000E+00 0. -1.
         23    2    1    2    0    0  0.10425940211E+04 -0.41636786442E+03 -0.77546910122E+03  0.13675248205E+04  0.91691419089E+02 0.  0.
         13    1    3    3    0    0  0.66408461156E+03 -0.27370805407E+03 -0.54798776955E+03  0.90344621630E+03  0.00000000000E+00 0.  1.
        -13    1    3    3    0    0  0.37850940956E+03 -0.14265981035E+03 -0.22748133167E+03  0.46407860419E+03  0.00000000000E+00 0. -1.
         22    1    1    2    0    0 -0.10425940211E+04  0.41636786442E+03  0.13182637935E+04  0.17315264713E+04  0.00000000000E+00 0.  1.
<mgrwt>
<rscale>  0 0.30511462E+04</rscale>
<asrwt>0</asrwt>
<pdfrwt beam="1">  1        1 0.19663512E+00 0.30511462E+04</pdfrwt>
<pdfrwt beam="2">  1       -1 0.28014200E+00 0.30511462E+04</pdfrwt>
<totfact> 0.35290944E-01</totfact>
</mgrwt>
</event>
<event>
 6    1  0.1588846E-005  0.3330527E+04  0.7818608E-02  0.8155171E-01
         -2   -1    0    0    0  501 -0.00000000000E+00  0.00000000000E+00  0.81295472474E+03  0.81295472474E+03  0.00000000000E+00 0.  1.
          2   -1    0    0  501    0  0.00000000000E+00 -0.00000000000E+00 -0.34111399838E+04  0.34111399838E+04  0.00000000000E+00 0. -1.
         23    2    1    2    0    0 -0.86264141353E+03  0.13828993382E+04 -0.17252140210E+04  0.23751383623E+04  0.91422282523E+02 0.  0.
         13    1    3    3    0    0 -0.77826469926E+03  0.12381327340E+04 -0.15856146964E+04  0.21570448708E+04  0.00000000000E+00 0. -1.
        -13    1    3    3    0    0 -0.84376714269E+02  0.14476660422E+03 -0.13959932464E+03  0.21809349153E+03  0.00000000000E+00 0.  1.
         22    1    1    2    0    0  0.86264141353E+03 -0.13828993382E+04 -0.87297123800E+03  0.18489563462E+04  0.00000000000E+00 0.  1.
<mgrwt>
<rscale>  0 0.33305269E+04</rscale>
<asrwt>0</asrwt>
<pdfrwt beam="1">  1        2 0.52479077E+00 0.33305269E+04</pdfrwt>
<pdfrwt beam="2">  1       -2 0.12506996E+00 0.33305269E+04</pdfrwt>
<totfact> 0.37321012E-01</totfact>
</mgrwt>
</event>
<event>
 6    1  0.1588846E-005  0.8364237E+03  0.7818608E-02  0.9508742E-01
          2   -1    0    0  501    0  0.00000000000E+00  0.00000000000E+00  0.70998212564E+03  0.70998212564E+03  0.00000000000E+00 0. -1.
         -2   -1    0    0    0  501 -0.00000000000E+00 -0.00000000000E+00 -0.24634587297E+03  0.24634587297E+03  0.00000000000E+00 0.  1.
         23    2    1    2    0    0 -0.36454190425E+03  0.16199580704E+03  0.35694950766E+03  0.54339277001E+03  0.93430776666E+02 0.  0.
         11    1    3    3    0    0 -0.18975385391E+03  0.11078815492E+03  0.24723581702E+03  0.33076591355E+03  0.00000000000E+00 0. -1.
        -11    1    3    3    0    0 -0.17478805034E+03  0.51207652127E+02  0.10971369064E+03  0.21262685647E+03  0.00000000000E+00 0.  1.
         22    1    1    2    0    0  0.36454190425E+03 -0.16199580704E+03  0.10668674501E+03  0.41293522860E+03  0.00000000000E+00 0.  1.
<mgrwt>
<rscale>  0 0.83642374E+03</rscale>
<asrwt>0</asrwt>
<pdfrwt beam="1">  1        2 0.10922802E+00 0.83642374E+03</pdfrwt>
<pdfrwt beam="2">  1       -2 0.37899365E-01 0.83642374E+03</pdfrwt>
<totfact> 0.26559365E+02</totfact>
</mgrwt>
</event>
<event>
 6    1  0.1588846E-005  0.2042601E+04  0.7818608E-02  0.8586958E-01
          2   -1    0    0  501    0  0.00000000000E+00  0.00000000000E+00  0.11057052514E+04  0.11057052514E+04  0.00000000000E+00 0. -1.
         -2   -1    0    0    0  501 -0.00000000000E+00 -0.00000000000E+00 -0.94333922444E+03  0.94333922444E+03  0.00000000000E+00 0.  1.
         23    2    1    2    0    0  0.10326967995E+03  0.98547450850E+03 -0.15647988424E+03  0.10081374921E+04  0.10015295822E+03 0.  0.
         11    1    3    3    0    0  0.44191093627E+02  0.44829790130E+03 -0.12161518161E+03  0.46659844992E+03  0.00000000000E+00 0.  1.
        -11    1    3    3    0    0  0.59078586325E+02  0.53717660720E+03 -0.34864702630E+02  0.54153904215E+03  0.00000000000E+00 0. -1.
         22    1    1    2    0    0 -0.10326967995E+03 -0.98547450850E+03  0.31884591117E+03  0.10409069837E+04  0.00000000000E+00 0. -1.
<mgrwt>
<rscale>  0 0.20426014E+04</rscale>
<asrwt>0</asrwt>
<pdfrwt beam="1">  1        2 0.17010850E+00 0.20426014E+04</pdfrwt>
<pdfrwt beam="2">  1       -2 0.14512911E+00 0.20426014E+04</pdfrwt>
<totfact> 0.65410190E+00</totfact>
</mgrwt>
</event>
<event>
 6    1  0.1588846E-005  0.3243984E+04  0.7818608E-02  0.8177297E-01
          1   -1    0    0  501    0  0.00000000000E+00  0.00000000000E+00  0.41008757684E+04  0.41008757684E+04  0.00000000000E+00 0. -1.
         -1   -1    0    0    0  501 -0.00000000000E+00 -0.00000000000E+00 -0.64153572696E+03  0.64153572696E+03  0.00000000000E+00 0.  1.
         23    2    1    2    0    0 -0.13338423790E+02 -0.88171263023E+03 -0.25676604953E+03  0.92311318871E+03  0.92812063406E+02 0.  0.
         13    1    3    3    0    0  0.18229449280E+02 -0.36426871871E+03 -0.14687862730E+03  0.39318868678E+03  0.00000000000E+00 0. -1.
        -13    1    3    3    0    0 -0.31567873070E+02 -0.51744391152E+03 -0.10988742223E+03  0.52992450193E+03  0.00000000000E+00 0.  1.
         22    1    1    2    0    0  0.13338423790E+02  0.88171263023E+03  0.37161060910E+04  0.38192983067E+04  0.00000000000E+00 0. -1.
<mgrwt>
<rscale>  0 0.32439842E+04</rscale>
<asrwt>0</asrwt>
<pdfrwt beam="1">  1        1 0.63090395E+00 0.32439842E+04</pdfrwt>
<pdfrwt beam="2">  1       -1 0.98697807E-01 0.32439842E+04</pdfrwt>
<totfact> 0.63715918E-02</totfact>
</mgrwt>
</event>
<event>
 6    1  0.1588846E-005  0.1057035E+04  0.7818608E-02  0.9248111E-01
          1   -1    0    0  501    0  0.00000000000E+00  0.00000000000E+00  0.60112518452E+03  0.60112518452E+03  0.00000000000E+00 0. -1.
         -1   -1    0    0    0  501 -0.00000000000E+00 -0.00000000000E+00 -0.46467978188E+03  0.46467978188E+03  0.00000000000E+00 0.  1.
         23    2    1    2    0    0  0.57151980127E+02 -0.15671915406E+03  0.57017526024E+03  0.60110201670E+03  0.91632772572E+02 0.  0.
         13    1    3    3    0    0  0.55127246630E+02 -0.61865825736E+02  0.16101659407E+03  0.18108765082E+03  0.00000000000E+00 0.  1.
        -13    1    3    3    0    0  0.20247334972E+01 -0.94853328320E+02  0.40915866618E+03  0.42001436588E+03  0.00000000000E+00 0. -1.
         22    1    1    2    0    0 -0.57151980127E+02  0.15671915406E+03 -0.43372985760E+03  0.46470294969E+03  0.00000000000E+00 0.  1.
<mgrwt>
<rscale>  0 0.10570349E+04</rscale>
<asrwt>0</asrwt>
<pdfrwt beam="1">  1        1 0.92480798E-01 0.10570349E+04</pdfrwt>
<pdfrwt beam="2">  1       -1 0.71489197E-01 0.10570349E+04</pdfrwt>
<totfact> 0.67452817E+01</totfact>
</mgrwt>
</event>
<event>
 6    1  0.1588846E-005  0.8077022E+03  0.7818608E-02  0.9548935E-01
          2   -1    0    0  501    0  0.00000000000E+00  0.00000000000E+00  0.58156140659E+03  0.58156140659E+03  0.00000000000E+00 0. -1.
         -2   -1    0    0    0  501 -0.00000000000E+00 -0.00000000000E+00 -0.28044455446E+03  0.28044455446E+03  0.00000000000E+00 0.  1.
         23    2    1    2    0    0 -0.16395693235E+03 -0.27513964581E+03  0.40543532710E+03  0.52515874853E+03  0.93969177581E+02 0.  0.
         11    1    3    3    0    0 -0.10437075779E+03 -0.23535877569E+03  0.35038409685E+03  0.43480573099E+03  0.00000000000E+00 0.  1.
        -11    1    3    3    0    0 -0.59586174566E+02 -0.39780870116E+02  0.55051230250E+02  0.90353017540E+02  0.00000000000E+00 0. -1.
         22    1    1    2    0    0  0.16395693235E+03  0.27513964581E+03 -0.10431847498E+03  0.33684721252E+03  0.00000000000E+00 0.  1.
<mgrwt>
<rscale>  0 0.80770225E+03</rscale>
<asrwt>0</asrwt>
<pdfrwt beam="1">  1        2 0.89470986E-01 0.80770225E+03</pdfrwt>
<pdfrwt beam="2">  1       -2 0.43145316E-01 0.80770225E+03</pdfrwt>
<totfact> 0.26392262E+02</totfact>
</mgrwt>
</event>
<event>
 6    1  0.1588846E-005  0.1206282E+04  0.7818608E-02  0.9107376E-01
          1   -1    0    0  501    0  0.00000000000E+00  0.00000000000E+00  0.48187868182E+03  0.48187868182E+03  0.00000000000E+00 0. -1.
         -1   -1    0    0    0  501 -0.00000000000E+00 -0.00000000000E+00 -0.75491808442E+03  0.75491808442E+03  0.00000000000E+00 0.  1.
         23    2    1    2    0    0  0.17225018877E+03 -0.93088798409E+02 -0.71890145955E+03  0.74983822002E+03  0.84275712600E+02 0.  0.
         11    1    3    3    0    0  0.15660044575E+03 -0.47167388470E+02 -0.52044266892E+03  0.54553554768E+03  0.00000000000E+00 0.  1.
        -11    1    3    3    0    0  0.15649743015E+02 -0.45921409939E+02 -0.19845879063E+03  0.20430267234E+03  0.00000000000E+00 0. -1.
         22    1    1    2    0    0 -0.17225018877E+03  0.93088798409E+02  0.44586205695E+03  0.48695854623E+03  0.00000000000E+00 0. -1.
<mgrwt>
<rscale>  0 0.12062818E+04</rscale>
<asrwt>0</asrwt>
<pdfrwt beam="1">  1        1 0.74135182E-01 0.12062818E+04</pdfrwt>
<pdfrwt beam="2">  1       -1 0.11614124E+00 0.12062818E+04</pdfrwt>
<totfact> 0.30937747E+01</totfact>
</mgrwt>
</event>
<event>
 6    1  0.1588846E-005  0.2112380E+04  0.7818608E-02  0.8555810E-01
         -2   -1    0    0    0  501 -0.00000000000E+00  0.00000000000E+00  0.70139606894E+03  0.70139606894E+03  0.00000000000E+00 0. -1.
          2   -1    0    0  501    0  0.00000000000E+00 -0.00000000000E+00 -0.15904523119E+04  0.15904523119E+04  0.00000000000E+00 0.  1.
         23    2    1    2    0    0 -0.97930554175E+03 -0.12461932817E+03 -0.84739450404E+03  0.13037668956E+04  0.84624768425E+02 0.  0.
         13    1    3    3    0    0 -0.54005789763E+03 -0.48831730402E+02 -0.51380588360E+03  0.74702312997E+03  0.00000000000E+00 0. -1.
        -13    1    3    3    0    0 -0.43924764411E+03 -0.75787597770E+02 -0.33358862044E+03  0.55674376559E+03  0.00000000000E+00 0.  1.
         22    1    1    2    0    0  0.97930554175E+03  0.12461932817E+03 -0.41661738921E+02  0.98808148527E+03  0.00000000000E+00 0. -1.
<mgrwt>
<rscale>  0 0.21123797E+04</rscale>
<asrwt>0</asrwt>
<pdfrwt beam="1">  1        2 0.24468497E+00 0.21123797E+04</pdfrwt>
<pdfrwt beam="2">  1       -2 0.10790709E+00 0.21123797E+04</pdfrwt>
<totfact> 0.71546635E+00</totfact>
</mgrwt>
</event>
<event>
 6    1  0.1588846E-005  0.2476846E+04  0.7818608E-02  0.8411281E-01
          2   -1    0    0  501    0  0.00000000000E+00  0.00000000000E+00  0.11217911820E+04  0.11217911820E+04  0.00000000000E+00 0. -1.
         -2   -1    0    0    0  501 -0.00000000000E+00 -0.00000000000E+00 -0.13671805429E+04  0.13671805429E+04  0.00000000000E+00 0.  1.
         23    2    1    2    0    0  0.68432948026E+02  0.24180565959E+03  0.10940247962E+04  0.11261865880E+04  0.90845643214E+02 0.  0.
         13    1    3    3    0    0  0.16545292884E+02  0.16111509002E+03  0.53459393455E+03  0.55858973657E+03  0.00000000000E+00 0. -1.
        -13    1    3    3    0    0  0.51887655142E+02  0.80690569563E+02  0.55943086164E+03  0.56759685141E+03  0.00000000000E+00 0.  1.
         22    1    1    2    0    0 -0.68432948026E+02 -0.24180565959E+03 -0.13394141571E+04  0.13627851370E+04  0.00000000000E+00 0.  1.
<mgrwt>
<rscale>  0 0.24768456E+04</rscale>
<asrwt>0</asrwt>
<pdfrwt beam="1">  1        2 0.17258326E+00 0.24768456E+04</pdfrwt>
<pdfrwt beam="2">  1       -2 0.21033547E+00 0.24768456E+04</pdfrwt>
<totfact> 0.21504902E+00</totfact>
</mgrwt>
</event>
<event>
 6    1  0.1588846E-005  0.7556870E+03  0.7818608E-02  0.9626470E-01
         -1   -1    0    0    0  501 -0.00000000000E+00  0.00000000000E+00  0.51599600820E+02  0.51599600820E+02  0.00000000000E+00 0.  1.
          1   -1    0    0  501    0  0.00000000000E+00 -0.00000000000E+00 -0.27667983952E+04  0.27667983952E+04  0.00000000000E+00 0. -1.
         23    2    1    2    0    0  0.26756482268E+02 -0.20029153301E+01 -0.27624239281E+04  0.27640828575E+04  0.91913890344E+02 0.  0.
         13    1    3    3    0    0 -0.22501012153E+02  0.27115922948E+02 -0.14247450680E+04  0.14251807176E+04  0.00000000000E+00 0.  1.
        -13    1    3    3    0    0  0.49257494421E+02 -0.29118838278E+02 -0.13376788601E+04  0.13389021399E+04  0.00000000000E+00 0. -1.
         22    1    1    2    0    0 -0.26756482268E+02  0.20029153301E+01  0.47225133774E+02  0.54315138527E+02  0.00000000000E+00 0.  1.
<mgrwt>
<rscale>  0 0.75568695E+03</rscale>
<asrwt>0</asrwt>
<pdfrwt beam="1">  1        1 0.42566124E+00 0.75568695E+03</pdfrwt>
<pdfrwt beam="2">  1       -1 0.79384011E-02 0.75568695E+03</pdfrwt>
<totfact> 0.83838602E+01</totfact>
</mgrwt>
</event>
<event>
 6    1  0.1588846E-005  0.1826081E+04  0.7818608E-02  0.8692552E-01
          1   -1    0    0  501    0  0.00000000000E+00  0.00000000000E+00  0.19696309260E+04  0.19696309260E+04  0.00000000000E+00 0. -1.
         -1   -1    0    0    0  501 -0.00000000000E+00 -0.00000000000E+00 -0.42324817911E+03  0.42324817911E+03  0.00000000000E+00 0.  1.
         23    2    1    2    0    0  0.80054116901E+03  0.40703876727E+03  0.97344912883E+03  0.13276093496E+04  0.91633276232E+02 0.  0.
         11    1    3    3    0    0  0.49855568709E+03  0.21852156126E+03  0.63532885821E+03  0.83663146244E+03  0.00000000000E+00 0. -1.
        -11    1    3    3    0    0  0.30198548192E+03  0.18851720601E+03  0.33812027062E+03  0.49097788713E+03  0.00000000000E+00 0.  1.
         22    1    1    2    0    0 -0.80054116901E+03 -0.40703876727E+03  0.57293361804E+03  0.10652697555E+04  0.00000000000E+00 0. -1.
<mgrwt>
<rscale>  0 0.18260807E+04</rscale>
<asrwt>0</asrwt>
<pdfrwt beam="1">  1        1 0.30302014E+00 0.18260807E+04</pdfrwt>
<pdfrwt beam="2">  1       -1 0.65115105E-01 0.18260807E+04</pdfrwt>
<totfact> 0.70352390E+00</totfact>
</mgrwt>
</event>
<event>
 6    1  0.1588846E-005  0.3872806E+04  0.7818608E-02  0.8030709E-01
          2   -1    0    0  501    0  0.00000000000E+00  0.00000000000E+00  0.16458127579E+04  0.16458127579E+04  0.00000000000E+00 0. -1.
         -2   -1    0    0    0  501 -0.00000000000E+00 -0.00000000000E+00 -0.22783004140E+04  0.22783004140E+04  0.00000000000E+00 0.  1.
         23    2    1    2    0    0  0.74846646436E+03 -0.17590033092E+04 -0.10211803132E+02  0.19137594897E+04  0.89868869296E+02 0.  0.
         13    1    3    3    0    0  0.35220971011E+03 -0.89111924175E+03  0.32345101051E+02  0.95874469411E+03  0.00000000000E+00 0. -1.
        -13    1    3    3    0    0  0.39625675425E+03 -0.86788406743E+03 -0.42556904184E+02  0.95501479563E+03  0.00000000000E+00 0.  1.
         22    1    1    2    0    0 -0.74846646436E+03  0.17590033092E+04 -0.62227585297E+03  0.20103536821E+04  0.00000000000E+00 0.  1.
<mgrwt>
<rscale>  0 0.38728056E+04</rscale>
<asrwt>0</asrwt>
<pdfrwt beam="1">  1        2 0.25320196E+00 0.38728056E+04</pdfrwt>
<pdfrwt beam="2">  1       -2 0.35050776E+00 0.38728056E+04</pdfrwt>
<totfact> 0.12937160E-01</totfact>
</mgrwt>
</event>
<event>
 6    1  0.1588846E-005  0.1021590E+04  0.7818608E-02  0.9285177E-01
         -2   -1    0    0    0  501 -0.00000000000E+00  0.00000000000E+00  0.17461373671E+03  0.17461373671E+03  0.00000000000E+00 0.  1.
          2   -1    0    0  501    0  0.00000000000E+00 -0.00000000000E+00 -0.14942203872E+04  0.14942203872E+04  0.00000000000E+00 0. -1.
         23    2    1    2    0    0 -0.37987754388E+03  0.74633982079E+02 -0.12920991209E+03  0.41706674359E+03  0.85862026569E+02 0.  0.
         13    1    3    3    0    0 -0.15048976226E+03 -0.11020258853E+02 -0.62159441963E+02  0.16319439596E+03  0.00000000000E+00 0. -1.
        -13    1    3    3    0    0 -0.22938778162E+03  0.85654240932E+02 -0.67050470131E+02  0.25387234763E+03  0.00000000000E+00 0.  1.
         22    1    1    2    0    0  0.37987754388E+03 -0.74633982079E+02 -0.11903967384E+04  0.12517673803E+04  0.00000000000E+00 0. -1.
<mgrwt>
<rscale>  0 0.10215898E+04</rscale>
<asrwt>0</asrwt>
<pdfrwt beam="1">  1        2 0.22988006E+00 0.10215898E+04</pdfrwt>
<pdfrwt beam="2">  1       -2 0.26863652E-01 0.10215898E+04</pdfrwt>
<totfact> 0.16033098E+02</totfact>
</mgrwt>
</event>
<event>
 6    1  0.1588846E-005  0.1205471E+04  0.7818608E-02  0.9108081E-01
         -2   -1    0    0    0  501 -0.00000000000E+00  0.00000000000E+00  0.39693205067E+04  0.39693205067E+04  0.00000000000E+00 0.  1.
          2   -1    0    0  501    0  0.00000000000E+00 -0.00000000000E+00 -0.91524575098E+02  0.91524575098E+02  0.00000000000E+00 0. -1.
         23    2    1    2    0    0  0.48259028990E+02  0.36866621285E+03  0.35332429534E+04  0.35539324018E+04  0.91575314930E+02 0.  0.
         13    1    3    3    0    0  0.21169867845E+01  0.29817497738E+03  0.26778127101E+04  0.26943633217E+04  0.00000000000E+00 0. -1.
        -13    1    3    3    0    0  0.46142042205E+02  0.70491235463E+02  0.85543024329E+03  0.85956908010E+03  0.00000000000E+00 0.  1.
         22    1    1    2    0    0 -0.48259028990E+02 -0.36866621285E+03  0.34455297821E+03  0.50691268002E+03  0.00000000000E+00 0. -1.
<mgrwt>
<rscale>  0 0.12054715E+04</rscale>
<asrwt>0</asrwt>
<pdfrwt beam="1">  1        2 0.14080707E-01 0.12054715E+04</pdfrwt>
<pdfrwt beam="2">  1       -2 0.61066456E+00 0.12054715E+04</pdfrwt>
<totfact> 0.19533705E-01</totfact>
</mgrwt>
</event>
<event>
 6    1  0.1588846E-005  0.2821214E+04  0.7818608E-02  0.8296712E-01
          2   -1    0    0  501    0  0.00000000000E+00  0.00000000000E+00  0.18966884230E+04  0.18966884230E+04  0.00000000000E+00 0. -1.
         -2   -1    0    0    0  501 -0.00000000000E+00 -0.00000000000E+00 -0.10490977697E+04  0.10490977697E+04  0.00000000000E+00 0.  1.
         23    2    1    2    0    0 -0.10527835030E+04 -0.47983425950E+03 -0.41575998190E+03  0.12327045110E+04  0.90055695021E+02 0.  0.
         13    1    3    3    0    0 -0.99270194650E+03 -0.46720683195E+03 -0.40913897006E+03  0.11709543438E+04  0.00000000000E+00 0. -1.
        -13    1    3    3    0    0 -0.60081556503E+02 -0.12627427552E+02 -0.66210118362E+01  0.61750167256E+02  0.00000000000E+00 0.  1.
         22    1    1    2    0    0  0.10527835030E+04  0.47983425950E+03  0.12633506352E+04  0.17130816817E+04  0.00000000000E+00 0. -1.
<mgrwt>
<rscale>  0 0.28212136E+04</rscale>
<asrwt>0</asrwt>
<pdfrwt beam="1">  1        2 0.29179822E+00 0.28212136E+04</pdfrwt>
<pdfrwt beam="2">  1       -2 0.16139966E+00 0.28212136E+04</pdfrwt>
<totfact> 0.16295208E+00</totfact>
</mgrwt>
</event>
<event>
 6    1  0.1588846E-005  0.1054492E+04  0.7818608E-02  0.9250719E-01
         -1   -1    0    0    0  501 -0.00000000000E+00  0.00000000000E+00  0.23344631708E+03  0.23344631708E+03  0.00000000000E+00 0.  1.
          1   -1    0    0  501    0  0.00000000000E+00 -0.00000000000E+00 -0.11908010407E+04  0.11908010407E+04  0.00000000000E+00 0. -1.
         23    2    1    2    0    0 -0.82466921649E+02 -0.34754224832E+03 -0.99884989003E+03  0.10646527856E+04  0.90543047860E+02 0.  0.
         11    1    3    3    0    0 -0.14724483634E+02 -0.40406675668E+02 -0.22953430988E+03  0.23352839072E+03  0.00000000000E+00 0. -1.
        -11    1    3    3    0    0 -0.67742438015E+02 -0.30713557265E+03 -0.76931558015E+03  0.83112439487E+03  0.00000000000E+00 0.  1.
         22    1    1    2    0    0  0.82466921649E+02  0.34754224832E+03  0.41495166392E+02  0.35959457222E+03  0.00000000000E+00 0.  1.
<mgrwt>
<rscale>  0 0.10544916E+04</rscale>
<asrwt>0</asrwt>
<pdfrwt beam="1">  1        1 0.18320016E+00 0.10544916E+04</pdfrwt>
<pdfrwt beam="2">  1       -1 0.35914818E-01 0.10544916E+04</pdfrwt>
<totfact> 0.80273583E+01</totfact>
</mgrwt>
</event>
<event>
 6    1  0.1588846E-005  0.2877768E+04  0.7818608E-02  0.8279523E-01
          1   -1    0    0  501    0  0.00000000000E+00  0.00000000000E+00  0.15726476654E+04  0.15726476654E+04  0.00000000000E+00 0. -1.
         -1   -1    0    0    0  501 -0.00000000000E+00 -0.00000000000E+00 -0.13164979134E+04  0.13164979134E+04  0.00000000000E+00 0.  1.
         23    2    1    2    0    0 -0.46648432472E+02  0.61021243675E+03 -0.11775728392E+04  0.13302691363E+04  0.91667273994E+02 0.  0.
         11    1    3    3    0    0 -0.18184594532E+01  0.44982975165E+03 -0.90990514761E+03  0.10150258568E+04  0.00000000000E+00 0. -1.
        -11    1    3    3    0    0 -0.44829973019E+02  0.16038268510E+03 -0.26766769162E+03  0.31524327955E+03  0.00000000000E+00 0.  1.
         22    1    1    2    0    0  0.46648432472E+02 -0.61021243675E+03  0.14337225912E+04  0.15588764425E+04  0.00000000000E+00 0. -1.
<mgrwt>
<rscale>  0 0.28777681E+04</rscale>
<asrwt>0</asrwt>
<pdfrwt beam="1">  1        1 0.24194579E+00 0.28777681E+04</pdfrwt>
<pdfrwt beam="2">  1       -1 0.20253814E+00 0.28777681E+04</pdfrwt>
<totfact> 0.72451189E-01</totfact>
</mgrwt>
</event>
<event>
 6    1  0.1588846E-005  0.2395167E+04  0.7818608E-02  0.8441315E-01
         -2   -1    0    0    0  501 -0.00000000000E+00  0.00000000000E+00  0.90090685173E+03  0.90090685173E+03  0.00000000000E+00 0.  1.
          2   -1    0    0  501    0  0.00000000000E+00 -0.00000000000E+00 -0.15919582742E+04  0.15919582742E+04  0.00000000000E+00 0. -1.
         23    2    1    2    0    0  0.95071420318E+03  0.37723165522E+03 -0.99092662990E+03  0.14269916072E+04  0.90599356601E+02 0.  0.
         11    1    3    3    0    0  0.22178413995E+03  0.10089158522E+03 -0.28883763511E+03  0.37788159013E+03  0.00000000000E+00 0. -1.
        -11    1    3    3    0    0  0.72893006323E+03  0.27634007000E+03 -0.70208899479E+03  0.10491100171E+04  0.00000000000E+00 0.  1.
         22    1    1    2    0    0 -0.95071420318E+03 -0.37723165522E+03  0.29987520744E+03  0.10658735187E+04  0.00000000000E+00 0.  1.
<mgrwt>
<rscale>  0 0.23951669E+04</rscale>
<asrwt>0</asrwt>
<pdfrwt beam="1">  1        2 0.24491666E+00 0.23951669E+04</pdfrwt>
<pdfrwt beam="2">  1       -2 0.13860105E+00 0.23951669E+04</pdfrwt>
<totfact> 0.37375483E+00</totfact>
</mgrwt>
</event>
<event>
 6    1  0.1588846E-005  0.1656446E+04  0.7818608E-02  0.8786602E-01
         -2   -1    0    0    0  501 -0.00000000000E+00  0.00000000000E+00  0.16953272317E+04  0.16953272317E+04  0.00000000000E+00 0.  1.
          2   -1    0    0  501    0  0.00000000000E+00 -0.00000000000E+00 -0.40461428298E+03  0.40461428298E+03  0.00000000000E+00 0. -1.
         23    2    1    2    0    0 -0.56777925769E+03  0.59128250491E+03  0.52277348471E+03  0.97667871976E+03  0.92848905466E+02 0.  0.
         13    1    3    3    0    0 -0.13688221684E+03  0.14739770162E+03  0.82712828975E+02  0.21749536963E+03  0.00000000000E+00 0.  1.
        -13    1    3    3    0    0 -0.43089704084E+03  0.44388480329E+03  0.44006065573E+03  0.75918335013E+03  0.00000000000E+00 0. -1.
         22    1    1    2    0    0  0.56777925769E+03 -0.59128250491E+03  0.76793946406E+03  0.11232627950E+04  0.00000000000E+00 0.  1.
<mgrwt>
<rscale>  0 0.16564463E+04</rscale>
<asrwt>0</asrwt>
<pdfrwt beam="1">  1        2 0.62248352E-01 0.16564463E+04</pdfrwt>
<pdfrwt beam="2">  1       -2 0.26081957E+00 0.16564463E+04</pdfrwt>
<totfact> 0.41358056E+00</totfact>
</mgrwt>
</event>
<event>
 6    1  0.1588846E-005  0.6943303E+03  0.7818608E-02  0.9726978E-01
         -1   -1    0    0    0  501 -0.00000000000E+00  0.00000000000E+00  0.11368169719E+03  0.11368169719E+03  0.00000000000E+00 0.  1.
          1   -1    0    0  501    0  0.00000000000E+00 -0.00000000000E+00 -0.10601850205E+04  0.10601850205E+04  0.00000000000E+00 0. -1.
         23    2    1    2    0    0  0.14846543638E+03 -0.10776995106E+03 -0.96777441428E+03  0.98918101861E+03  0.90749228624E+02 0.  0.
         11    1    3    3    0    0  0.13813304404E+03 -0.91531149971E+02 -0.64881456143E+03  0.66964096678E+03  0.00000000000E+00 0. -1.
        -11    1    3    3    0    0  0.10332392337E+02 -0.16238801090E+02 -0.31895985285E+03  0.31954005183E+03  0.00000000000E+00 0.  1.
         22    1    1    2    0    0 -0.14846543638E+03  0.10776995106E+03  0.21271090927E+02  0.18468569912E+03  0.00000000000E+00 0.  1.
<mgrwt>
<rscale>  0 0.69433027E+03</rscale>
<asrwt>0</asrwt>
<pdfrwt beam="1">  1        1 0.16310539E+00 0.69433027E+03</pdfrwt>
<pdfrwt beam="2">  1       -1 0.17489491E-01 0.69433027E+03</pdfrwt>
<totfact> 0.35221889E+02</totfact>
</mgrwt>
</event>
<event>
 6    1  0.1588846E-005  0.2932061E+04  0.7818608E-02  0.8263402E-01
          2   -1    0    0  501    0  0.00000000000E+00  0.00000000000E+00  0.25474800030E+04  0.25474800030E+04  0.00000000000E+00 0.  1.
         -2   -1    0    0    0  501 -0.00000000000E+00 -0.00000000000E+00 -0.84367535454E+03  0.84367535454E+03  0.00000000000E+00 0. -1.
         23    2    1    2    0    0  0.10069287119E+03  0.11548611434E+04 -0.18245053050E+03  0.11771540218E+04  0.92520700882E+02 0.  0.
         13    1    3    3    0    0  0.82314150147E+02  0.49957689132E+03 -0.10461082630E+03  0.51700688064E+03  0.00000000000E+00 0.  1.
        -13    1    3    3    0    0  0.18378721043E+02  0.65528425205E+03 -0.77839704199E+02  0.66014714111E+03  0.00000000000E+00 0. -1.
         22    1    1    2    0    0 -0.10069287119E+03 -0.11548611434E+04  0.18862551790E+04  0.22140013358E+04  0.00000000000E+00 0.  1.
<mgrwt>
<rscale>  0 0.29320615E+04</rscale>
<asrwt>0</asrwt>
<pdfrwt beam="1">  1        2 0.39192000E+00 0.29320615E+04</pdfrwt>
<pdfrwt beam="2">  1       -2 0.12979621E+00 0.29320615E+04</pdfrwt>
<totfact> 0.12257489E+00</totfact>
</mgrwt>
</event>
<event>
 6    1  0.1588846E-005  0.3101065E+04  0.7818608E-02  0.8215446E-01
         -1   -1    0    0    0  501 -0.00000000000E+00  0.00000000000E+00  0.28430748585E+04  0.28430748585E+04  0.00000000000E+00 0.  1.
          1   -1    0    0  501    0  0.00000000000E+00 -0.00000000000E+00 -0.84561656488E+03  0.84561656488E+03  0.00000000000E+00 0. -1.
         23    2    1    2    0    0 -0.86757491770E+03 -0.47266519548E+03  0.24189387071E+04  0.26145664941E+04  0.92708461029E+02 0.  0.
         13    1    3    3    0    0 -0.45584763507E+03 -0.20262654396E+03  0.11563242803E+04  0.12593412658E+04  0.00000000000E+00 0. -1.
        -13    1    3    3    0    0 -0.41172728262E+03 -0.27003865152E+03  0.12626144268E+04  0.13552252283E+04  0.00000000000E+00 0.  1.
         22    1    1    2    0    0  0.86757491770E+03  0.47266519548E+03 -0.42148041342E+03  0.10741249293E+04  0.00000000000E+00 0. -1.
<mgrwt>
<rscale>  0 0.31010651E+04</rscale>
<asrwt>0</asrwt>
<pdfrwt beam="1">  1        1 0.13009486E+00 0.31010651E+04</pdfrwt>
<pdfrwt beam="2">  1       -1 0.43739613E+00 0.31010651E+04</pdfrwt>
<totfact> 0.67315195E-02</totfact>
</mgrwt>
</event>
<event>
 6    1  0.1588846E-005  0.1735477E+04  0.7818608E-02  0.8741385E-01
          1   -1    0    0  501    0  0.00000000000E+00  0.00000000000E+00  0.54641278342E+03  0.54641278342E+03  0.00000000000E+00 0. -1.
         -1   -1    0    0    0  501 -0.00000000000E+00 -0.00000000000E+00 -0.13780240448E+04  0.13780240448E+04  0.00000000000E+00 0.  1.
         23    2    1    2    0    0  0.31379767680E+03 -0.70150654600E+03  0.23934806399E+02  0.77441965873E+03  0.92587887015E+02 0.  0.
         11    1    3    3    0    0  0.11051297137E+03 -0.35962068234E+03  0.62646695066E+01  0.37627037897E+03  0.00000000000E+00 0.  1.
        -11    1    3    3    0    0  0.20328470543E+03 -0.34188586366E+03  0.17670136893E+02  0.39814927976E+03  0.00000000000E+00 0. -1.
         22    1    1    2    0    0 -0.31379767680E+03  0.70150654600E+03 -0.85554606779E+03  0.11500171695E+04  0.00000000000E+00 0.  1.
<mgrwt>
<rscale>  0 0.17354768E+04</rscale>
<asrwt>0</asrwt>
<pdfrwt beam="1">  1        1 0.84063505E-01 0.17354768E+04</pdfrwt>
<pdfrwt beam="2">  1       -1 0.21200370E+00 0.17354768E+04</pdfrwt>
<totfact> 0.46274591E+00</totfact>
</mgrwt>
</event>
<event>
 6    1  0.1588846E-005  0.3595599E+04  0.7818608E-02  0.8091501E-01
         -1   -1    0    0    0  501 -0.00000000000E+00  0.00000000000E+00  0.91735896154E+03  0.91735896154E+03  0.00000000000E+00 0.  1.
          1   -1    0    0  501    0  0.00000000000E+00 -0.00000000000E+00 -0.35232474600E+04  0.35232474600E+04  0.00000000000E+00 0. -1.
         23    2    1    2    0    0 -0.89616438765E+03 -0.52732791109E+03  0.50598058122E+03  0.11596135071E+04  0.86612942234E+02 0.  0.
         11    1    3    3    0    0 -0.33233858498E+03 -0.14934808355E+03  0.16469742635E+03  0.39984875563E+03  0.00000000000E+00 0. -1.
        -11    1    3    3    0    0 -0.56382580267E+03 -0.37797982754E+03  0.34128315487E+03  0.75976475147E+03  0.00000000000E+00 0.  1.
         22    1    1    2    0    0  0.89616438765E+03  0.52732791109E+03 -0.31118690796E+04  0.32809929144E+04  0.00000000000E+00 0. -1.
<mgrwt>
<rscale>  0 0.35955988E+04</rscale>
<asrwt>0</asrwt>
<pdfrwt beam="1">  1        1 0.54203807E+00 0.35955988E+04</pdfrwt>
<pdfrwt beam="2">  1       -1 0.14113215E+00 0.35955988E+04</pdfrwt>
<totfact> 0.79435560E-02</totfact>
</mgrwt>
</event>
<event>
 6    1  0.1588846E-005  0.2218403E+04  0.7818608E-02  0.8510807E-01
         -1   -1    0    0    0  501 -0.00000000000E+00  0.00000000000E+00  0.60609981284E+03  0.60609981284E+03  0.00000000000E+00 0.  1.
          1   -1    0    0  501    0  0.00000000000E+00 -0.00000000000E+00 -0.20299097290E+04  0.20299097290E+04  0.00000000000E+00 0. -1.
         23    2    1    2    0    0 -0.74668849428E+03  0.81034922106E+03 -0.58313443598E+03  0.12500280014E+04  0.91184791777E+02 0.  0.
         13    1    3    3    0    0 -0.28033613467E+03  0.36225262199E+03 -0.21728106319E+03  0.50697768290E+03  0.00000000000E+00 0. -1.
        -13    1    3    3    0    0 -0.46635235960E+03  0.44809659908E+03 -0.36585337279E+03  0.74305031848E+03  0.00000000000E+00 0.  1.
         22    1    1    2    0    0  0.74668849428E+03 -0.81034922106E+03 -0.84067548022E+03  0.13859815405E+04  0.00000000000E+00 0.  1.
<mgrwt>
<rscale>  0 0.22184029E+04</rscale>
<asrwt>0</asrwt>
<pdfrwt beam="1">  1        1 0.31229381E+00 0.22184029E+04</pdfrwt>
<pdfrwt beam="2">  1       -1 0.93246123E-01 0.22184029E+04</pdfrwt>
<totfact> 0.28895744E+00</totfact>
</mgrwt>
</event>
<event>
 6    1  0.1588846E-005  0.1232445E+04  0.7818608E-02  0.9084923E-01
         -1   -1    0    0    0  501 -0.00000000000E+00  0.00000000000E+00  0.17316244168E+03  0.17316244168E+03  0.00000000000E+00 0. -1.
          1   -1    0    0  501    0  0.00000000000E+00 -0.00000000000E+00 -0.21929112559E+04  0.21929112559E+04  0.00000000000E+00 0.  1.
         23    2    1    2    0    0 -0.99511669112E+02  0.42632451064E+03 -0.18382957067E+04  0.18921745618E+04  0.96634912637E+02 0.  0.
         13    1    3    3    0    0 -0.16127934639E+02  0.17465831490E+03 -0.56623538632E+03  0.59278001819E+03  0.00000000000E+00 0. -1.
        -13    1    3    3    0    0 -0.83383734473E+02  0.25166619573E+03 -0.12720603204E+04  0.12993945436E+04  0.00000000000E+00 0.  1.
         22    1    1    2    0    0  0.99511669112E+02 -0.42632451064E+03 -0.18145310748E+03  0.47389913576E+03  0.00000000000E+00 0. -1.
<mgrwt>
<rscale>  0 0.12324445E+04</rscale>
<asrwt>0</asrwt>
<pdfrwt beam="1">  1        1 0.33737095E+00 0.12324445E+04</pdfrwt>
<pdfrwt beam="2">  1       -1 0.26640376E-01 0.12324445E+04</pdfrwt>
<totfact> 0.27387021E+01</totfact>
</mgrwt>
</event>
<event>
 6    1  0.1588846E-005  0.2076766E+04  0.7818608E-02  0.8571548E-01
          2   -1    0    0  501    0  0.00000000000E+00  0.00000000000E+00  0.68589064737E+03  0.68589064737E+03  0.00000000000E+00 0. -1.
         -2   -1    0    0    0  501 -0.00000000000E+00 -0.00000000000E+00 -0.15720276791E+04  0.15720276791E+04  0.00000000000E+00 0.  1.
         23    2    1    2    0    0  0.76955367260E+03 -0.43805341826E+03  0.14169640552E+03  0.90125137141E+03  0.89847152743E+02 0.  0.
         13    1    3    3    0    0  0.25240840359E+03 -0.10926784027E+03  0.14826741070E+02  0.27544381527E+03  0.00000000000E+00 0. -1.
        -13    1    3    3    0    0  0.51714526901E+03 -0.32878557799E+03  0.12686966445E+03  0.62580755613E+03  0.00000000000E+00 0.  1.
         22    1    1    2    0    0 -0.76955367260E+03  0.43805341826E+03 -0.10278334373E+04  0.13566669551E+04  0.00000000000E+00 0.  1.
<mgrwt>
<rscale>  0 0.20767658E+04</rscale>
<asrwt>0</asrwt>
<pdfrwt beam="1">  1        2 0.10552164E+00 0.20767658E+04</pdfrwt>
<pdfrwt beam="2">  1       -2 0.24185041E+00 0.20767658E+04</pdfrwt>
<totfact> 0.27996678E+00</totfact>
</mgrwt>
</event>
<event>
 6    1  0.1588846E-005  0.3809842E+04  0.7818608E-02  0.8044046E-01
          2   -1    0    0  501    0  0.00000000000E+00  0.00000000000E+00  0.25757130561E+04  0.25757130561E+04  0.00000000000E+00 0. -1.
         -2   -1    0    0    0  501 -0.00000000000E+00 -0.00000000000E+00 -0.14088228260E+04  0.14088228260E+04  0.00000000000E+00 0.  1.
         23    2    1    2    0    0  0.62503777832E+03  0.35281670791E+01  0.24645399553E+04  0.25441958246E+04  0.91052348881E+02 0.  0.
         13    1    3    3    0    0  0.46799982151E+03  0.38951479095E+02  0.18971507606E+04  0.19544109238E+04  0.00000000000E+00 0.  1.
        -13    1    3    3    0    0  0.15703795680E+03 -0.35423312016E+02  0.56738919474E+03  0.58978490081E+03  0.00000000000E+00 0. -1.
         22    1    1    2    0    0 -0.62503777832E+03 -0.35281670791E+01 -0.12976497252E+04  0.14403400576E+04  0.00000000000E+00 0.  1.
<mgrwt>
<rscale>  0 0.38098416E+04</rscale>
<asrwt>0</asrwt>
<pdfrwt beam="1">  1        2 0.39626354E+00 0.38098416E+04</pdfrwt>
<pdfrwt beam="2">  1       -2 0.21674197E+00 0.38098416E+04</pdfrwt>
<totfact> 0.26115079E-01</totfact>
</mgrwt>
</event>
<event>
 6    1  0.1588846E-005  0.2483295E+04  0.7818608E-02  0.8408961E-01
          2   -1    0    0  501    0  0.00000000000E+00  0.00000000000E+00  0.14185832465E+04  0.14185832465E+04  0.00000000000E+00 0. -1.
         -2   -1    0    0    0  501 -0.00000000000E+00 -0.00000000000E+00 -0.10867800657E+04  0.10867800657E+04  0.00000000000E+00 0.  1.
         23    2    1    2    0    0  0.51683353042E+03  0.14296224353E+03 -0.96176881410E+03  0.11050477738E+04  0.92607933871E+02 0.  0.
         11    1    3    3    0    0  0.29612746989E+03  0.44838650548E+02 -0.59075642364E+03  0.66234064882E+03  0.00000000000E+00 0. -1.
        -11    1    3    3    0    0  0.22070606053E+03  0.98123592986E+02 -0.37101239046E+03  0.44270712500E+03  0.00000000000E+00 0.  1.
         22    1    1    2    0    0 -0.51683353042E+03 -0.14296224353E+03  0.12935719949E+04  0.14003155384E+04  0.00000000000E+00 0. -1.
<mgrwt>
<rscale>  0 0.24832946E+04</rscale>
<asrwt>0</asrwt>
<pdfrwt beam="1">  1        2 0.21824358E+00 0.24832946E+04</pdfrwt>
<pdfrwt beam="2">  1       -2 0.16719693E+00 0.24832946E+04</pdfrwt>
<totfact> 0.28153267E+00</totfact>
</mgrwt>
</event>
<event>
 6    1  0.1588846E-005  0.3626281E+04  0.7818608E-02  0.8084498E-01
          2   -1    0    0  501    0  0.00000000000E+00  0.00000000000E+00  0.42831649780E+04  0.42831649780E+04  0.00000000000E+00 0. -1.
         -2   -1    0    0    0  501 -0.00000000000E+00 -0.00000000000E+00 -0.76753466576E+03  0.76753466576E+03  0.00000000000E+00 0.  1.
         23    2    1    2    0    0 -0.10152053686E+04  0.55842471940E+03  0.36992807585E+04  0.38775808970E+04  0.92061798820E+02 0.  0.
         11    1    3    3    0    0 -0.87520611843E+02  0.27704020791E+02  0.23984603550E+03  0.25681411762E+03  0.00000000000E+00 0.  1.
        -11    1    3    3    0    0 -0.92768475675E+03  0.53072069861E+03  0.34594347230E+04  0.36207667794E+04  0.00000000000E+00 0. -1.
         22    1    1    2    0    0  0.10152053686E+04 -0.55842471940E+03 -0.18365044624E+03  0.11731187468E+04  0.00000000000E+00 0.  1.
<mgrwt>
<rscale>  0 0.36262805E+04</rscale>
<asrwt>0</asrwt>
<pdfrwt beam="1">  1        2 0.65894844E+00 0.36262805E+04</pdfrwt>
<pdfrwt beam="2">  1       -2 0.11808226E+00 0.36262805E+04</pdfrwt>
<totfact> 0.87901779E-02</totfact>
</mgrwt>
</event>
<event>
 6    1  0.1588846E-005  0.1913393E+04  0.7818608E-02  0.8648219E-01
         -2   -1    0    0    0  501 -0.00000000000E+00  0.00000000000E+00  0.11128379657E+04  0.11128379657E+04  0.00000000000E+00 0. -1.
          2   -1    0    0  501    0  0.00000000000E+00 -0.00000000000E+00 -0.82246293771E+03  0.82246293771E+03  0.00000000000E+00 0.  1.
         23    2    1    2    0    0 -0.34658760734E+03  0.76305115506E+03  0.60770146967E+03  0.10391613466E+04  0.90472057142E+02 0.  0.
         13    1    3    3    0    0 -0.24679977694E+03  0.59902454813E+03  0.43028363419E+03  0.77774323848E+03  0.00000000000E+00 0.  1.
        -13    1    3    3    0    0 -0.99787830402E+02  0.16402660693E+03  0.17741783548E+03  0.26141810807E+03  0.00000000000E+00 0. -1.
         22    1    1    2    0    0  0.34658760734E+03 -0.76305115506E+03 -0.31732644167E+03  0.89613955687E+03  0.00000000000E+00 0.  1.
<mgrwt>
<rscale>  0 0.19133928E+04</rscale>
<asrwt>0</asrwt>
<pdfrwt beam="1">  1        2 0.12653276E+00 0.19133928E+04</pdfrwt>
<pdfrwt beam="2">  1       -2 0.17120584E+00 0.19133928E+04</pdfrwt>
<totfact> 0.64858838E+00</totfact>
</mgrwt>
</event>
<event>
 6    1  0.1588846E-005  0.1310970E+04  0.7818608E-02  0.9020911E-01
          2   -1    0    0  501    0  0.00000000000E+00  0.00000000000E+00  0.35264912140E+04  0.35264912140E+04  0.00000000000E+00 0. -1.
         -2   -1    0    0    0  501 -0.00000000000E+00 -0.00000000000E+00 -0.12183791850E+03  0.12183791850E+03  0.00000000000E+00 0.  1.
         23    2    1    2    0    0 -0.32215995494E+03 -0.39254105658E+03  0.28497092144E+04  0.28961067911E+04  0.93361777036E+02 0.  0.
         11    1    3    3    0    0 -0.23244147879E+03 -0.27855022950E+03  0.22526804827E+04  0.22817073932E+04  0.00000000000E+00 0. -1.
        -11    1    3    3    0    0 -0.89718476142E+02 -0.11399082708E+03  0.59702873173E+03  0.61439939789E+03  0.00000000000E+00 0.  1.
         22    1    1    2    0    0  0.32215995494E+03  0.39254105658E+03  0.55494408107E+03  0.75222234132E+03  0.00000000000E+00 0.  1.
<mgrwt>
<rscale>  0 0.13109696E+04</rscale>
<asrwt>0</asrwt>
<pdfrwt beam="1">  1        2 0.54253703E+00 0.13109696E+04</pdfrwt>
<pdfrwt beam="2">  1       -2 0.18744298E-01 0.13109696E+04</pdfrwt>
<totfact> 0.18655107E+01</totfact>
</mgrwt>
</event>
<event>
 6    1  0.1588846E-005  0.2851801E+04  0.7818608E-02  0.8287364E-01
         -1   -1    0    0    0  501 -0.00000000000E+00  0.00000000000E+00  0.23728060716E+04  0.23728060716E+04  0.00000000000E+00 0.  1.
          1   -1    0    0  501    0  0.00000000000E+00 -0.00000000000E+00 -0.85687247833E+03  0.85687247833E+03  0.00000000000E+00 0. -1.
         23    2    1    2    0    0  0.10827497223E+04  0.54737480411E+02 -0.28759863008E+03  0.11253801790E+04  0.91784652024E+02 0.  0.
         11    1    3    3    0    0  0.63585063966E+03  0.77184482208E+02 -0.17344251171E+03  0.66358555222E+03  0.00000000000E+00 0.  1.
        -11    1    3    3    0    0  0.44689908269E+03 -0.22447001797E+02 -0.11415611837E+03  0.46179462682E+03  0.00000000000E+00 0. -1.
         22    1    1    2    0    0 -0.10827497223E+04 -0.54737480411E+02  0.18035322233E+04  0.21042983708E+04  0.00000000000E+00 0.  1.
<mgrwt>
<rscale>  0 0.28518010E+04</rscale>
<asrwt>0</asrwt>
<pdfrwt beam="1">  1        1 0.13182654E+00 0.28518010E+04</pdfrwt>
<pdfrwt beam="2">  1       -1 0.36504709E+00 0.28518010E+04</pdfrwt>
<totfact> 0.21003946E-01</totfact>
</mgrwt>
</event>
<event>
 6    1  0.1588846E-005  0.1428799E+04  0.7818608E-02  0.8933232E-01
         -1   -1    0    0    0  501 -0.00000000000E+00  0.00000000000E+00  0.16262313872E+04  0.16262313872E+04  0.00000000000E+00 0.  1.
          1   -1    0    0  501    0  0.00000000000E+00 -0.00000000000E+00 -0.31383404372E+03  0.31383404372E+03  0.00000000000E+00 0. -1.
         23    2    1    2    0    0  0.63543072287E+03  0.17168425450E+03  0.10256595982E+04  0.12221056679E+04  0.91197396716E+02 0.  0.
         13    1    3    3    0    0  0.18303437226E+03  0.46537406833E+02  0.37421584781E+03  0.41917157873E+03  0.00000000000E+00 0. -1.
        -13    1    3    3    0    0  0.45239635062E+03  0.12514684767E+03  0.65144375041E+03  0.80293408913E+03  0.00000000000E+00 0.  1.
         22    1    1    2    0    0 -0.63543072287E+03 -0.17168425450E+03  0.28673774525E+03  0.71795976306E+03  0.00000000000E+00 0. -1.
<mgrwt>
<rscale>  0 0.14287992E+04</rscale>
<asrwt>0</asrwt>
<pdfrwt beam="1">  1        1 0.48282161E-01 0.14287992E+04</pdfrwt>
<pdfrwt beam="2">  1       -1 0.25018944E+00 0.14287992E+04</pdfrwt>
<totfact> 0.55951912E+00</totfact>
</mgrwt>
</event>
<event>
 6    1  0.1588846E-005  0.1117402E+04  0.7818608E-02  0.9188394E-01
         -2   -1    0    0    0  501 -0.00000000000E+00  0.00000000000E+00  0.89470527906E+03  0.89470527906E+03  0.00000000000E+00 0.  1.
          2   -1    0    0  501    0  0.00000000000E+00 -0.00000000000E+00 -0.34888256390E+03  0.34888256390E+03  0.00000000000E+00 0. -1.
         23    2    1    2    0    0 -0.27578956150E+03 -0.23423279759E+03 -0.19346114983E+03  0.42050490744E+03  0.92044961776E+02 0.  0.
         13    1    3    3    0    0 -0.19319752743E+03 -0.13353814766E+03 -0.80995239919E+02  0.24843097709E+03  0.00000000000E+00 0. -1.
        -13    1    3    3    0    0 -0.82592034074E+02 -0.10069464993E+03 -0.11246590991E+03  0.17207393036E+03  0.00000000000E+00 0.  1.
         22    1    1    2    0    0  0.27578956150E+03  0.23423279759E+03  0.73928386499E+03  0.82308293551E+03  0.00000000000E+00 0.  1.
<mgrwt>
<rscale>  0 0.11174025E+04</rscale>
<asrwt>0</asrwt>
<pdfrwt beam="1">  1        2 0.53674241E-01 0.11174025E+04</pdfrwt>
<pdfrwt beam="2">  1       -2 0.13764696E+00 0.11174025E+04</pdfrwt>
<totfact> 0.34492158E+01</totfact>
</mgrwt>
</event>
<event>
 6    1  0.1588846E-005  0.5776019E+04  0.7818608E-02  0.7718810E-01
          2   -1    0    0  501    0  0.00000000000E+00  0.00000000000E+00  0.30009218613E+04  0.30009218613E+04  0.00000000000E+00 0. -1.
         -2   -1    0    0    0  501 -0.00000000000E+00 -0.00000000000E+00 -0.27793459735E+04  0.27793459735E+04  0.00000000000E+00 0.  1.
         23    2    1    2    0    0  0.22632196749E+04 -0.92485247050E+03 -0.14263498384E+04  0.28318488367E+04  0.85898680932E+02 0.  0.
         11    1    3    3    0    0  0.58739448659E+03 -0.27286193430E+03 -0.35163491431E+03  0.73697559731E+03  0.00000000000E+00 0.  1.
        -11    1    3    3    0    0  0.16758251883E+04 -0.65199053620E+03 -0.10747149241E+04  0.20948732394E+04  0.00000000000E+00 0. -1.
         22    1    1    2    0    0 -0.22632196749E+04  0.92485247050E+03  0.16479257263E+04  0.29484189981E+04  0.00000000000E+00 0. -1.
<mgrwt>
<rscale>  0 0.57760194E+04</rscale>
<asrwt>0</asrwt>
<pdfrwt beam="1">  1        2 0.46168028E+00 0.57760194E+04</pdfrwt>
<pdfrwt beam="2">  1       -2 0.42759169E+00 0.57760194E+04</pdfrwt>
<totfact> 0.58291490E-03</totfact>
</mgrwt>
</event>
<event>
 6    1  0.1588846E-005  0.2084872E+04  0.7818608E-02  0.8567937E-01
          2   -1    0    0  501    0  0.00000000000E+00  0.00000000000E+00  0.25724440687E+04  0.25724440687E+04  0.00000000000E+00 0. -1.
         -2   -1    0    0    0  501 -0.00000000000E+00 -0.00000000000E+00 -0.42242830086E+03  0.42242830086E+03  0.00000000000E+00 0.  1.
         23    2    1    2    0    0 -0.83392802777E+03 -0.54017772189E+03  0.15206565171E+04  0.18187256979E+04  0.90216376729E+02 0.  0.
         13    1    3    3    0    0 -0.62437460610E+03 -0.35637138680E+03  0.10906828563E+04  0.13063052121E+04  0.00000000000E+00 0.  1.
        -13    1    3    3    0    0 -0.20955342167E+03 -0.18380633509E+03  0.42997366077E+03  0.51242048584E+03  0.00000000000E+00 0. -1.
         22    1    1    2    0    0  0.83392802777E+03  0.54017772189E+03  0.62935925083E+03  0.11761466717E+04  0.00000000000E+00 0. -1.
<mgrwt>
<rscale>  0 0.20848723E+04</rscale>
<asrwt>0</asrwt>
<pdfrwt beam="1">  1        2 0.39576062E+00 0.20848723E+04</pdfrwt>
<pdfrwt beam="2">  1       -2 0.64988971E-01 0.20848723E+04</pdfrwt>
<totfact> 0.63680839E+00</totfact>
</mgrwt>
</event>
<event>
 6    1  0.1588846E-005  0.2611133E+04  0.7818608E-02  0.8364429E-01
         -2   -1    0    0    0  501 -0.00000000000E+00  0.00000000000E+00  0.10900670988E+04  0.10900670988E+04  0.00000000000E+00 0.  1.
          2   -1    0    0  501    0  0.00000000000E+00 -0.00000000000E+00 -0.15636687513E+04  0.15636687513E+04  0.00000000000E+00 0. -1.
         23    2    1    2    0    0 -0.32149338175E+03 -0.74844671186E+03 -0.12720158484E+04  0.15131238639E+04  0.89381395831E+02 0.  0.
         11    1    3    3    0    0 -0.23859444734E+03 -0.47966930439E+03 -0.77724397146E+03  0.94399054182E+03  0.00000000000E+00 0.  1.
        -11    1    3    3    0    0 -0.82898934417E+02 -0.26877740747E+03 -0.49477187691E+03  0.56913332206E+03  0.00000000000E+00 0. -1.
         22    1    1    2    0    0  0.32149338175E+03  0.74844671186E+03  0.79841419583E+03  0.11406119862E+04  0.00000000000E+00 0.  1.
<mgrwt>
<rscale>  0 0.26111330E+04</rscale>
<asrwt>0</asrwt>
<pdfrwt beam="1">  1        2 0.24056442E+00 0.26111330E+04</pdfrwt>
<pdfrwt beam="2">  1       -2 0.16770263E+00 0.26111330E+04</pdfrwt>
<totfact> 0.22866581E+00</totfact>
</mgrwt>
</event>
<event>
 6    1  0.1588846E-005  0.2951512E+04  0.7818608E-02  0.8257714E-01
         -2   -1    0    0    0  501 -0.00000000000E+00  0.00000000000E+00  0.13589690709E+04  0.13589690709E+04  0.00000000000E+00 0.  1.
          2   -1    0    0  501    0  0.00000000000E+00 -0.00000000000E+00 -0.16025792564E+04  0.16025792564E+04  0.00000000000E+00 0. -1.
         23    2    1    2    0    0  0.66299131339E+03 -0.12852761671E+04 -0.40994442262E+03  0.15058150463E+04  0.89062992278E+02 0.  0.
         13    1    3    3    0    0  0.35473274236E+03 -0.60706330640E+03 -0.17327258711E+03  0.72414402292E+03  0.00000000000E+00 0. -1.
        -13    1    3    3    0    0  0.30825857103E+03 -0.67821286067E+03 -0.23667183550E+03  0.78167102333E+03  0.00000000000E+00 0.  1.
         22    1    1    2    0    0 -0.66299131339E+03  0.12852761671E+04  0.16633423707E+03  0.14557332811E+04  0.00000000000E+00 0.  1.
<mgrwt>
<rscale>  0 0.29515119E+04</rscale>
<asrwt>0</asrwt>
<pdfrwt beam="1">  1        2 0.24655065E+00 0.29515119E+04</pdfrwt>
<pdfrwt beam="2">  1       -2 0.20907217E+00 0.29515119E+04</pdfrwt>
<totfact> 0.11091104E+00</totfact>
</mgrwt>
</event>
<event>
 6    1  0.1588846E-005  0.1452742E+04  0.7818608E-02  0.8916502E-01
          2   -1    0    0  501    0  0.00000000000E+00  0.00000000000E+00  0.19983805936E+04  0.19983805936E+04  0.00000000000E+00 0. -1.
         -2   -1    0    0    0  501 -0.00000000000E+00 -0.00000000000E+00 -0.26402117485E+03  0.26402117485E+03  0.00000000000E+00 0.  1.
         23    2    1    2    0    0  0.96051587319E+02 -0.42553816848E+03 -0.28611175139E+02  0.44625916524E+03  0.89554469239E+02 0.  0.
         13    1    3    3    0    0  0.92654517229E+02 -0.31646391678E+03 -0.54196366284E+02  0.33417288385E+03  0.00000000000E+00 0.  1.
        -13    1    3    3    0    0  0.33970700895E+01 -0.10907425170E+03  0.25585191145E+02  0.11208628139E+03  0.00000000000E+00 0. -1.
         22    1    1    2    0    0 -0.96051587319E+02  0.42553816848E+03  0.17629705939E+04  0.18161426032E+04  0.00000000000E+00 0. -1.
<mgrwt>
<rscale>  0 0.14527419E+04</rscale>
<asrwt>0</asrwt>
<pdfrwt beam="1">  1        2 0.30744316E+00 0.14527419E+04</pdfrwt>
<pdfrwt beam="2">  1       -2 0.40618644E-01 0.14527419E+04</pdfrwt>
<totfact> 0.37270416E+01</totfact>
</mgrwt>
</event>
<event>
 6    1  0.1588846E-005  0.2749464E+04  0.7818608E-02  0.8319132E-01
          1   -1    0    0  501    0  0.00000000000E+00  0.00000000000E+00  0.14977715346E+04  0.14977715346E+04  0.00000000000E+00 0. -1.
         -1   -1    0    0    0  501 -0.00000000000E+00 -0.00000000000E+00 -0.12618002314E+04  0.12618002314E+04  0.00000000000E+00 0.  1.
         23    2    1    2    0    0  0.74789326942E+03 -0.89011208046E+03  0.85092437016E+03  0.14443489207E+04  0.10211592762E+03 0.  0.
         13    1    3    3    0    0  0.37020336263E+03 -0.49711448289E+03  0.49684365621E+03  0.79437205232E+03  0.00000000000E+00 0.  1.
        -13    1    3    3    0    0  0.37768990678E+03 -0.39299759757E+03  0.35408071396E+03  0.64997686834E+03  0.00000000000E+00 0. -1.
         22    1    1    2    0    0 -0.74789326942E+03  0.89011208046E+03 -0.61495306702E+03  0.13152228453E+04  0.00000000000E+00 0.  1.
<mgrwt>
<rscale>  0 0.27494643E+04</rscale>
<asrwt>0</asrwt>
<pdfrwt beam="1">  1        1 0.23042639E+00 0.27494643E+04</pdfrwt>
<pdfrwt beam="2">  1       -1 0.19412311E+00 0.27494643E+04</pdfrwt>
<totfact> 0.94377110E-01</totfact>
</mgrwt>
</event>
<event>
 6    1  0.1588846E-005  0.2442355E+04  0.7818608E-02  0.8423814E-01
         -2   -1    0    0    0  501 -0.00000000000E+00  0.00000000000E+00  0.53514538964E+03  0.53514538964E+03  0.00000000000E+00 0.  1.
          2   -1    0    0  501    0  0.00000000000E+00 -0.00000000000E+00 -0.27866721695E+04  0.27866721695E+04  0.00000000000E+00 0. -1.
         23    2    1    2    0    0 -0.31406212534E+03  0.30710340695E+03 -0.26745886127E+04  0.27119578741E+04  0.91344090147E+02 0.  0.
         11    1    3    3    0    0 -0.14710252880E+03  0.16828880148E+03 -0.11009725919E+04  0.11234326516E+04  0.00000000000E+00 0.  1.
        -11    1    3    3    0    0 -0.16695959654E+03  0.13881460547E+03 -0.15736160208E+04  0.15885252225E+04  0.00000000000E+00 0. -1.
         22    1    1    2    0    0  0.31406212534E+03 -0.30710340695E+03  0.42306183277E+03  0.60985968507E+03  0.00000000000E+00 0.  1.
<mgrwt>
<rscale>  0 0.24423552E+04</rscale>
<asrwt>0</asrwt>
<pdfrwt beam="1">  1        2 0.42871878E+00 0.24423552E+04</pdfrwt>
<pdfrwt beam="2">  1       -2 0.82330062E-01 0.24423552E+04</pdfrwt>
<totfact> 0.27349762E+00</totfact>
</mgrwt>
</event>
<event>
 6    1  0.1588846E-005  0.2149256E+04  0.7818608E-02  0.8539851E-01
         -1   -1    0    0    0  501 -0.00000000000E+00  0.00000000000E+00  0.93125129510E+03  0.93125129510E+03  0.00000000000E+00 0.  1.
          1   -1    0    0  501    0  0.00000000000E+00 -0.00000000000E+00 -0.12400793621E+04  0.12400793621E+04  0.00000000000E+00 0. -1.
         23    2    1    2    0    0  0.86303546228E+03 -0.63702952357E+03 -0.16395581798E+03  0.10889144750E+04  0.90644362868E+02 0.  0.
         13    1    3    3    0    0  0.79986729599E+03 -0.56573537008E+03 -0.13268697920E+03  0.98866072775E+03  0.00000000000E+00 0.  1.
        -13    1    3    3    0    0  0.63168166289E+02 -0.71294153497E+02 -0.31268838774E+02  0.10025374723E+03  0.00000000000E+00 0. -1.
         22    1    1    2    0    0 -0.86303546228E+03  0.63702952357E+03 -0.14487224905E+03  0.10824161823E+04  0.00000000000E+00 0.  1.
<mgrwt>
<rscale>  0 0.21492562E+04</rscale>
<asrwt>0</asrwt>
<pdfrwt beam="1">  1        1 0.19078144E+00 0.21492562E+04</pdfrwt>
<pdfrwt beam="2">  1       -1 0.14326943E+00 0.21492562E+04</pdfrwt>
<totfact> 0.36091229E+00</totfact>
</mgrwt>
</event>
<event>
 6    1  0.1588846E-005  0.2004452E+04  0.7818608E-02  0.8604542E-01
          2   -1    0    0  501    0  0.00000000000E+00  0.00000000000E+00  0.27229232687E+04  0.27229232687E+04  0.00000000000E+00 0.  1.
         -2   -1    0    0    0  501 -0.00000000000E+00 -0.00000000000E+00 -0.36888901416E+03  0.36888901416E+03  0.00000000000E+00 0. -1.
         23    2    1    2    0    0  0.25564864708E+02 -0.78862007622E+03  0.21271066545E+04  0.22707938162E+04  0.96678069609E+02 0.  0.
         11    1    3    3    0    0 -0.36562595973E+02 -0.24093009765E+03  0.66317388793E+03  0.70652936316E+03  0.00000000000E+00 0.  1.
        -11    1    3    3    0    0  0.62127460681E+02 -0.54768997858E+03  0.14639327666E+04  0.15642644530E+04  0.00000000000E+00 0. -1.
         22    1    1    2    0    0 -0.25564864708E+02  0.78862007622E+03  0.22692760003E+03  0.82101846665E+03  0.00000000000E+00 0. -1.
<mgrwt>
<rscale>  0 0.20044515E+04</rscale>
<asrwt>0</asrwt>
<pdfrwt beam="1">  1        2 0.41891126E+00 0.20044515E+04</pdfrwt>
<pdfrwt beam="2">  1       -2 0.56752158E-01 0.20044515E+04</pdfrwt>
<totfact> 0.69669676E+00</totfact>
</mgrwt>
</event>
<event>
 6    1  0.1588846E-005  0.3320154E+04  0.7818608E-02  0.8157786E-01
         -1   -1    0    0    0  501 -0.00000000000E+00  0.00000000000E+00  0.26014704158E+04  0.26014704158E+04  0.00000000000E+00 0.  1.
          1   -1    0    0  501    0  0.00000000000E+00 -0.00000000000E+00 -0.10593451650E+04  0.10593451650E+04  0.00000000000E+00 0. -1.
         23    2    1    2    0    0  0.81727245634E+03 -0.65488805206E+03 -0.64692618111E+03  0.12341390882E+04  0.88165619776E+02 0.  0.
         11    1    3    3    0    0  0.38201588871E+03 -0.33007281640E+03 -0.26488955382E+03  0.57013215931E+03  0.00000000000E+00 0.  1.
        -11    1    3    3    0    0  0.43525656763E+03 -0.32481523566E+03 -0.38203662729E+03  0.66400692886E+03  0.00000000000E+00 0. -1.
         22    1    1    2    0    0 -0.81727245634E+03  0.65488805206E+03  0.21890514319E+04  0.24266764927E+04  0.00000000000E+00 0.  1.
<mgrwt>
<rscale>  0 0.33201537E+04</rscale>
<asrwt>0</asrwt>
<pdfrwt beam="1">  1        1 0.16297618E+00 0.33201537E+04</pdfrwt>
<pdfrwt beam="2">  1       -1 0.40022622E+00 0.33201537E+04</pdfrwt>
<totfact> 0.80297591E-02</totfact>
</mgrwt>
</event>
<event>
 6    1  0.1588846E-005  0.1789234E+04  0.7818608E-02  0.8712046E-01
          1   -1    0    0  501    0  0.00000000000E+00  0.00000000000E+00  0.14513683108E+04  0.14513683108E+04  0.00000000000E+00 0. -1.
         -1   -1    0    0    0  501 -0.00000000000E+00 -0.00000000000E+00 -0.55143799062E+03  0.55143799062E+03  0.00000000000E+00 0.  1.
         23    2    1    2    0    0  0.85644412759E+02  0.88101623483E+03  0.32477002710E+03  0.94718613575E+03  0.90340654110E+02 0.  0.
         11    1    3    3    0    0  0.31623953859E+02  0.96150119179E+02  0.56874950590E+02  0.11610202358E+03  0.00000000000E+00 0.  1.
        -11    1    3    3    0    0  0.54020458899E+02  0.78486611565E+03  0.26789507651E+03  0.83108411217E+03  0.00000000000E+00 0. -1.
         22    1    1    2    0    0 -0.85644412759E+02 -0.88101623483E+03  0.57516029310E+03  0.10556201657E+04  0.00000000000E+00 0. -1.
<mgrwt>
<rscale>  0 0.17892341E+04</rscale>
<asrwt>0</asrwt>
<pdfrwt beam="1">  1        1 0.22328743E+00 0.17892341E+04</pdfrwt>
<pdfrwt beam="2">  1       -1 0.84836615E-01 0.17892341E+04</pdfrwt>
<totfact> 0.91824779E+00</totfact>
</mgrwt>
</event>
<event>
 6    1  0.1588846E-005  0.1855285E+04  0.7818608E-02  0.8677440E-01
          1   -1    0    0  501    0  0.00000000000E+00  0.00000000000E+00  0.72110719367E+03  0.72110719367E+03  0.00000000000E+00 0. -1.
         -1   -1    0    0    0  501 -0.00000000000E+00 -0.00000000000E+00 -0.11933325619E+04  0.11933325619E+04  0.00000000000E+00 0.  1.
         23    2    1    2    0    0 -0.18448820824E+03  0.27653626432E+03 -0.11277939861E+04  0.11794034181E+04  0.92546977342E+02 0.  0.
         13    1    3    3    0    0 -0.74483104342E+02  0.11199441050E+03 -0.61950665414E+03  0.63393925209E+03  0.00000000000E+00 0.  1.
        -13    1    3    3    0    0 -0.11000510390E+03  0.16454185382E+03 -0.50828733199E+03  0.54546416602E+03  0.00000000000E+00 0. -1.
         22    1    1    2    0    0  0.18448820824E+03 -0.27653626432E+03  0.65556861796E+03  0.73503633741E+03  0.00000000000E+00 0. -1.
<mgrwt>
<rscale>  0 0.18552851E+04</rscale>
<asrwt>0</asrwt>
<pdfrwt beam="1">  1        1 0.11093957E+00 0.18552851E+04</pdfrwt>
<pdfrwt beam="2">  1       -1 0.18358962E+00 0.18552851E+04</pdfrwt>
<totfact> 0.47952124E+00</totfact>
</mgrwt>
</event>
<event>
 6    1  0.1884915E-005  0.3407085E+04  0.7818608E-02  0.8136170E-01
         -1   -1    0    0    0  501 -0.00000000000E+00  0.00000000000E+00  0.14197855159E+04  0.14197855159E+04  0.00000000000E+00 0.  1.
          1   -1    0    0  501    0  0.00000000000E+00 -0.00000000000E+00 -0.20440103280E+04  0.20440103280E+04  0.00000000000E+00 0. -1.
         23    2    1    2    0    0 -0.18137151253E+03 -0.57256377747E+03  0.13070430197E+04  0.14412923598E+04  0.90759607412E+02 0.  0.
         11    1    3    3    0    0 -0.17319912248E+03 -0.43046045730E+03  0.96242745508E+03  0.10684384623E+04  0.00000000000E+00 0.  1.
        -11    1    3    3    0    0 -0.81723900444E+01 -0.14210332017E+03  0.34461556463E+03  0.37285389759E+03  0.00000000000E+00 0. -1.
         22    1    1    2    0    0  0.18137151253E+03  0.57256377747E+03 -0.19312678319E+04  0.20225034841E+04  0.00000000000E+00 0. -1.
<mgrwt>
<rscale>  0 0.34070845E+04</rscale>
<asrwt>0</asrwt>
<pdfrwt beam="1">  1        1 0.31446313E+00 0.34070845E+04</pdfrwt>
<pdfrwt beam="2">  1       -1 0.21842854E+00 0.34070845E+04</pdfrwt>
<totfact> 0.25791772E-01</totfact>
</mgrwt>
</event>
<event>
 6    1  0.1588846E-005  0.1680993E+04  0.7818608E-02  0.8772280E-01
         -1   -1    0    0    0  501 -0.00000000000E+00  0.00000000000E+00  0.20797165141E+03  0.20797165141E+03  0.00000000000E+00 0.  1.
          1   -1    0    0  501    0  0.00000000000E+00 -0.00000000000E+00 -0.33967817092E+04  0.33967817092E+04  0.00000000000E+00 0. -1.
         23    2    1    2    0    0  0.69350703472E+03 -0.37598740566E+03 -0.22056460400E+04  0.23442256844E+04  0.90559757271E+02 0.  0.
         11    1    3    3    0    0  0.29340199972E+03 -0.16283582923E+03 -0.80846819387E+03  0.87534054014E+03  0.00000000000E+00 0.  1.
        -11    1    3    3    0    0  0.40010503500E+03 -0.21315157643E+03 -0.13971778461E+04  0.14688851443E+04  0.00000000000E+00 0. -1.
         22    1    1    2    0    0 -0.69350703472E+03  0.37598740566E+03 -0.98316401785E+03  0.12605276762E+04  0.00000000000E+00 0.  1.
<mgrwt>
<rscale>  0 0.16809929E+04</rscale>
<asrwt>0</asrwt>
<pdfrwt beam="1">  1        1 0.52258175E+00 0.16809929E+04</pdfrwt>
<pdfrwt beam="2">  1       -1 0.31995642E-01 0.16809929E+04</pdfrwt>
<totfact> 0.26312633E+00</totfact>
</mgrwt>
</event>
<event>
 6    1  0.1588846E-005  0.3173913E+04  0.7818608E-02  0.8195741E-01
         -2   -1    0    0    0  501 -0.00000000000E+00  0.00000000000E+00  0.24355135968E+04  0.24355135968E+04  0.00000000000E+00 0.  1.
          2   -1    0    0  501    0  0.00000000000E+00 -0.00000000000E+00 -0.10340449239E+04  0.10340449239E+04  0.00000000000E+00 0. -1.
         23    2    1    2    0    0 -0.14009014168E+04  0.61691352486E+03  0.24964182979E+03  0.15538831430E+04  0.95523306830E+02 0.  0.
         11    1    3    3    0    0 -0.12555380440E+03  0.82655595529E+02  0.38022935079E+02  0.15505305177E+03  0.00000000000E+00 0. -1.
        -11    1    3    3    0    0 -0.12753476124E+04  0.53425792933E+03  0.21161889472E+03  0.13988300912E+04  0.00000000000E+00 0.  1.
         22    1    1    2    0    0  0.14009014168E+04 -0.61691352486E+03  0.11518268431E+04  0.19156753778E+04  0.00000000000E+00 0.  1.
<mgrwt>
<rscale>  0 0.31739127E+04</rscale>
<asrwt>0</asrwt>
<pdfrwt beam="1">  1        2 0.15908384E+00 0.31739127E+04</pdfrwt>
<pdfrwt beam="2">  1       -2 0.37469440E+00 0.31739127E+04</pdfrwt>
<totfact> 0.21886681E-01</totfact>
</mgrwt>
</event>
<event>
 6    1  0.1588846E-005  0.1426235E+04  0.7818608E-02  0.8935044E-01
         -2   -1    0    0    0  501 -0.00000000000E+00  0.00000000000E+00  0.49483249393E+03  0.49483249393E+03  0.00000000000E+00 0. -1.
          2   -1    0    0  501    0  0.00000000000E+00 -0.00000000000E+00 -0.10276947417E+04  0.10276947417E+04  0.00000000000E+00 0.  1.
         23    2    1    2    0    0 -0.26628837997E+03 -0.14424825280E+03 -0.95294549115E+03  0.10046595004E+04  0.97563020311E+02 0.  0.
         13    1    3    3    0    0 -0.16925443169E+03 -0.37087332469E+02 -0.49628206136E+03  0.52565998260E+03  0.00000000000E+00 0. -1.
        -13    1    3    3    0    0 -0.97033948285E+02 -0.10716092033E+03 -0.45666342979E+03  0.47899951782E+03  0.00000000000E+00 0.  1.
         22    1    1    2    0    0  0.26628837997E+03  0.14424825280E+03  0.42008324342E+03  0.51786773518E+03  0.00000000000E+00 0. -1.
<mgrwt>
<rscale>  0 0.14262353E+04</rscale>
<asrwt>0</asrwt>
<pdfrwt beam="1">  1        2 0.15810688E+00 0.14262353E+04</pdfrwt>
<pdfrwt beam="2">  1       -2 0.76128076E-01 0.14262353E+04</pdfrwt>
<totfact> 0.36295538E+01</totfact>
</mgrwt>
</event>
<event>
 6    1  0.1588846E-005  0.1760469E+04  0.7818608E-02  0.8727609E-01
         -2   -1    0    0    0  501 -0.00000000000E+00  0.00000000000E+00  0.25201117569E+03  0.25201117569E+03  0.00000000000E+00 0.  1.
          2   -1    0    0  501    0  0.00000000000E+00 -0.00000000000E+00 -0.30745171065E+04  0.30745171065E+04  0.00000000000E+00 0. -1.
         23    2    1    2    0    0 -0.30668718284E+03  0.74928980092E+03 -0.20569119821E+04  0.22122454060E+04  0.87467710113E+02 0.  0.
         11    1    3    3    0    0 -0.20632594702E+03  0.49096915817E+03 -0.12372073536E+04  0.13469607071E+04  0.00000000000E+00 0. -1.
        -11    1    3    3    0    0 -0.10036123582E+03  0.25832064275E+03 -0.81970462855E+03  0.86528469893E+03  0.00000000000E+00 0.  1.
         22    1    1    2    0    0  0.30668718284E+03 -0.74928980092E+03 -0.76559394864E+03  0.11142828761E+04  0.00000000000E+00 0.  1.
<mgrwt>
<rscale>  0 0.17604689E+04</rscale>
<asrwt>0</asrwt>
<pdfrwt beam="1">  1        2 0.47300263E+00 0.17604689E+04</pdfrwt>
<pdfrwt beam="2">  1       -2 0.38770950E-01 0.17604689E+04</pdfrwt>
<totfact> 0.93456419E+00</totfact>
</mgrwt>
</event>
<event>
 6    1  0.1588846E-005  0.2285662E+04  0.7818608E-02  0.8483596E-01
          1   -1    0    0  501    0  0.00000000000E+00  0.00000000000E+00  0.13861060588E+04  0.13861060588E+04  0.00000000000E+00 0. -1.
         -1   -1    0    0    0  501 -0.00000000000E+00 -0.00000000000E+00 -0.94225288946E+03  0.94225288946E+03  0.00000000000E+00 0.  1.
         23    2    1    2    0    0 -0.49115343111E+03 -0.34442635675E+03  0.12110591109E+04  0.13544666724E+04  0.89747359151E+02 0.  0.
         11    1    3    3    0    0 -0.18097950050E+03 -0.10729960100E+03  0.33879979249E+03  0.39881334402E+03  0.00000000000E+00 0.  1.
        -11    1    3    3    0    0 -0.31017393061E+03 -0.23712675575E+03  0.87225931843E+03  0.95565332841E+03  0.00000000000E+00 0. -1.
         22    1    1    2    0    0  0.49115343111E+03  0.34442635675E+03 -0.76720594158E+03  0.97389227582E+03  0.00000000000E+00 0.  1.
<mgrwt>
<rscale>  0 0.22856618E+04</rscale>
<asrwt>0</asrwt>
<pdfrwt beam="1">  1        1 0.21324709E+00 0.22856618E+04</pdfrwt>
<pdfrwt beam="2">  1       -1 0.14496198E+00 0.22856618E+04</pdfrwt>
<totfact> 0.27191741E+00</totfact>
</mgrwt>
</event>
<event>
 6    1  0.1588846E-005  0.2546384E+04  0.7818608E-02  0.8386645E-01
          1   -1    0    0  501    0  0.00000000000E+00  0.00000000000E+00  0.79913537137E+03  0.79913537137E+03  0.00000000000E+00 0. -1.
         -1   -1    0    0    0  501 -0.00000000000E+00 -0.00000000000E+00 -0.20284641645E+04  0.20284641645E+04  0.00000000000E+00 0.  1.
         23    2    1    2    0    0 -0.64931907252E+03  0.80205492920E+03  0.21003209196E+03  0.10565356960E+04  0.85128314037E+02 0.  0.
         11    1    3    3    0    0 -0.31254979406E+03  0.39641962382E+03  0.59842420081E+02  0.50834732925E+03  0.00000000000E+00 0.  1.
        -11    1    3    3    0    0 -0.33676927846E+03  0.40563530539E+03  0.15018967188E+03  0.54818836674E+03  0.00000000000E+00 0. -1.
         22    1    1    2    0    0  0.64931907252E+03 -0.80205492920E+03 -0.14393608851E+04  0.17710638399E+04  0.00000000000E+00 0.  1.
<mgrwt>
<rscale>  0 0.25463837E+04</rscale>
<asrwt>0</asrwt>
<pdfrwt beam="1">  1        1 0.12294391E+00 0.25463837E+04</pdfrwt>
<pdfrwt beam="2">  1       -1 0.31207140E+00 0.25463837E+04</pdfrwt>
<totfact> 0.54031433E-01</totfact>
</mgrwt>
</event>
<event>
 6    1  0.1588846E-005  0.3498619E+04  0.7818608E-02  0.8114117E-01
          2   -1    0    0  501    0  0.00000000000E+00  0.00000000000E+00  0.10437005166E+04  0.10437005166E+04  0.00000000000E+00 0. -1.
         -2   -1    0    0    0  501 -0.00000000000E+00 -0.00000000000E+00 -0.29319558450E+04  0.29319558450E+04  0.00000000000E+00 0.  1.
         23    2    1    2    0    0 -0.10045547528E+04  0.13724174542E+04 -0.14035033978E+04  0.22071416305E+04  0.94828631042E+02 0.  0.
         11    1    3    3    0    0 -0.48347688067E+03  0.59122121594E+03 -0.65991387932E+03  0.10093457031E+04  0.00000000000E+00 0. -1.
        -11    1    3    3    0    0 -0.52107787211E+03  0.78119623830E+03 -0.74358951852E+03  0.11977959274E+04  0.00000000000E+00 0.  1.
         22    1    1    2    0    0  0.10045547528E+04 -0.13724174542E+04 -0.48475193055E+03  0.17685147311E+04  0.00000000000E+00 0. -1.
<mgrwt>
<rscale>  0 0.34986191E+04</rscale>
<asrwt>0</asrwt>
<pdfrwt beam="1">  1        2 0.16056931E+00 0.34986191E+04</pdfrwt>
<pdfrwt beam="2">  1       -2 0.45107013E+00 0.34986191E+04</pdfrwt>
<totfact> 0.66221798E-02</totfact>
</mgrwt>
</event>
<event>
 6    1  0.1588846E-005  0.3597670E+04  0.7818608E-02  0.8091026E-01
          1   -1    0    0  501    0  0.00000000000E+00  0.00000000000E+00  0.21008182811E+04  0.21008182811E+04  0.00000000000E+00 0. -1.
         -1   -1    0    0    0  501 -0.00000000000E+00 -0.00000000000E+00 -0.15402604007E+04  0.15402604007E+04  0.00000000000E+00 0.  1.
         23    2    1    2    0    0 -0.13289278746E+04 -0.33723433865E+03  0.14571677080E+04  0.20028828822E+04  0.91792242736E+02 0.  0.
         11    1    3    3    0    0 -0.36681410880E+03 -0.79652520620E+02  0.34358773827E+03  0.50887095451E+03  0.00000000000E+00 0. -1.
        -11    1    3    3    0    0 -0.96211376575E+03 -0.25758181803E+03  0.11135799697E+04  0.14940119277E+04  0.00000000000E+00 0.  1.
         22    1    1    2    0    0  0.13289278746E+04  0.33723433865E+03 -0.89660982761E+03  0.16381957996E+04  0.00000000000E+00 0.  1.
<mgrwt>
<rscale>  0 0.35976699E+04</rscale>
<asrwt>0</asrwt>
<pdfrwt beam="1">  1        1 0.32320281E+00 0.35976699E+04</pdfrwt>
<pdfrwt beam="2">  1       -1 0.23696314E+00 0.35976699E+04</pdfrwt>
<totfact> 0.17486039E-01</totfact>
</mgrwt>
</event>
<event>
 6    1  0.1588846E-005  0.1274493E+04  0.7818608E-02  0.9050040E-01
          2   -1    0    0  501    0  0.00000000000E+00  0.00000000000E+00  0.11787960835E+04  0.11787960835E+04  0.00000000000E+00 0. -1.
         -2   -1    0    0    0  501 -0.00000000000E+00 -0.00000000000E+00 -0.34448980171E+03  0.34448980171E+03  0.00000000000E+00 0.  1.
         23    2    1    2    0    0 -0.14654853342E+03 -0.60402299841E+03  0.56907703109E+03  0.84751461420E+03  0.90067189965E+02 0.  0.
         13    1    3    3    0    0 -0.53532912215E+02 -0.26197970076E+03  0.18674893689E+03  0.32615073468E+03  0.00000000000E+00 0. -1.
        -13    1    3    3    0    0 -0.93015621205E+02 -0.34204329765E+03  0.38232809419E+03  0.52136387952E+03  0.00000000000E+00 0.  1.
         22    1    1    2    0    0  0.14654853342E+03  0.60402299841E+03  0.26522925067E+03  0.67577127097E+03  0.00000000000E+00 0.  1.
<mgrwt>
<rscale>  0 0.12744932E+04</rscale>
<asrwt>0</asrwt>
<pdfrwt beam="1">  1        2 0.18135324E+00 0.12744932E+04</pdfrwt>
<pdfrwt beam="2">  1       -2 0.52998432E-01 0.12744932E+04</pdfrwt>
<totfact> 0.64287578E+01</totfact>
</mgrwt>
</event>
<event>
 6    1  0.1588846E-005  0.3682694E+04  0.7818608E-02  0.8071808E-01
         -1   -1    0    0    0  501 -0.00000000000E+00  0.00000000000E+00  0.92576802340E+03  0.92576802340E+03  0.00000000000E+00 0.  1.
          1   -1    0    0  501    0  0.00000000000E+00 -0.00000000000E+00 -0.36624288984E+04  0.36624288984E+04  0.00000000000E+00 0. -1.
         23    2    1    2    0    0  0.76512857841E+03 -0.90134282486E+03 -0.31260685006E+04  0.33434162470E+04  0.91034615118E+02 0.  0.
         13    1    3    3    0    0  0.69344089767E+03 -0.81949885325E+03 -0.27564388449E+04  0.29581064475E+04  0.00000000000E+00 0.  1.
        -13    1    3    3    0    0  0.71687680734E+02 -0.81843971611E+02 -0.36962965565E+03  0.38530979950E+03  0.00000000000E+00 0. -1.
         22    1    1    2    0    0 -0.76512857841E+03  0.90134282486E+03  0.38940762558E+03  0.12447806748E+04  0.00000000000E+00 0.  1.
<mgrwt>
<rscale>  0 0.36826944E+04</rscale>
<asrwt>0</asrwt>
<pdfrwt beam="1">  1        1 0.56345061E+00 0.36826944E+04</pdfrwt>
<pdfrwt beam="2">  1       -1 0.14242585E+00 0.36826944E+04</pdfrwt>
<totfact> 0.59494461E-02</totfact>
</mgrwt>
</event>
<event>
 6    1  0.1588846E-005  0.1820713E+04  0.7818608E-02  0.8695361E-01
         -2   -1    0    0    0  501 -0.00000000000E+00  0.00000000000E+00  0.48967985369E+03  0.48967985369E+03  0.00000000000E+00 0.  1.
          2   -1    0    0  501    0  0.00000000000E+00 -0.00000000000E+00 -0.16924309138E+04  0.16924309138E+04  0.00000000000E+00 0. -1.
         23    2    1    2    0    0  0.61534282798E+03 -0.62529002628E+03 -0.88416230133E+03  0.12487655955E+04  0.89655587761E+02 0.  0.
         13    1    3    3    0    0  0.21688042987E+03 -0.21801490929E+03 -0.25072853981E+03  0.39677754751E+03  0.00000000000E+00 0.  1.
        -13    1    3    3    0    0  0.39846239811E+03 -0.40727511699E+03 -0.63343376152E+03  0.85198804795E+03  0.00000000000E+00 0. -1.
         22    1    1    2    0    0 -0.61534282798E+03  0.62529002628E+03 -0.31858875877E+03  0.93334517201E+03  0.00000000000E+00 0.  1.
<mgrwt>
<rscale>  0 0.18207134E+04</rscale>
<asrwt>0</asrwt>
<pdfrwt beam="1">  1        2 0.26037399E+00 0.18207134E+04</pdfrwt>
<pdfrwt beam="2">  1       -2 0.75335362E-01 0.18207134E+04</pdfrwt>
<totfact> 0.14755155E+01</totfact>
</mgrwt>
</event>
<event>
 6    1  0.1588846E-005  0.3309005E+04  0.7818608E-02  0.8160608E-01
         -2   -1    0    0    0  501 -0.00000000000E+00  0.00000000000E+00  0.23982661822E+04  0.23982661822E+04  0.00000000000E+00 0.  1.
          2   -1    0    0  501    0  0.00000000000E+00 -0.00000000000E+00 -0.11413989078E+04  0.11413989078E+04  0.00000000000E+00 0. -1.
         23    2    1    2    0    0 -0.58012923465E+03  0.14064808845E+04 -0.62975294116E+02  0.15255343066E+04  0.92469593148E+02 0.  0.
         13    1    3    3    0    0 -0.10623468641E+03  0.36140830635E+03 -0.10984053696E+02  0.37685862327E+03  0.00000000000E+00 0. -1.
        -13    1    3    3    0    0 -0.47389454824E+03  0.10450725781E+04 -0.51991240419E+02  0.11486756833E+04  0.00000000000E+00 0.  1.
         22    1    1    2    0    0  0.58012923465E+03 -0.14064808845E+04  0.13198425685E+04  0.20141307835E+04  0.00000000000E+00 0.  1.
<mgrwt>
<rscale>  0 0.33090049E+04</rscale>
<asrwt>0</asrwt>
<pdfrwt beam="1">  1        2 0.17559983E+00 0.33090049E+04</pdfrwt>
<pdfrwt beam="2">  1       -2 0.36896403E+00 0.33090049E+04</pdfrwt>
<totfact> 0.20205038E-01</totfact>
</mgrwt>
</event>
<event>
 6    1  0.1588846E-005  0.2443209E+04  0.7818608E-02  0.8423501E-01
         -2   -1    0    0    0  501 -0.00000000000E+00  0.00000000000E+00  0.79762329777E+03  0.79762329777E+03  0.00000000000E+00 0. -1.
          2   -1    0    0  501    0  0.00000000000E+00 -0.00000000000E+00 -0.18709559407E+04  0.18709559407E+04  0.00000000000E+00 0.  1.
         23    2    1    2    0    0 -0.10547820212E+04  0.61283039940E+03 -0.54178736760E+03  0.13379152724E+04  0.91419438562E+02 0.  0.
         11    1    3    3    0    0 -0.65300518670E+02  0.40795689111E+02 -0.59877567598E+02  0.97538551814E+02  0.00000000000E+00 0.  1.
        -11    1    3    3    0    0 -0.98948150257E+03  0.57203471029E+03 -0.48190980000E+03  0.12403767206E+04  0.00000000000E+00 0. -1.
         22    1    1    2    0    0  0.10547820212E+04 -0.61283039940E+03 -0.53154527531E+03  0.13306639660E+04  0.00000000000E+00 0. -1.
<mgrwt>
<rscale>  0 0.24432094E+04</rscale>
<asrwt>0</asrwt>
<pdfrwt beam="1">  1        2 0.28783938E+00 0.24432094E+04</pdfrwt>
<pdfrwt beam="2">  1       -2 0.12271128E+00 0.24432094E+04</pdfrwt>
<totfact> 0.35465984E+00</totfact>
</mgrwt>
</event>
<event>
 6    1  0.1588846E-005  0.3782875E+04  0.7818608E-02  0.8049840E-01
         -2   -1    0    0    0  501 -0.00000000000E+00  0.00000000000E+00  0.18906958899E+04  0.18906958899E+04  0.00000000000E+00 0.  1.
          2   -1    0    0  501    0  0.00000000000E+00 -0.00000000000E+00 -0.18921790798E+04  0.18921790798E+04  0.00000000000E+00 0. -1.
         23    2    1    2    0    0  0.10841670230E+03  0.18510454525E+04 -0.36753304284E+03  0.18928707518E+04  0.98770931384E+02 0.  0.
         11    1    3    3    0    0  0.27675398634E+02  0.76589761178E+03 -0.10556772249E+03  0.77363403716E+03  0.00000000000E+00 0.  1.
        -11    1    3    3    0    0  0.80741303661E+02  0.10851478408E+04 -0.26196532035E+03  0.11192367147E+04  0.00000000000E+00 0. -1.
         22    1    1    2    0    0 -0.10841670230E+03 -0.18510454525E+04  0.36604985292E+03  0.18900042179E+04  0.00000000000E+00 0.  1.
<mgrwt>
<rscale>  0 0.37828747E+04</rscale>
<asrwt>0</asrwt>
<pdfrwt beam="1">  1        2 0.29110447E+00 0.37828747E+04</pdfrwt>
<pdfrwt beam="2">  1       -2 0.29087629E+00 0.37828747E+04</pdfrwt>
<totfact> 0.22257391E-01</totfact>
</mgrwt>
</event>
<event>
 6    1  0.1588846E-005  0.3267898E+04  0.7818608E-02  0.8171112E-01
          2   -1    0    0  501    0  0.00000000000E+00  0.00000000000E+00  0.24801439905E+04  0.24801439905E+04  0.00000000000E+00 0.  1.
         -2   -1    0    0    0  501 -0.00000000000E+00 -0.00000000000E+00 -0.10764657148E+04  0.10764657148E+04  0.00000000000E+00 0. -1.
         23    2    1    2    0    0  0.15186366031E+04  0.29002794725E+03  0.12745190214E+04  0.20051408994E+04  0.76275474411E+02 0.  0.
         11    1    3    3    0    0  0.70280321971E+03  0.96235068265E+02  0.57472592718E+03  0.91296409862E+03  0.00000000000E+00 0. -1.
        -11    1    3    3    0    0  0.81583338343E+03  0.19379287898E+03  0.69979309426E+03  0.10921768008E+04  0.00000000000E+00 0.  1.
         22    1    1    2    0    0 -0.15186366031E+04 -0.29002794725E+03  0.12915925431E+03  0.15514688059E+04  0.00000000000E+00 0. -1.
<mgrwt>
<rscale>  0 0.32678984E+04</rscale>
<asrwt>0</asrwt>
<pdfrwt beam="1">  1        2 0.38156061E+00 0.32678984E+04</pdfrwt>
<pdfrwt beam="2">  1       -2 0.16561011E+00 0.32678984E+04</pdfrwt>
<totfact> 0.68587627E-01</totfact>
</mgrwt>
</event>
<event>
 6    1  0.1588846E-005  0.8037146E+03  0.7818608E-02  0.9554656E-01
         -2   -1    0    0    0  501 -0.00000000000E+00  0.00000000000E+00  0.10903039327E+03  0.10903039327E+03  0.00000000000E+00 0.  1.
          2   -1    0    0  501    0  0.00000000000E+00 -0.00000000000E+00 -0.14811401532E+04  0.14811401532E+04  0.00000000000E+00 0. -1.
         23    2    1    2    0    0 -0.75104486588E+02  0.37220514103E+03 -0.92257210602E+03  0.10017306998E+04  0.90264905296E+02 0.  0.
         13    1    3    3    0    0 -0.14681875835E+02  0.27567642562E+03 -0.63376239460E+03  0.69127984343E+03  0.00000000000E+00 0. -1.
        -13    1    3    3    0    0 -0.60422610754E+02  0.96528715406E+02 -0.28880971142E+03  0.31045085633E+03  0.00000000000E+00 0.  1.
         22    1    1    2    0    0  0.75104486588E+02 -0.37220514103E+03 -0.44953765390E+03  0.58843984670E+03  0.00000000000E+00 0.  1.
<mgrwt>
<rscale>  0 0.80371461E+03</rscale>
<asrwt>0</asrwt>
<pdfrwt beam="1">  1        2 0.22786771E+00 0.80371461E+03</pdfrwt>
<pdfrwt beam="2">  1       -2 0.16773907E-01 0.80371461E+03</pdfrwt>
<totfact> 0.38021480E+02</totfact>
</mgrwt>
</event>
<event>
 6    1  0.1588846E-005  0.1607600E+04  0.7818608E-02  0.8815893E-01
          1   -1    0    0  501    0  0.00000000000E+00  0.00000000000E+00  0.48729832569E+03  0.48729832569E+03  0.00000000000E+00 0. -1.
         -1   -1    0    0    0  501 -0.00000000000E+00 -0.00000000000E+00 -0.13258706350E+04  0.13258706350E+04  0.00000000000E+00 0.  1.
         23    2    1    2    0    0 -0.54161194937E+03 -0.20050485767E+03 -0.10471296795E+04  0.11991316016E+04  0.88827533006E+02 0.  0.
         11    1    3    3    0    0 -0.20784365859E+03 -0.11132300724E+03 -0.36551435716E+03  0.43496269225E+03  0.00000000000E+00 0. -1.
        -11    1    3    3    0    0 -0.33376829078E+03 -0.89181850436E+02 -0.68161532232E+03  0.76416890934E+03  0.00000000000E+00 0.  1.
         22    1    1    2    0    0  0.54161194937E+03  0.20050485767E+03  0.20855737022E+03  0.61403735906E+03  0.00000000000E+00 0. -1.
<mgrwt>
<rscale>  0 0.16076001E+04</rscale>
<asrwt>0</asrwt>
<pdfrwt beam="1">  1        1 0.74968974E-01 0.16076001E+04</pdfrwt>
<pdfrwt beam="2">  1       -1 0.20398010E+00 0.16076001E+04</pdfrwt>
<totfact> 0.62218999E+00</totfact>
</mgrwt>
</event>
<event>
 6    1  0.1588846E-005  0.2634917E+04  0.7818608E-02  0.8356437E-01
          1   -1    0    0  501    0  0.00000000000E+00  0.00000000000E+00  0.16682462944E+04  0.16682462944E+04  0.00000000000E+00 0. -1.
         -1   -1    0    0    0  501 -0.00000000000E+00 -0.00000000000E+00 -0.10404318393E+04  0.10404318393E+04  0.00000000000E+00 0.  1.
         23    2    1    2    0    0 -0.84716340353E+03  0.18863037401E+02 -0.72081077394E+03  0.11159346970E+04  0.87752092540E+02 0.  0.
         11    1    3    3    0    0 -0.11486554355E+03  0.32192876914E+02 -0.92803878753E+02  0.15113912244E+03  0.00000000000E+00 0. -1.
        -11    1    3    3    0    0 -0.73229785998E+03 -0.13329839513E+02 -0.62800689519E+03  0.96479557459E+03  0.00000000000E+00 0.  1.
         22    1    1    2    0    0  0.84716340353E+03 -0.18863037401E+02  0.13486252291E+04  0.15927434366E+04  0.00000000000E+00 0. -1.
<mgrwt>
<rscale>  0 0.26349167E+04</rscale>
<asrwt>0</asrwt>
<pdfrwt beam="1">  1        1 0.25665328E+00 0.26349167E+04</pdfrwt>
<pdfrwt beam="2">  1       -1 0.16006644E+00 0.26349167E+04</pdfrwt>
<totfact> 0.12841971E+00</totfact>
</mgrwt>
</event>
<event>
 6    1  0.1588846E-005  0.1903659E+04  0.7818608E-02  0.8653037E-01
          1   -1    0    0  501    0  0.00000000000E+00  0.00000000000E+00  0.18948002859E+04  0.18948002859E+04  0.00000000000E+00 0. -1.
         -1   -1    0    0    0  501 -0.00000000000E+00 -0.00000000000E+00 -0.47813970232E+03  0.47813970232E+03  0.00000000000E+00 0.  1.
         23    2    1    2    0    0  0.46243866101E+03 -0.76097291975E+03  0.29802071759E+03  0.94315523184E+03  0.88295772581E+02 0.  0.
         13    1    3    3    0    0  0.83813577952E+02 -0.19128018356E+03  0.96475821492E+02  0.23004436225E+03  0.00000000000E+00 0. -1.
        -13    1    3    3    0    0  0.37862508305E+03 -0.56969273619E+03  0.20154489610E+03  0.71311086959E+03  0.00000000000E+00 0.  1.
         22    1    1    2    0    0 -0.46243866101E+03  0.76097291975E+03  0.11186398660E+04  0.14297847564E+04  0.00000000000E+00 0. -1.
<mgrwt>
<rscale>  0 0.19036588E+04</rscale>
<asrwt>0</asrwt>
<pdfrwt beam="1">  1        1 0.29150773E+00 0.19036588E+04</pdfrwt>
<pdfrwt beam="2">  1       -1 0.73559956E-01 0.19036588E+04</pdfrwt>
<totfact> 0.61164141E+00</totfact>
</mgrwt>
</event>
<event>
 6    1  0.1588846E-005  0.3720614E+04  0.7818608E-02  0.8063409E-01
         -1   -1    0    0    0  501 -0.00000000000E+00  0.00000000000E+00  0.81080398527E+03  0.81080398527E+03  0.00000000000E+00 0.  1.
          1   -1    0    0  501    0  0.00000000000E+00 -0.00000000000E+00 -0.42682839197E+04  0.42682839197E+04  0.00000000000E+00 0. -1.
         23    2    1    2    0    0 -0.14013000862E+03  0.12201488660E+04  0.17556544442E+03  0.12440626900E+04  0.92027588696E+02 0.  0.
         11    1    3    3    0    0 -0.46587932730E+02  0.33542441949E+03  0.78440092844E+01  0.33873515488E+03  0.00000000000E+00 0.  1.
        -11    1    3    3    0    0 -0.93542075895E+02  0.88472444646E+03  0.16772143513E+03  0.90532753517E+03  0.00000000000E+00 0. -1.
         22    1    1    2    0    0  0.14013000862E+03 -0.12201488660E+04 -0.36330453789E+04  0.38350252150E+04  0.00000000000E+00 0. -1.
<mgrwt>
<rscale>  0 0.37206137E+04</rscale>
<asrwt>0</asrwt>
<pdfrwt beam="1">  1        1 0.65665906E+00 0.37206137E+04</pdfrwt>
<pdfrwt beam="2">  1       -1 0.12473908E+00 0.37206137E+04</pdfrwt>
<totfact> 0.24484820E-02</totfact>
</mgrwt>
</event>
<event>
 6    1  0.1588846E-005  0.1755667E+04  0.7818608E-02  0.8730237E-01
         -3   -1    0    0    0  501 -0.00000000000E+00  0.00000000000E+00  0.44542803272E+03  0.44542803272E+03  0.00000000000E+00 0.  1.
          3   -1    0    0  501    0  0.00000000000E+00 -0.00000000000E+00 -0.17300025060E+04  0.17300025060E+04  0.00000000000E+00 0. -1.
         23    2    1    2    0    0  0.11773315192E+03 -0.69908144053E+03 -0.12806789738E+04  0.14664939193E+04  0.88824690818E+02 0.  0.
         13    1    3    3    0    0  0.66229533406E+02 -0.59097796165E+03 -0.10597583255E+04  0.12152073941E+04  0.00000000000E+00 0.  1.
        -13    1    3    3    0    0  0.51503618516E+02 -0.10810347888E+03 -0.22092064830E+03  0.25128652513E+03  0.00000000000E+00 0. -1.
         22    1    1    2    0    0 -0.11773315192E+03  0.69908144053E+03 -0.38954995154E+01  0.70893661950E+03  0.00000000000E+00 0.  1.
<mgrwt>
<rscale>  0 0.17556670E+04</rscale>
<asrwt>0</asrwt>
<pdfrwt beam="1">  1        3 0.26615423E+00 0.17556670E+04</pdfrwt>
<pdfrwt beam="2">  1       -3 0.68527390E-01 0.17556670E+04</pdfrwt>
<totfact> 0.30311025E-01</totfact>
</mgrwt>
</event>
<event>
 6    1  0.1588846E-005  0.1081534E+04  0.7818608E-02  0.9223379E-01
          1   -1    0    0  501    0  0.00000000000E+00  0.00000000000E+00  0.89296097471E+03  0.89296097471E+03  0.00000000000E+00 0. -1.
         -1   -1    0    0    0  501 -0.00000000000E+00 -0.00000000000E+00 -0.32748231941E+03  0.32748231941E+03  0.00000000000E+00 0.  1.
         23    2    1    2    0    0 -0.46464080779E+03  0.11271735375E+03  0.56044672371E+03  0.74229938018E+03  0.91167744282E+02 0.  0.
         11    1    3    3    0    0 -0.30391806584E+03  0.56637589151E+02  0.29738952726E+03  0.42896915760E+03  0.00000000000E+00 0.  1.
        -11    1    3    3    0    0 -0.16072274195E+03  0.56079764595E+02  0.26305719645E+03  0.31333022258E+03  0.00000000000E+00 0. -1.
         22    1    1    2    0    0  0.46464080779E+03 -0.11271735375E+03  0.50319315950E+01  0.47814391394E+03  0.00000000000E+00 0.  1.
<mgrwt>
<rscale>  0 0.10815340E+04</rscale>
<asrwt>0</asrwt>
<pdfrwt beam="1">  1        1 0.13737861E+00 0.10815340E+04</pdfrwt>
<pdfrwt beam="2">  1       -1 0.50381896E-01 0.10815340E+04</pdfrwt>
<totfact> 0.72758604E+01</totfact>
</mgrwt>
</event>
<event>
 6    1  0.1588846E-005  0.3718887E+04  0.7818608E-02  0.8063789E-01
         -2   -1    0    0    0  501 -0.00000000000E+00  0.00000000000E+00  0.78616461083E+03  0.78616461083E+03  0.00000000000E+00 0.  1.
          2   -1    0    0  501    0  0.00000000000E+00 -0.00000000000E+00 -0.43979716156E+04  0.43979716156E+04  0.00000000000E+00 0. -1.
         23    2    1    2    0    0  0.16879482738E+04 -0.75527077844E+03 -0.20615093705E+04  0.27710415167E+04  0.96160691451E+02 0.  0.
         13    1    3    3    0    0  0.16633544349E+04 -0.73462647505E+03 -0.20109918379E+04  0.27111828057E+04  0.00000000000E+00 0.  1.
        -13    1    3    3    0    0  0.24593838898E+02 -0.20644303382E+02 -0.50517532626E+02  0.59858710949E+02  0.00000000000E+00 0. -1.
         22    1    1    2    0    0 -0.16879482738E+04  0.75527077844E+03 -0.15502976342E+04  0.24130947098E+04  0.00000000000E+00 0.  1.
<mgrwt>
<rscale>  0 0.37188867E+04</rscale>
<asrwt>0</asrwt>
<pdfrwt beam="1">  1        2 0.67661102E+00 0.37188867E+04</pdfrwt>
<pdfrwt beam="2">  1       -2 0.12094840E+00 0.37188867E+04</pdfrwt>
<totfact> 0.64444752E-02</totfact>
</mgrwt>
</event>
<event>
 6    1  0.1588846E-005  0.4943357E+04  0.7818608E-02  0.7837305E-01
         -2   -1    0    0    0  501 -0.00000000000E+00  0.00000000000E+00  0.14469696545E+04  0.14469696545E+04  0.00000000000E+00 0.  1.
          2   -1    0    0  501    0  0.00000000000E+00 -0.00000000000E+00 -0.42220611848E+04  0.42220611848E+04  0.00000000000E+00 0. -1.
         23    2    1    2    0    0 -0.23677619237E+04 -0.63208610267E+03 -0.10268069270E+04  0.26586606922E+04  0.91185757017E+02 0.  0.
         11    1    3    3    0    0 -0.22681743258E+04 -0.59963834420E+03 -0.96324811084E+03  0.25361442860E+04  0.00000000000E+00 0. -1.
        -11    1    3    3    0    0 -0.99587597916E+02 -0.32447758477E+02 -0.63558816206E+02  0.12251640627E+03  0.00000000000E+00 0.  1.
         22    1    1    2    0    0  0.23677619237E+04  0.63208610267E+03 -0.17482846032E+04  0.30103701471E+04  0.00000000000E+00 0. -1.
<mgrwt>
<rscale>  0 0.49433569E+04</rscale>
<asrwt>0</asrwt>
<pdfrwt beam="1">  1        2 0.64954788E+00 0.49433569E+04</pdfrwt>
<pdfrwt beam="2">  1       -2 0.22261071E+00 0.49433569E+04</pdfrwt>
<totfact> 0.15378762E-02</totfact>
</mgrwt>
</event>
<event>
 6    1  0.1588846E-005  0.7301181E+03  0.7818608E-02  0.9667069E-01
          2   -1    0    0  501    0  0.00000000000E+00  0.00000000000E+00  0.13447744562E+04  0.13447744562E+04  0.00000000000E+00 0.  1.
         -2   -1    0    0    0  501 -0.00000000000E+00 -0.00000000000E+00 -0.99100706980E+02  0.99100706980E+02  0.00000000000E+00 0. -1.
         23    2    1    2    0    0  0.28615722895E+03  0.21242649112E+03  0.52966746880E+03  0.64407770919E+03  0.85308230310E+02 0.  0.
         11    1    3    3    0    0  0.15030960156E+03  0.59171590240E+02  0.24176943280E+03  0.29076917314E+03  0.00000000000E+00 0. -1.
        -11    1    3    3    0    0  0.13584762739E+03  0.15325490089E+03  0.28789803601E+03  0.35330853606E+03  0.00000000000E+00 0.  1.
         22    1    1    2    0    0 -0.28615722895E+03 -0.21242649112E+03  0.71600628044E+03  0.79979745401E+03  0.00000000000E+00 0. -1.
<mgrwt>
<rscale>  0 0.73011807E+03</rscale>
<asrwt>0</asrwt>
<pdfrwt beam="1">  1        2 0.20688837E+00 0.73011807E+03</pdfrwt>
<pdfrwt beam="2">  1       -2 0.15246263E-01 0.73011807E+03</pdfrwt>
<totfact> 0.53629313E+02</totfact>
</mgrwt>
</event>
<event>
 6    1  0.1588846E-005  0.2586282E+04  0.7818608E-02  0.8372876E-01
          2   -1    0    0  501    0  0.00000000000E+00  0.00000000000E+00  0.13263304041E+04  0.13263304041E+04  0.00000000000E+00 0. -1.
         -2   -1    0    0    0  501 -0.00000000000E+00 -0.00000000000E+00 -0.12607817713E+04  0.12607817713E+04  0.00000000000E+00 0.  1.
         23    2    1    2    0    0 -0.12074533894E+03 -0.49157725601E+03 -0.11556986185E+04  0.12651165308E+04  0.93020987708E+02 0.  0.
         11    1    3    3    0    0 -0.97730416411E+02 -0.28719667219E+03 -0.59478426287E+03  0.66768366924E+03  0.00000000000E+00 0. -1.
        -11    1    3    3    0    0 -0.23014922532E+02 -0.20438058382E+03 -0.56091435564E+03  0.59743286156E+03  0.00000000000E+00 0.  1.
         22    1    1    2    0    0  0.12074533894E+03  0.49157725601E+03  0.12212472513E+04  0.13219956446E+04  0.00000000000E+00 0. -1.
<mgrwt>
<rscale>  0 0.25862817E+04</rscale>
<asrwt>0</asrwt>
<pdfrwt beam="1">  1        2 0.20405083E+00 0.25862817E+04</pdfrwt>
<pdfrwt beam="2">  1       -2 0.19396642E+00 0.25862817E+04</pdfrwt>
<totfact> 0.20606892E+00</totfact>
</mgrwt>
</event>
<event>
 6    1  0.1588846E-005  0.3760508E+04  0.7818608E-02  0.8054683E-01
         -2   -1    0    0    0  501 -0.00000000000E+00  0.00000000000E+00  0.10253879169E+04  0.10253879169E+04  0.00000000000E+00 0. -1.
          2   -1    0    0  501    0  0.00000000000E+00 -0.00000000000E+00 -0.34478213949E+04  0.34478213949E+04  0.00000000000E+00 0.  1.
         23    2    1    2    0    0 -0.77924360954E+03 -0.46245494956E+02 -0.32451929453E+04  0.33390610015E+04  0.93230203370E+02 0.  0.
         13    1    3    3    0    0 -0.50514927191E+03 -0.26933671408E+02 -0.19074104876E+04  0.19733514583E+04  0.00000000000E+00 0. -1.
        -13    1    3    3    0    0 -0.27409433764E+03 -0.19311823548E+02 -0.13377824576E+04  0.13657095432E+04  0.00000000000E+00 0.  1.
         22    1    1    2    0    0  0.77924360954E+03  0.46245494956E+02  0.82275946723E+03  0.11341483103E+04  0.00000000000E+00 0. -1.
<mgrwt>
<rscale>  0 0.37605076E+04</rscale>
<asrwt>0</asrwt>
<pdfrwt beam="1">  1        2 0.53043406E+00 0.37605076E+04</pdfrwt>
<pdfrwt beam="2">  1       -2 0.15775199E+00 0.37605076E+04</pdfrwt>
<totfact> 0.18581993E-01</totfact>
</mgrwt>
</event>
<event>
 6    1  0.1588846E-005  0.2323695E+04  0.7818608E-02  0.8468637E-01
          1   -1    0    0  501    0  0.00000000000E+00  0.00000000000E+00  0.84785477611E+03  0.84785477611E+03  0.00000000000E+00 0. -1.
         -1   -1    0    0    0  501 -0.00000000000E+00 -0.00000000000E+00 -0.15921238586E+04  0.15921238586E+04  0.00000000000E+00 0.  1.
         23    2    1    2    0    0 -0.37056290559E+03  0.13649691510E+03  0.77265012990E+03  0.87249907449E+03  0.91203820757E+02 0.  0.
         13    1    3    3    0    0 -0.93501929999E+02  0.16204157597E+02  0.26867787629E+03  0.28494383104E+03  0.00000000000E+00 0.  1.
        -13    1    3    3    0    0 -0.27706097559E+03  0.12029275750E+03  0.50397225360E+03  0.58755524345E+03  0.00000000000E+00 0. -1.
         22    1    1    2    0    0  0.37056290559E+03 -0.13649691510E+03 -0.15169192123E+04  0.15674795602E+04  0.00000000000E+00 0.  1.
<mgrwt>
<rscale>  0 0.23236952E+04</rscale>
<asrwt>0</asrwt>
<pdfrwt beam="1">  1        1 0.13043920E+00 0.23236952E+04</pdfrwt>
<pdfrwt beam="2">  1       -1 0.24494213E+00 0.23236952E+04</pdfrwt>
<totfact> 0.13648944E+00</totfact>
</mgrwt>
</event>
<event>
 6    1  0.1588846E-005  0.2662603E+04  0.7818608E-02  0.8347242E-01
         -2   -1    0    0    0  501 -0.00000000000E+00  0.00000000000E+00  0.10439101855E+04  0.10439101855E+04  0.00000000000E+00 0.  1.
          2   -1    0    0  501    0  0.00000000000E+00 -0.00000000000E+00 -0.16978124942E+04  0.16978124942E+04  0.00000000000E+00 0. -1.
         23    2    1    2    0    0 -0.77441530291E+03 -0.36223027989E+03 -0.13761195140E+04  0.16225589166E+04  0.89792449249E+02 0.  0.
         13    1    3    3    0    0 -0.53529097337E+03 -0.28189641028E+03 -0.91425087566E+03  0.10962922402E+04  0.00000000000E+00 0. -1.
        -13    1    3    3    0    0 -0.23912432954E+03 -0.80333869611E+02 -0.46186863837E+03  0.52626667640E+03  0.00000000000E+00 0.  1.
         22    1    1    2    0    0  0.77441530291E+03  0.36223027989E+03  0.72221720526E+03  0.11191637631E+04  0.00000000000E+00 0.  1.
<mgrwt>
<rscale>  0 0.26626031E+04</rscale>
<asrwt>0</asrwt>
<pdfrwt beam="1">  1        2 0.26120192E+00 0.26626031E+04</pdfrwt>
<pdfrwt beam="2">  1       -2 0.16060157E+00 0.26626031E+04</pdfrwt>
<totfact> 0.21581025E+00</totfact>
</mgrwt>
</event>
<event>
 6    1  0.1588846E-005  0.4881802E+04  0.7818608E-02  0.7847004E-01
          2   -1    0    0  501    0  0.00000000000E+00  0.00000000000E+00  0.33725338351E+04  0.33725338351E+04  0.00000000000E+00 0. -1.
         -2   -1    0    0    0  501 -0.00000000000E+00 -0.00000000000E+00 -0.17666234349E+04  0.17666234349E+04  0.00000000000E+00 0.  1.
         23    2    1    2    0    0  0.46633437370E+03  0.20418471576E+04 -0.51436267335E+03  0.21588610650E+04  0.97491411398E+02 0.  0.
         13    1    3    3    0    0  0.39479059326E+03  0.17852336116E+04 -0.41774236261E+03  0.18754805629E+04  0.00000000000E+00 0. -1.
        -13    1    3    3    0    0  0.71543780447E+02  0.25661354600E+03 -0.96620310740E+02  0.28338050208E+03  0.00000000000E+00 0.  1.
         22    1    1    2    0    0 -0.46633437370E+03 -0.20418471576E+04  0.21202730735E+04  0.29802962050E+04  0.00000000000E+00 0. -1.
<mgrwt>
<rscale>  0 0.48818018E+04</rscale>
<asrwt>0</asrwt>
<pdfrwt beam="1">  1        2 0.51885136E+00 0.48818018E+04</pdfrwt>
<pdfrwt beam="2">  1       -2 0.27178822E+00 0.48818018E+04</pdfrwt>
<totfact> 0.34520613E-02</totfact>
</mgrwt>
</event>
<event>
 6    1  0.1588846E-005  0.3199286E+04  0.7818608E-02  0.8189006E-01
         -2   -1    0    0    0  501 -0.00000000000E+00  0.00000000000E+00  0.13527636790E+04  0.13527636790E+04  0.00000000000E+00 0.  1.
          2   -1    0    0  501    0  0.00000000000E+00 -0.00000000000E+00 -0.18915773274E+04  0.18915773274E+04  0.00000000000E+00 0. -1.
         23    2    1    2    0    0 -0.93251953592E+03 -0.66382086943E+03  0.86159201612E+03  0.14356434483E+04  0.92089504551E+02 0.  0.
         11    1    3    3    0    0 -0.54756631222E+03 -0.33875223523E+03  0.45959036438E+03  0.79107853351E+03  0.00000000000E+00 0. -1.
        -11    1    3    3    0    0 -0.38495322370E+03 -0.32506863420E+03  0.40200165175E+03  0.64456491480E+03  0.00000000000E+00 0.  1.
         22    1    1    2    0    0  0.93251953592E+03  0.66382086943E+03 -0.14004056645E+04  0.18086975581E+04  0.00000000000E+00 0. -1.
<mgrwt>
<rscale>  0 0.31992856E+04</rscale>
<asrwt>0</asrwt>
<pdfrwt beam="1">  1        2 0.29101190E+00 0.31992856E+04</pdfrwt>
<pdfrwt beam="2">  1       -2 0.20811749E+00 0.31992856E+04</pdfrwt>
<totfact> 0.76120401E-01</totfact>
</mgrwt>
</event>
<event>
 6    1  0.1588846E-005  0.4658618E+04  0.7818608E-02  0.7883441E-01
         -1   -1    0    0    0  501 -0.00000000000E+00  0.00000000000E+00  0.30051608625E+04  0.30051608625E+04  0.00000000000E+00 0.  1.
          1   -1    0    0  501    0  0.00000000000E+00 -0.00000000000E+00 -0.18054539013E+04  0.18054539013E+04  0.00000000000E+00 0. -1.
         23    2    1    2    0    0  0.15744308065E+04  0.88287031632E+03  0.21188150006E+04  0.27850156061E+04  0.92965368648E+02 0.  0.
         11    1    3    3    0    0  0.11688755526E+04  0.69962106848E+03  0.15801742586E+04  0.20863102321E+04  0.00000000000E+00 0.  1.
        -11    1    3    3    0    0  0.40555525386E+03  0.18324924784E+03  0.53864074202E+03  0.69870537405E+03  0.00000000000E+00 0. -1.
         22    1    1    2    0    0 -0.15744308065E+04 -0.88287031632E+03 -0.91910803932E+03  0.20255991577E+04  0.00000000000E+00 0. -1.
<mgrwt>
<rscale>  0 0.46586176E+04</rscale>
<asrwt>0</asrwt>
<pdfrwt beam="1">  1        1 0.27776214E+00 0.46586176E+04</pdfrwt>
<pdfrwt beam="2">  1       -1 0.46233244E+00 0.46586176E+04</pdfrwt>
<totfact> 0.79923394E-03</totfact>
</mgrwt>
</event>
<event>
 6    1  0.1588846E-005  0.2427778E+04  0.7818608E-02  0.8429177E-01
          2   -1    0    0  501    0  0.00000000000E+00  0.00000000000E+00  0.92802450355E+03  0.92802450355E+03  0.00000000000E+00 0. -1.
         -2   -1    0    0    0  501 -0.00000000000E+00 -0.00000000000E+00 -0.15878099192E+04  0.15878099192E+04  0.00000000000E+00 0.  1.
         23    2    1    2    0    0  0.30376464304E+03 -0.11661440087E+04 -0.46668744132E+03  0.12954035008E+04  0.90045847623E+02 0.  0.
         11    1    3    3    0    0  0.15966890853E+03 -0.46868559079E+03 -0.16437735301E+03  0.52170897783E+03  0.00000000000E+00 0.  1.
        -11    1    3    3    0    0  0.14409573450E+03 -0.69745841791E+03 -0.30231008831E+03  0.77369452300E+03  0.00000000000E+00 0. -1.
         22    1    1    2    0    0 -0.30376464304E+03  0.11661440087E+04 -0.19309797429E+03  0.12204309219E+04  0.00000000000E+00 0.  1.
<mgrwt>
<rscale>  0 0.24277780E+04</rscale>
<asrwt>0</asrwt>
<pdfrwt beam="1">  1        2 0.14277300E+00 0.24277780E+04</pdfrwt>
<pdfrwt beam="2">  1       -2 0.24427845E+00 0.24277780E+04</pdfrwt>
<totfact> 0.17553854E+00</totfact>
</mgrwt>
</event>
<event>
 6    1  0.1588846E-005  0.2309712E+04  0.7818608E-02  0.8474101E-01
          2   -1    0    0  501    0  0.00000000000E+00  0.00000000000E+00  0.24704316365E+04  0.24704316365E+04  0.00000000000E+00 0. -1.
         -2   -1    0    0    0  501 -0.00000000000E+00 -0.00000000000E+00 -0.53986231865E+03  0.53986231865E+03  0.00000000000E+00 0.  1.
         23    2    1    2    0    0 -0.76193317828E+03  0.21297283589E+03  0.20599284576E+04  0.22086497798E+04  0.94493398079E+02 0.  0.
         13    1    3    3    0    0 -0.32308443105E+03  0.81234580211E+02  0.99646495540E+03  0.10506783589E+04  0.00000000000E+00 0.  1.
        -13    1    3    3    0    0 -0.43884874723E+03  0.13173825567E+03  0.10634635022E+04  0.11579714208E+04  0.00000000000E+00 0. -1.
         22    1    1    2    0    0  0.76193317828E+03 -0.21297283589E+03 -0.12935913969E+03  0.80164417544E+03  0.00000000000E+00 0.  1.
<mgrwt>
<rscale>  0 0.23097125E+04</rscale>
<asrwt>0</asrwt>
<pdfrwt beam="1">  1        2 0.38006640E+00 0.23097125E+04</pdfrwt>
<pdfrwt beam="2">  1       -2 0.83055743E-01 0.23097125E+04</pdfrwt>
<totfact> 0.41657920E+00</totfact>
</mgrwt>
</event>
<event>
 6    1  0.1588846E-005  0.2939129E+04  0.7818608E-02  0.8261330E-01
          2   -1    0    0  501    0  0.00000000000E+00  0.00000000000E+00  0.21502514357E+04  0.21502514357E+04  0.00000000000E+00 0.  1.
         -2   -1    0    0    0  501 -0.00000000000E+00 -0.00000000000E+00 -0.10043569258E+04  0.10043569258E+04  0.00000000000E+00 0. -1.
         23    2    1    2    0    0  0.87774346313E+03 -0.85482692862E+03  0.14417568897E+04  0.18941730349E+04  0.89810311808E+02 0.  0.
         13    1    3    3    0    0  0.45122279054E+03 -0.42970811513E+03  0.80149562767E+03  0.10152075217E+04  0.00000000000E+00 0.  1.
        -13    1    3    3    0    0  0.42652067260E+03 -0.42511881349E+03  0.64026126203E+03  0.87896551320E+03  0.00000000000E+00 0. -1.
         22    1    1    2    0    0 -0.87774346313E+03  0.85482692862E+03 -0.29586237981E+03  0.12604353267E+04  0.00000000000E+00 0. -1.
<mgrwt>
<rscale>  0 0.29391291E+04</rscale>
<asrwt>0</asrwt>
<pdfrwt beam="1">  1        2 0.33080791E+00 0.29391291E+04</pdfrwt>
<pdfrwt beam="2">  1       -2 0.15451645E+00 0.29391291E+04</pdfrwt>
<totfact> 0.13115903E+00</totfact>
</mgrwt>
</event>
<event>
 6    1  0.1588846E-005  0.1026805E+04  0.7818608E-02  0.9279624E-01
         -1   -1    0    0    0  501 -0.00000000000E+00  0.00000000000E+00  0.96371372166E+03  0.96371372166E+03  0.00000000000E+00 0.  1.
          1   -1    0    0  501    0  0.00000000000E+00 -0.00000000000E+00 -0.27350684899E+03  0.27350684899E+03  0.00000000000E+00 0. -1.
         23    2    1    2    0    0 -0.11652331903E+03  0.23922308181E+03  0.87143525351E+03  0.91527477898E+03  0.86736112635E+02 0.  0.
         13    1    3    3    0    0 -0.59121360513E+02  0.66992388268E+02  0.40535706578E+03  0.41508754032E+03  0.00000000000E+00 0. -1.
        -13    1    3    3    0    0 -0.57401958515E+02  0.17223069354E+03  0.46607818773E+03  0.50018723866E+03  0.00000000000E+00 0.  1.
         22    1    1    2    0    0  0.11652331903E+03 -0.23922308181E+03 -0.18122838084E+03  0.32194579167E+03  0.00000000000E+00 0. -1.
<mgrwt>
<rscale>  0 0.10268053E+04</rscale>
<asrwt>0</asrwt>
<pdfrwt beam="1">  1        1 0.42077977E-01 0.10268053E+04</pdfrwt>
<pdfrwt beam="2">  1       -1 0.14826365E+00 0.10268053E+04</pdfrwt>
<totfact> 0.35658106E+01</totfact>
</mgrwt>
</event>
<event>
 6    1  0.1588846E-005  0.2457473E+04  0.7818608E-02  0.8418295E-01
         -2   -1    0    0    0  501 -0.00000000000E+00  0.00000000000E+00  0.38301086157E+03  0.38301086157E+03  0.00000000000E+00 0. -1.
          2   -1    0    0  501    0  0.00000000000E+00 -0.00000000000E+00 -0.39419064943E+04  0.39419064943E+04  0.00000000000E+00 0.  1.
         23    2    1    2    0    0  0.84235940391E+03  0.82414465732E+03 -0.11804153873E+04  0.16704961272E+04  0.91613551105E+02 0.  0.
         13    1    3    3    0    0  0.39383406285E+03  0.41557549032E+03 -0.51615013747E+03  0.77085616144E+03  0.00000000000E+00 0. -1.
        -13    1    3    3    0    0  0.44852534106E+03  0.40856916700E+03 -0.66426524988E+03  0.89963996576E+03  0.00000000000E+00 0.  1.
         22    1    1    2    0    0 -0.84235940391E+03 -0.82414465732E+03 -0.23784802454E+04  0.26544212287E+04  0.00000000000E+00 0. -1.
<mgrwt>
<rscale>  0 0.24574727E+04</rscale>
<asrwt>0</asrwt>
<pdfrwt beam="1">  1        2 0.60644714E+00 0.24574727E+04</pdfrwt>
<pdfrwt beam="2">  1       -2 0.58924749E-01 0.24574727E+04</pdfrwt>
<totfact> 0.92063926E-01</totfact>
</mgrwt>
</event>
<event>
 6    1  0.1588846E-005  0.2957006E+04  0.7818608E-02  0.8256116E-01
          2   -1    0    0  501    0  0.00000000000E+00  0.00000000000E+00  0.33870991963E+04  0.33870991963E+04  0.00000000000E+00 0. -1.
         -2   -1    0    0    0  501 -0.00000000000E+00 -0.00000000000E+00 -0.64538135213E+03  0.64538135213E+03  0.00000000000E+00 0.  1.
         23    2    1    2    0    0  0.10425810854E+04  0.26810649822E+03  0.27515202977E+04  0.29559339855E+04  0.88461088327E+02 0.  0.
         11    1    3    3    0    0  0.60885843075E+03  0.18913829818E+03  0.17078430760E+04  0.18229673219E+04  0.00000000000E+00 0. -1.
        -11    1    3    3    0    0  0.43372265461E+03  0.78968200039E+02  0.10436772218E+04  0.11329666637E+04  0.00000000000E+00 0.  1.
         22    1    1    2    0    0 -0.10425810854E+04 -0.26810649822E+03 -0.98024535802E+01  0.10765465629E+04  0.00000000000E+00 0.  1.
<mgrwt>
<rscale>  0 0.29570057E+04</rscale>
<asrwt>0</asrwt>
<pdfrwt beam="1">  1        2 0.52109218E+00 0.29570057E+04</pdfrwt>
<pdfrwt beam="2">  1       -2 0.99289440E-01 0.29570057E+04</pdfrwt>
<totfact> 0.70164316E-01</totfact>
</mgrwt>
</event>
<event>
 6    1  0.1588846E-005  0.2270610E+04  0.7818608E-02  0.8489600E-01
          2   -1    0    0  501    0  0.00000000000E+00  0.00000000000E+00  0.13914390213E+04  0.13914390213E+04  0.00000000000E+00 0. -1.
         -2   -1    0    0    0  501 -0.00000000000E+00 -0.00000000000E+00 -0.92631949644E+03  0.92631949644E+03  0.00000000000E+00 0.  1.
         23    2    1    2    0    0 -0.26325196301E+03  0.82735737590E+03  0.97655237805E+03  0.13100951877E+04  0.94196762982E+02 0.  0.
         13    1    3    3    0    0 -0.15347122208E+03  0.37868739775E+03  0.40612448235E+03  0.57610299113E+03  0.00000000000E+00 0.  1.
        -13    1    3    3    0    0 -0.10978074094E+03  0.44866997816E+03  0.57042789569E+03  0.73399219653E+03  0.00000000000E+00 0. -1.
         22    1    1    2    0    0  0.26325196301E+03 -0.82735737590E+03 -0.51143285318E+03  0.10076633301E+04  0.00000000000E+00 0.  1.
<mgrwt>
<rscale>  0 0.22706097E+04</rscale>
<asrwt>0</asrwt>
<pdfrwt beam="1">  1        2 0.21406754E+00 0.22706097E+04</pdfrwt>
<pdfrwt beam="2">  1       -2 0.14251069E+00 0.22706097E+04</pdfrwt>
<totfact> 0.45613304E+00</totfact>
</mgrwt>
</event>
<event>
 6    1  0.1588846E-005  0.2037630E+04  0.7818608E-02  0.8589227E-01
         -2   -1    0    0    0  501 -0.00000000000E+00  0.00000000000E+00  0.39271036436E+03  0.39271036436E+03  0.00000000000E+00 0.  1.
          2   -1    0    0  501    0  0.00000000000E+00 -0.00000000000E+00 -0.26431295248E+04  0.26431295248E+04  0.00000000000E+00 0. -1.
         23    2    1    2    0    0 -0.13799519465E+03 -0.91636544304E+03 -0.50401494737E+03  0.10587976604E+04  0.90846681331E+02 0.  0.
         13    1    3    3    0    0 -0.87634231178E+02 -0.66724045652E+03 -0.40867363213E+03  0.78733964900E+03  0.00000000000E+00 0. -1.
        -13    1    3    3    0    0 -0.50360963469E+02 -0.24912498652E+03 -0.95341315243E+02  0.27145801138E+03  0.00000000000E+00 0.  1.
         22    1    1    2    0    0  0.13799519465E+03  0.91636544304E+03 -0.17464042131E+04  0.19770422288E+04  0.00000000000E+00 0. -1.
<mgrwt>
<rscale>  0 0.20376303E+04</rscale>
<asrwt>0</asrwt>
<pdfrwt beam="1">  1        2 0.40663531E+00 0.20376303E+04</pdfrwt>
<pdfrwt beam="2">  1       -2 0.60416980E-01 0.20376303E+04</pdfrwt>
<totfact> 0.67905750E+00</totfact>
</mgrwt>
</event>
<event>
 6    1  0.1588846E-005  0.3470676E+04  0.7818608E-02  0.8120775E-01
          1   -1    0    0  501    0  0.00000000000E+00  0.00000000000E+00  0.16334432718E+04  0.16334432718E+04  0.00000000000E+00 0. -1.
         -1   -1    0    0    0  501 -0.00000000000E+00 -0.00000000000E+00 -0.18435892947E+04  0.18435892947E+04  0.00000000000E+00 0.  1.
         23    2    1    2    0    0 -0.51671551578E+03 -0.16428474799E+04 -0.31112041987E+03  0.17518837046E+04  0.79736016379E+02 0.  0.
         11    1    3    3    0    0 -0.12779484908E+03 -0.31430854793E+03 -0.45467991305E+02  0.34232838765E+03  0.00000000000E+00 0.  1.
        -11    1    3    3    0    0 -0.38892066670E+03 -0.13285389320E+04 -0.26565242856E+03  0.14095553170E+04  0.00000000000E+00 0. -1.
         22    1    1    2    0    0  0.51671551578E+03  0.16428474799E+04  0.10097439698E+03  0.17251488618E+04  0.00000000000E+00 0. -1.
<mgrwt>
<rscale>  0 0.34706763E+04</rscale>
<asrwt>0</asrwt>
<pdfrwt beam="1">  1        1 0.25129897E+00 0.34706763E+04</pdfrwt>
<pdfrwt beam="2">  1       -1 0.28362912E+00 0.34706763E+04</pdfrwt>
<totfact> 0.18250246E-01</totfact>
</mgrwt>
</event>
<event>
 6    1  0.1588846E-005  0.2071191E+04  0.7818608E-02  0.8574041E-01
          1   -1    0    0  501    0  0.00000000000E+00  0.00000000000E+00  0.35710219624E+04  0.35710219624E+04  0.00000000000E+00 0. -1.
         -1   -1    0    0    0  501 -0.00000000000E+00 -0.00000000000E+00 -0.30032245921E+03  0.30032245921E+03  0.00000000000E+00 0.  1.
         23    2    1    2    0    0  0.46463255277E+03 -0.72852570448E+03  0.26984968172E+04  0.28349810563E+04  0.92732980866E+02 0.  0.
         11    1    3    3    0    0  0.16355817468E+03 -0.20364397979E+03  0.92041845209E+03  0.95676134640E+03  0.00000000000E+00 0.  1.
        -11    1    3    3    0    0  0.30107437809E+03 -0.52488172469E+03  0.17780783652E+04  0.18782197099E+04  0.00000000000E+00 0. -1.
         22    1    1    2    0    0 -0.46463255277E+03  0.72852570448E+03  0.57220268595E+03  0.10363633653E+04  0.00000000000E+00 0.  1.
<mgrwt>
<rscale>  0 0.20711911E+04</rscale>
<asrwt>0</asrwt>
<pdfrwt beam="1">  1        1 0.54938797E+00 0.20711911E+04</pdfrwt>
<pdfrwt beam="2">  1       -1 0.46203458E-01 0.20711911E+04</pdfrwt>
<totfact> 0.94703470E-01</totfact>
</mgrwt>
</event>
<event>
 6    1  0.1588846E-005  0.1629032E+04  0.7818608E-02  0.8802908E-01
          1   -1    0    0  501    0  0.00000000000E+00  0.00000000000E+00  0.94440249853E+03  0.94440249853E+03  0.00000000000E+00 0. -1.
         -1   -1    0    0    0  501 -0.00000000000E+00 -0.00000000000E+00 -0.70249354680E+03  0.70249354680E+03  0.00000000000E+00 0.  1.
         23    2    1    2    0    0  0.35756957426E+03  0.27798587181E+03  0.80257385210E+03  0.92614832534E+03  0.92161744229E+02 0.  0.
         11    1    3    3    0    0  0.17333211750E+03  0.14940269697E+03  0.31545617789E+03  0.38971500996E+03  0.00000000000E+00 0.  1.
        -11    1    3    3    0    0  0.18423745676E+03  0.12858317484E+03  0.48711767421E+03  0.53643331538E+03  0.00000000000E+00 0. -1.
         22    1    1    2    0    0 -0.35756957426E+03 -0.27798587181E+03 -0.56066490036E+03  0.72074771999E+03  0.00000000000E+00 0.  1.
<mgrwt>
<rscale>  0 0.16290324E+04</rscale>
<asrwt>0</asrwt>
<pdfrwt beam="1">  1        1 0.14529269E+00 0.16290324E+04</pdfrwt>
<pdfrwt beam="2">  1       -1 0.10807593E+00 0.16290324E+04</pdfrwt>
<totfact> 0.12758233E+01</totfact>
</mgrwt>
</event>
<event>
 6    1  0.1588846E-005  0.1726557E+04  0.7818608E-02  0.8746361E-01
         -2   -1    0    0    0  501 -0.00000000000E+00  0.00000000000E+00  0.86877631969E+03  0.86877631969E+03  0.00000000000E+00 0.  1.
          2   -1    0    0  501    0  0.00000000000E+00 -0.00000000000E+00 -0.85781548561E+03  0.85781548561E+03  0.00000000000E+00 0. -1.
         23    2    1    2    0    0 -0.67110950529E+03 -0.16129466994E+03 -0.50905574871E+03  0.86240364002E+03  0.90544709327E+02 0.  0.
         13    1    3    3    0    0 -0.13840145255E+03 -0.65950660132E+02 -0.88417744438E+02  0.17698064631E+03  0.00000000000E+00 0.  1.
        -13    1    3    3    0    0 -0.53270805274E+03 -0.95344009811E+02 -0.42063800427E+03  0.68542299370E+03  0.00000000000E+00 0. -1.
         22    1    1    2    0    0  0.67110950529E+03  0.16129466994E+03  0.52001658279E+03  0.86418816529E+03  0.00000000000E+00 0. -1.
<mgrwt>
<rscale>  0 0.17265570E+04</rscale>
<asrwt>0</asrwt>
<pdfrwt beam="1">  1        2 0.13197161E+00 0.17265570E+04</pdfrwt>
<pdfrwt beam="2">  1       -2 0.13365790E+00 0.17265570E+04</pdfrwt>
<totfact> 0.12043239E+01</totfact>
</mgrwt>
</event>
<event>
 6    1  0.1588846E-005  0.1719356E+04  0.7818608E-02  0.8750401E-01
         -3   -1    0    0    0  501 -0.00000000000E+00  0.00000000000E+00  0.86302450683E+03  0.86302450683E+03  0.00000000000E+00 0.  1.
          3   -1    0    0  501    0  0.00000000000E+00 -0.00000000000E+00 -0.85634417263E+03  0.85634417263E+03  0.00000000000E+00 0. -1.
         23    2    1    2    0    0  0.73560157224E+03  0.42440833054E+03 -0.11282491884E+03  0.86174777859E+03  0.92992835686E+02 0.  0.
         13    1    3    3    0    0  0.61085299774E+03  0.38918297498E+03 -0.86107306385E+02  0.72939649099E+03  0.00000000000E+00 0. -1.
        -13    1    3    3    0    0  0.12474857450E+03  0.35225355559E+02 -0.26717612456E+02  0.13235128760E+03  0.00000000000E+00 0.  1.
         22    1    1    2    0    0 -0.73560157224E+03 -0.42440833054E+03  0.11950525304E+03  0.85762090087E+03  0.00000000000E+00 0. -1.
<mgrwt>
<rscale>  0 0.17193557E+04</rscale>
<asrwt>0</asrwt>
<pdfrwt beam="1">  1        3 0.13174526E+00 0.17193557E+04</pdfrwt>
<pdfrwt beam="2">  1       -3 0.13277300E+00 0.17193557E+04</pdfrwt>
<totfact> 0.49252221E-01</totfact>
</mgrwt>
</event>
<event>
 6    1  0.1810497E-005  0.2382793E+04  0.7818608E-02  0.8445974E-01
          2   -1    0    0  501    0  0.00000000000E+00  0.00000000000E+00  0.15704410671E+04  0.15704410671E+04  0.00000000000E+00 0. -1.
         -2   -1    0    0    0  501 -0.00000000000E+00 -0.00000000000E+00 -0.90383880339E+03  0.90383880339E+03  0.00000000000E+00 0.  1.
         23    2    1    2    0    0  0.26162656668E+02  0.37342140017E+03 -0.83875070722E+03  0.92308175490E+03  0.91919261622E+02 0.  0.
         13    1    3    3    0    0  0.20284290643E+02  0.28938874238E+03 -0.54383758559E+03  0.61637376336E+03  0.00000000000E+00 0.  1.
        -13    1    3    3    0    0  0.58783660255E+01  0.84032657793E+02 -0.29491312163E+03  0.30670799154E+03  0.00000000000E+00 0. -1.
         22    1    1    2    0    0 -0.26162656668E+02 -0.37342140017E+03  0.15053529709E+04  0.15511981156E+04  0.00000000000E+00 0. -1.
<mgrwt>
<rscale>  0 0.23827930E+04</rscale>
<asrwt>0</asrwt>
<pdfrwt beam="1">  1        2 0.24160632E+00 0.23827930E+04</pdfrwt>
<pdfrwt beam="2">  1       -2 0.13905212E+00 0.23827930E+04</pdfrwt>
<totfact> 0.38144664E+00</totfact>
</mgrwt>
</event>
<event>
 6    1  0.1588846E-005  0.2161020E+04  0.7818608E-02  0.8534830E-01
         -1   -1    0    0    0  501 -0.00000000000E+00  0.00000000000E+00  0.74861104362E+03  0.74861104362E+03  0.00000000000E+00 0.  1.
          1   -1    0    0  501    0  0.00000000000E+00 -0.00000000000E+00 -0.15595567305E+04  0.15595567305E+04  0.00000000000E+00 0. -1.
         23    2    1    2    0    0  0.46942768103E+03 -0.63761082536E+03  0.37606729824E+03  0.88131468455E+03  0.91537140355E+02 0.  0.
         11    1    3    3    0    0  0.14754118086E+03 -0.24658811106E+03  0.98476078679E+02  0.30376246417E+03  0.00000000000E+00 0.  1.
        -11    1    3    3    0    0  0.32188650017E+03 -0.39102271430E+03  0.27759121957E+03  0.57755222038E+03  0.00000000000E+00 0. -1.
         22    1    1    2    0    0 -0.46942768103E+03  0.63761082536E+03 -0.11870129851E+04  0.14268530895E+04  0.00000000000E+00 0. -1.
<mgrwt>
<rscale>  0 0.21610196E+04</rscale>
<asrwt>0</asrwt>
<pdfrwt beam="1">  1        1 0.23993180E+00 0.21610196E+04</pdfrwt>
<pdfrwt beam="2">  1       -1 0.11517093E+00 0.21610196E+04</pdfrwt>
<totfact> 0.37225373E+00</totfact>
</mgrwt>
</event>
<event>
 6    1  0.1588846E-005  0.1623057E+04  0.7818608E-02  0.8806507E-01
         -2   -1    0    0    0  501 -0.00000000000E+00  0.00000000000E+00  0.42280446447E+03  0.42280446447E+03  0.00000000000E+00 0. -1.
          2   -1    0    0  501    0  0.00000000000E+00 -0.00000000000E+00 -0.15576424275E+04  0.15576424275E+04  0.00000000000E+00 0.  1.
         23    2    1    2    0    0 -0.10502613399E+02 -0.75866871302E+02 -0.15519310724E+04  0.15563799763E+04  0.89232785171E+02 0.  0.
         11    1    3    3    0    0 -0.38612017099E+02 -0.43106117855E+02 -0.12543529881E+04  0.12556872397E+04  0.00000000000E+00 0.  1.
        -11    1    3    3    0    0  0.28109403699E+02 -0.32760753447E+02 -0.29757808431E+03  0.30069273654E+03  0.00000000000E+00 0. -1.
         22    1    1    2    0    0  0.10502613399E+02  0.75866871302E+02  0.41709310941E+03  0.42406691567E+03  0.00000000000E+00 0. -1.
<mgrwt>
<rscale>  0 0.16230566E+04</rscale>
<asrwt>0</asrwt>
<pdfrwt beam="1">  1        2 0.23963730E+00 0.16230566E+04</pdfrwt>
<pdfrwt beam="2">  1       -2 0.65046840E-01 0.16230566E+04</pdfrwt>
<totfact> 0.24575015E+01</totfact>
</mgrwt>
</event>
<event>
 6    1  0.1588846E-005  0.2302593E+04  0.7818608E-02  0.8476899E-01
          2   -1    0    0  501    0  0.00000000000E+00  0.00000000000E+00  0.23381872031E+04  0.23381872031E+04  0.00000000000E+00 0.  1.
         -2   -1    0    0    0  501 -0.00000000000E+00 -0.00000000000E+00 -0.56688515356E+03  0.56688515356E+03  0.00000000000E+00 0. -1.
         23    2    1    2    0    0 -0.59035383342E+00  0.11361296197E+04  0.11058697168E+04  0.15884133079E+04  0.96530538822E+02 0.  0.
         11    1    3    3    0    0  0.45349806918E+02  0.39875487180E+03  0.37958257675E+03  0.55239929882E+03  0.00000000000E+00 0. -1.
        -11    1    3    3    0    0 -0.45940160752E+02  0.73737474787E+03  0.72628714002E+03  0.10360140090E+04  0.00000000000E+00 0.  1.
         22    1    1    2    0    0  0.59035383342E+00 -0.11361296197E+04  0.66543233275E+03  0.13166590488E+04  0.00000000000E+00 0.  1.
<mgrwt>
<rscale>  0 0.23025930E+04</rscale>
<asrwt>0</asrwt>
<pdfrwt beam="1">  1        2 0.35972110E+00 0.23025930E+04</pdfrwt>
<pdfrwt beam="2">  1       -2 0.87213102E-01 0.23025930E+04</pdfrwt>
<totfact> 0.44405497E+00</totfact>
</mgrwt>
</event>
<event>
 6    1  0.1588846E-005  0.2929380E+04  0.7818608E-02  0.8264189E-01
          2   -1    0    0  501    0  0.00000000000E+00  0.00000000000E+00  0.12087877021E+04  0.12087877021E+04  0.00000000000E+00 0. -1.
         -2   -1    0    0    0  501 -0.00000000000E+00 -0.00000000000E+00 -0.17747672318E+04  0.17747672318E+04  0.00000000000E+00 0.  1.
         23    2    1    2    0    0  0.11296294494E+04  0.46578417135E+03  0.53667476808E+03  0.13376922155E+04  0.91559103571E+02 0.  0.
         11    1    3    3    0    0  0.50911721025E+03  0.18735336145E+03  0.19413816819E+03  0.57618681360E+03  0.00000000000E+00 0. -1.
        -11    1    3    3    0    0  0.62051223917E+03  0.27843080989E+03  0.34253659990E+03  0.76150540190E+03  0.00000000000E+00 0.  1.
         22    1    1    2    0    0 -0.11296294494E+04 -0.46578417135E+03 -0.11026542978E+04  0.16458627184E+04  0.00000000000E+00 0. -1.
<mgrwt>
<rscale>  0 0.29293800E+04</rscale>
<asrwt>0</asrwt>
<pdfrwt beam="1">  1        2 0.18596734E+00 0.29293800E+04</pdfrwt>
<pdfrwt beam="2">  1       -2 0.27304111E+00 0.29293800E+04</pdfrwt>
<totfact> 0.74817972E-01</totfact>
</mgrwt>
</event>
<event>
 6    1  0.1588846E-005  0.2551675E+04  0.7818608E-02  0.8384804E-01
         -1   -1    0    0    0  501 -0.00000000000E+00  0.00000000000E+00  0.10090301127E+04  0.10090301127E+04  0.00000000000E+00 0.  1.
          1   -1    0    0  501    0  0.00000000000E+00 -0.00000000000E+00 -0.16131940010E+04  0.16131940010E+04  0.00000000000E+00 0. -1.
         23    2    1    2    0    0 -0.23276757532E+03 -0.10724719464E+04  0.36300913653E+03  0.11594184261E+04  0.89992408878E+02 0.  0.
         13    1    3    3    0    0 -0.96068034517E+02 -0.59000252176E+03  0.23117977536E+03  0.64091819406E+03  0.00000000000E+00 0. -1.
        -13    1    3    3    0    0 -0.13669954081E+03 -0.48246942463E+03  0.13182936117E+03  0.51850023204E+03  0.00000000000E+00 0.  1.
         22    1    1    2    0    0  0.23276757532E+03  0.10724719464E+04 -0.96717302481E+03  0.14628056877E+04  0.00000000000E+00 0.  1.
<mgrwt>
<rscale>  0 0.25516750E+04</rscale>
<asrwt>0</asrwt>
<pdfrwt beam="1">  1        1 0.24818369E+00 0.25516750E+04</pdfrwt>
<pdfrwt beam="2">  1       -1 0.15523540E+00 0.25516750E+04</pdfrwt>
<totfact> 0.15360624E+00</totfact>
</mgrwt>
</event>
<event>
 6    1  0.1588846E-005  0.9577963E+03  0.7818608E-02  0.9356084E-01
          2   -1    0    0  501    0  0.00000000000E+00  0.00000000000E+00  0.10461212071E+04  0.10461212071E+04  0.00000000000E+00 0. -1.
         -2   -1    0    0    0  501 -0.00000000000E+00 -0.00000000000E+00 -0.21923217909E+03  0.21923217909E+03  0.00000000000E+00 0.  1.
         23    2    1    2    0    0 -0.39685760263E+03 -0.24598742909E+03  0.30137972313E+03  0.56238411124E+03  0.86257631679E+02 0.  0.
         13    1    3    3    0    0 -0.26079206614E+03 -0.20404402766E+03  0.22950097109E+03  0.40288604185E+03  0.00000000000E+00 0.  1.
        -13    1    3    3    0    0 -0.13606553649E+03 -0.41943401429E+02  0.71878752043E+02  0.15949806939E+03  0.00000000000E+00 0. -1.
         22    1    1    2    0    0  0.39685760263E+03  0.24598742909E+03  0.52550930492E+03  0.70296927500E+03  0.00000000000E+00 0.  1.
<mgrwt>
<rscale>  0 0.95779629E+03</rscale>
<asrwt>0</asrwt>
<pdfrwt beam="1">  1        2 0.16094172E+00 0.95779629E+03</pdfrwt>
<pdfrwt beam="2">  1       -2 0.33728028E-01 0.95779629E+03</pdfrwt>
<totfact> 0.19335856E+02</totfact>
</mgrwt>
</event>
<event>
 6    1  0.1588846E-005  0.3174654E+04  0.7818608E-02  0.8195543E-01
          1   -1    0    0  501    0  0.00000000000E+00  0.00000000000E+00  0.10759720914E+04  0.10759720914E+04  0.00000000000E+00 0. -1.
         -1   -1    0    0    0  501 -0.00000000000E+00 -0.00000000000E+00 -0.23417026827E+04  0.23417026827E+04  0.00000000000E+00 0.  1.
         23    2    1    2    0    0 -0.11304796224E+04  0.11122979403E+04 -0.61361397138E+03  0.17029016199E+04  0.90337901367E+02 0.  0.
         11    1    3    3    0    0 -0.31820867291E+03  0.27937745712E+03 -0.19826425290E+03  0.46756522223E+03  0.00000000000E+00 0.  1.
        -11    1    3    3    0    0 -0.81227094948E+03  0.83292048322E+03 -0.41534971848E+03  0.12353363977E+04  0.00000000000E+00 0. -1.
         22    1    1    2    0    0  0.11304796224E+04 -0.11122979403E+04 -0.65211661989E+03  0.17147731543E+04  0.00000000000E+00 0.  1.
<mgrwt>
<rscale>  0 0.31746538E+04</rscale>
<asrwt>0</asrwt>
<pdfrwt beam="1">  1        1 0.16553417E+00 0.31746538E+04</pdfrwt>
<pdfrwt beam="2">  1       -1 0.36026194E+00 0.31746538E+04</pdfrwt>
<totfact> 0.14711683E-01</totfact>
</mgrwt>
</event>
<event>
 6    1  0.1588846E-005  0.1143680E+04  0.7818608E-02  0.9163634E-01
         -1   -1    0    0    0  501 -0.00000000000E+00  0.00000000000E+00  0.14485597132E+03  0.14485597132E+03  0.00000000000E+00 0.  1.
          1   -1    0    0  501    0  0.00000000000E+00 -0.00000000000E+00 -0.22574195831E+04  0.22574195831E+04  0.00000000000E+00 0. -1.
         23    2    1    2    0    0 -0.17468733105E+03  0.51614374324E+03 -0.13986148563E+04  0.15041425728E+04  0.96960484624E+02 0.  0.
         11    1    3    3    0    0 -0.10411790646E+03  0.31634490170E+03 -0.97834945844E+03  0.10334806714E+04  0.00000000000E+00 0.  1.
        -11    1    3    3    0    0 -0.70569424590E+02  0.19979884154E+03 -0.42026539791E+03  0.47066190142E+03  0.00000000000E+00 0. -1.
         22    1    1    2    0    0  0.17468733105E+03 -0.51614374324E+03 -0.71394875544E+03  0.89813298164E+03  0.00000000000E+00 0. -1.
<mgrwt>
<rscale>  0 0.11436795E+04</rscale>
<asrwt>0</asrwt>
<pdfrwt beam="1">  1        1 0.34729532E+00 0.11436795E+04</pdfrwt>
<pdfrwt beam="2">  1       -1 0.22285534E-01 0.11436795E+04</pdfrwt>
<totfact> 0.33868101E+01</totfact>
</mgrwt>
</event>
<event>
 6    1  0.1588846E-005  0.9087870E+03  0.7818608E-02  0.9414663E-01
          2   -1    0    0  501    0  0.00000000000E+00  0.00000000000E+00  0.31086362493E+03  0.31086362493E+03  0.00000000000E+00 0. -1.
         -2   -1    0    0    0  501 -0.00000000000E+00 -0.00000000000E+00 -0.66419304561E+03  0.66419304561E+03  0.00000000000E+00 0.  1.
         23    2    1    2    0    0  0.44398385465E+03  0.59842523140E+02 -0.14186324076E+03  0.47965709846E+03  0.96140325911E+02 0.  0.
         11    1    3    3    0    0  0.30338752874E+03  0.64668294764E+02 -0.13641317475E+03  0.33887244678E+03  0.00000000000E+00 0.  1.
        -11    1    3    3    0    0  0.14059632590E+03 -0.48257716232E+01 -0.54500660096E+01  0.14078465168E+03  0.00000000000E+00 0. -1.
         22    1    1    2    0    0 -0.44398385465E+03 -0.59842523140E+02 -0.21146617993E+03  0.49539957208E+03  0.00000000000E+00 0. -1.
<mgrwt>
<rscale>  0 0.90878701E+03</rscale>
<asrwt>0</asrwt>
<pdfrwt beam="1">  1        2 0.47825173E-01 0.90878701E+03</pdfrwt>
<pdfrwt beam="2">  1       -2 0.10218354E+00 0.90878701E+03</pdfrwt>
<totfact> 0.83027774E+01</totfact>
</mgrwt>
</event>
<event>
 6    1  0.1588846E-005  0.3801850E+04  0.7818608E-02  0.8045758E-01
         -2   -1    0    0    0  501 -0.00000000000E+00  0.00000000000E+00  0.13644606661E+04  0.13644606661E+04  0.00000000000E+00 0. -1.
          2   -1    0    0  501    0  0.00000000000E+00 -0.00000000000E+00 -0.26483105596E+04  0.26483105596E+04  0.00000000000E+00 0.  1.
         23    2    1    2    0    0  0.10996276545E+04 -0.15476253884E+04 -0.71776649160E+03  0.20316665493E+04  0.90304538418E+02 0.  0.
         11    1    3    3    0    0  0.49373569223E+03 -0.71594999040E+03 -0.37513150885E+03  0.94714464126E+03  0.00000000000E+00 0. -1.
        -11    1    3    3    0    0  0.60589196227E+03 -0.83167539796E+03 -0.34263498274E+03  0.10845219080E+04  0.00000000000E+00 0.  1.
         22    1    1    2    0    0 -0.10996276545E+04  0.15476253884E+04 -0.56608340187E+03  0.19811046765E+04  0.00000000000E+00 0.  1.
<mgrwt>
<rscale>  0 0.38018499E+04</rscale>
<asrwt>0</asrwt>
<pdfrwt beam="1">  1        2 0.40743239E+00 0.38018499E+04</pdfrwt>
<pdfrwt beam="2">  1       -2 0.20991703E+00 0.38018499E+04</pdfrwt>
<totfact> 0.26191664E-01</totfact>
</mgrwt>
</event>
<event>
 6    1  0.1588846E-005  0.1019230E+04  0.7818608E-02  0.9287702E-01
         -1   -1    0    0    0  501 -0.00000000000E+00  0.00000000000E+00  0.34578827621E+03  0.34578827621E+03  0.00000000000E+00 0.  1.
          1   -1    0    0  501    0  0.00000000000E+00 -0.00000000000E+00 -0.75105916008E+03  0.75105916008E+03  0.00000000000E+00 0. -1.
         23    2    1    2    0    0 -0.40132293512E+03 -0.30662008181E+03 -0.18210554238E+03  0.54468917775E+03  0.91912452767E+02 0.  0.
         11    1    3    3    0    0 -0.79355609871E+02 -0.19107426081E+02 -0.32186016763E+02  0.87740220108E+02  0.00000000000E+00 0. -1.
        -11    1    3    3    0    0 -0.32196732525E+03 -0.28751265573E+03 -0.14991952562E+03  0.45694895765E+03  0.00000000000E+00 0.  1.
         22    1    1    2    0    0  0.40132293512E+03  0.30662008181E+03 -0.22316534149E+03  0.55215825853E+03  0.00000000000E+00 0.  1.
<mgrwt>
<rscale>  0 0.10192300E+04</rscale>
<asrwt>0</asrwt>
<pdfrwt beam="1">  1        1 0.11554756E+00 0.10192300E+04</pdfrwt>
<pdfrwt beam="2">  1       -1 0.53198197E-01 0.10192300E+04</pdfrwt>
<totfact> 0.87207566E+01</totfact>
</mgrwt>
</event>
<event>
 6    1  0.1588846E-005  0.2438354E+04  0.7818608E-02  0.8425282E-01
          2   -1    0    0  501    0  0.00000000000E+00  0.00000000000E+00  0.11379257757E+04  0.11379257757E+04  0.00000000000E+00 0. -1.
         -2   -1    0    0    0  501 -0.00000000000E+00 -0.00000000000E+00 -0.13062298165E+04  0.13062298165E+04  0.00000000000E+00 0.  1.
         23    2    1    2    0    0  0.10562903655E+04  0.47551901154E+03 -0.45985739952E+03  0.12496385235E+04  0.90884239117E+02 0.  0.
         11    1    3    3    0    0  0.85038561799E+03  0.42129785789E+03 -0.37489091646E+03  0.10203875654E+04  0.00000000000E+00 0. -1.
        -11    1    3    3    0    0  0.20590474749E+03  0.54221153646E+02 -0.84966483058E+02  0.22925095809E+03  0.00000000000E+00 0.  1.
         22    1    1    2    0    0 -0.10562903655E+04 -0.47551901154E+03  0.29155335865E+03  0.11945170687E+04  0.00000000000E+00 0.  1.
<mgrwt>
<rscale>  0 0.24383540E+04</rscale>
<asrwt>0</asrwt>
<pdfrwt beam="1">  1        2 0.17506550E+00 0.24383540E+04</pdfrwt>
<pdfrwt beam="2">  1       -2 0.20095843E+00 0.24383540E+04</pdfrwt>
<totfact> 0.24261989E+00</totfact>
</mgrwt>
</event>
<event>
 6    1  0.1588846E-005  0.9054993E+03  0.7818608E-02  0.9418733E-01
          2   -1    0    0  501    0  0.00000000000E+00  0.00000000000E+00  0.23921966693E+03  0.23921966693E+03  0.00000000000E+00 0. -1.
         -2   -1    0    0    0  501 -0.00000000000E+00 -0.00000000000E+00 -0.85687872239E+03  0.85687872239E+03  0.00000000000E+00 0.  1.
         23    2    1    2    0    0 -0.33593861358E+03  0.28161192258E+03 -0.41858787784E+03  0.61465331375E+03  0.10209239730E+03 0.  0.
         13    1    3    3    0    0 -0.60075910415E+02  0.96110482366E+01 -0.38934024751E+02  0.72231195087E+02  0.00000000000E+00 0. -1.
        -13    1    3    3    0    0 -0.27586270316E+03  0.27200087434E+03 -0.37965385309E+03  0.54242211866E+03  0.00000000000E+00 0.  1.
         22    1    1    2    0    0  0.33593861358E+03 -0.28161192258E+03 -0.19907117762E+03  0.48144507557E+03  0.00000000000E+00 0. -1.
<mgrwt>
<rscale>  0 0.90549929E+03</rscale>
<asrwt>0</asrwt>
<pdfrwt beam="1">  1        2 0.36803026E-01 0.90549929E+03</pdfrwt>
<pdfrwt beam="2">  1       -2 0.13182750E+00 0.90549929E+03</pdfrwt>
<totfact> 0.59413789E+01</totfact>
</mgrwt>
</event>
<event>
 6    1  0.1588846E-005  0.4240459E+04  0.7818608E-02  0.7957720E-01
          1   -1    0    0  501    0  0.00000000000E+00  0.00000000000E+00  0.37589161589E+04  0.37589161589E+04  0.00000000000E+00 0. -1.
         -1   -1    0    0    0  501 -0.00000000000E+00 -0.00000000000E+00 -0.11959228862E+04  0.11959228862E+04  0.00000000000E+00 0.  1.
         23    2    1    2    0    0 -0.28210012865E+03 -0.19878037517E+04  0.20748568750E+04  0.28886296219E+04  0.90585886259E+02 0.  0.
         13    1    3    3    0    0 -0.23194850177E+03 -0.17186605487E+04  0.18320080547E+04  0.25226667838E+04  0.00000000000E+00 0. -1.
        -13    1    3    3    0    0 -0.50151626884E+02 -0.26914320297E+03  0.24284882028E+03  0.36596283813E+03  0.00000000000E+00 0.  1.
         22    1    1    2    0    0  0.28210012865E+03  0.19878037517E+04  0.48813639769E+03  0.20662094232E+04  0.00000000000E+00 0.  1.
<mgrwt>
<rscale>  0 0.42404593E+04</rscale>
<asrwt>0</asrwt>
<pdfrwt beam="1">  1        1 0.57829479E+00 0.42404593E+04</pdfrwt>
<pdfrwt beam="2">  1       -1 0.18398814E+00 0.42404593E+04</pdfrwt>
<totfact> 0.23013731E-02</totfact>
</mgrwt>
</event>
<event>
 6    1  0.1588846E-005  0.3173589E+04  0.7818608E-02  0.8195827E-01
          1   -1    0    0  501    0  0.00000000000E+00  0.00000000000E+00  0.22287390817E+04  0.22287390817E+04  0.00000000000E+00 0. -1.
         -1   -1    0    0    0  501 -0.00000000000E+00 -0.00000000000E+00 -0.11297495031E+04  0.11297495031E+04  0.00000000000E+00 0.  1.
         23    2    1    2    0    0 -0.12375580676E+03  0.83759968040E+03  0.19685881266E+04  0.21447792460E+04  0.88600662269E+02 0.  0.
         13    1    3    3    0    0 -0.47332810351E+02  0.35179908394E+03  0.93651595156E+03  0.10015313864E+04  0.00000000000E+00 0.  1.
        -13    1    3    3    0    0 -0.76422996408E+02  0.48580059645E+03  0.10320721751E+04  0.11432478596E+04  0.00000000000E+00 0. -1.
         22    1    1    2    0    0  0.12375580676E+03 -0.83759968040E+03 -0.86959854806E+03  0.12137093388E+04  0.00000000000E+00 0.  1.
<mgrwt>
<rscale>  0 0.31735891E+04</rscale>
<asrwt>0</asrwt>
<pdfrwt beam="1">  1        1 0.34288293E+00 0.31735891E+04</pdfrwt>
<pdfrwt beam="2">  1       -1 0.17380762E+00 0.31735891E+04</pdfrwt>
<totfact> 0.40289366E-01</totfact>
</mgrwt>
</event>
<event>
 6    1  0.1588846E-005  0.3174349E+04  0.7818608E-02  0.8195624E-01
          2   -1    0    0  501    0  0.00000000000E+00  0.00000000000E+00  0.24140320240E+04  0.24140320240E+04  0.00000000000E+00 0. -1.
         -2   -1    0    0    0  501 -0.00000000000E+00 -0.00000000000E+00 -0.10435335940E+04  0.10435335940E+04  0.00000000000E+00 0.  1.
         23    2    1    2    0    0  0.12158942711E+04 -0.32242513068E+03  0.17378968921E+04  0.21470930035E+04  0.85824908648E+02 0.  0.
         11    1    3    3    0    0  0.28988797716E+03 -0.41398875260E+02  0.38408057933E+03  0.48297701560E+03  0.00000000000E+00 0.  1.
        -11    1    3    3    0    0  0.92600629394E+03 -0.28102625542E+03  0.13538163128E+04  0.16641159879E+04  0.00000000000E+00 0. -1.
         22    1    1    2    0    0 -0.12158942711E+04  0.32242513068E+03 -0.36739846208E+03  0.13104726145E+04  0.00000000000E+00 0.  1.
<mgrwt>
<rscale>  0 0.31743494E+04</rscale>
<asrwt>0</asrwt>
<pdfrwt beam="1">  1        2 0.37138954E+00 0.31743494E+04</pdfrwt>
<pdfrwt beam="2">  1       -2 0.16054363E+00 0.31743494E+04</pdfrwt>
<totfact> 0.82174790E-01</totfact>
</mgrwt>
</event>
<event>
 6    1  0.1588846E-005  0.4454552E+04  0.7818608E-02  0.7918642E-01
          2   -1    0    0  501    0  0.00000000000E+00  0.00000000000E+00  0.23004304339E+04  0.23004304339E+04  0.00000000000E+00 0. -1.
         -2   -1    0    0    0  501 -0.00000000000E+00 -0.00000000000E+00 -0.21564474536E+04  0.21564474536E+04  0.00000000000E+00 0.  1.
         23    2    1    2    0    0 -0.13469470661E+04  0.17559010558E+04 -0.17125398562E+03  0.22215190212E+04  0.91454455245E+02 0.  0.
         13    1    3    3    0    0 -0.10122923996E+04  0.13340509467E+04 -0.91141358514E+02  0.16771209193E+04  0.00000000000E+00 0. -1.
        -13    1    3    3    0    0 -0.33465466643E+03  0.42185010906E+03 -0.80112627109E+02  0.54439810185E+03  0.00000000000E+00 0.  1.
         22    1    1    2    0    0  0.13469470661E+04 -0.17559010558E+04  0.31523696594E+03  0.22353588663E+04  0.00000000000E+00 0. -1.
<mgrwt>
<rscale>  0 0.44545515E+04</rscale>
<asrwt>0</asrwt>
<pdfrwt beam="1">  1        2 0.35391238E+00 0.44545515E+04</pdfrwt>
<pdfrwt beam="2">  1       -2 0.33176114E+00 0.44545515E+04</pdfrwt>
<totfact> 0.69748250E-02</totfact>
</mgrwt>
</event>
<event>
 6    1  0.1588846E-005  0.4336230E+04  0.7818608E-02  0.7939953E-01
          2   -1    0    0  501    0  0.00000000000E+00  0.00000000000E+00  0.18415653509E+04  0.18415653509E+04  0.00000000000E+00 0. -1.
         -2   -1    0    0    0  501 -0.00000000000E+00 -0.00000000000E+00 -0.25525687582E+04  0.25525687582E+04  0.00000000000E+00 0.  1.
         23    2    1    2    0    0  0.14826741011E+04  0.12864890173E+04  0.57483928277E+03  0.20474837505E+04  0.91504241163E+02 0.  0.
         11    1    3    3    0    0  0.47990016951E+03  0.46565627704E+03  0.21890652884E+03  0.70360500951E+03  0.00000000000E+00 0.  1.
        -11    1    3    3    0    0  0.10027739316E+04  0.82083274021E+03  0.35593275392E+03  0.13438787410E+04  0.00000000000E+00 0. -1.
         22    1    1    2    0    0 -0.14826741011E+04 -0.12864890173E+04 -0.12858426901E+04  0.23466503586E+04  0.00000000000E+00 0.  1.
<mgrwt>
<rscale>  0 0.43362298E+04</rscale>
<asrwt>0</asrwt>
<pdfrwt beam="1">  1        2 0.28331775E+00 0.43362298E+04</pdfrwt>
<pdfrwt beam="2">  1       -2 0.39270289E+00 0.43362298E+04</pdfrwt>
<totfact> 0.52028508E-02</totfact>
</mgrwt>
</event>
<event>
 6    1  0.2809186E-005  0.4173457E+04  0.7818608E-02  0.7970441E-01
          2   -1    0    0  501    0  0.00000000000E+00  0.00000000000E+00  0.22985675314E+04  0.22985675314E+04  0.00000000000E+00 0. -1.
         -2   -1    0    0    0  501 -0.00000000000E+00 -0.00000000000E+00 -0.18944124933E+04  0.18944124933E+04  0.00000000000E+00 0.  1.
         23    2    1    2    0    0 -0.10200104758E+04 -0.11538163474E+04 -0.12110153986E+04  0.19612790873E+04  0.91344559243E+02 0.  0.
         11    1    3    3    0    0 -0.63210958014E+03 -0.65917165769E+03 -0.74948713984E+03  0.11814401248E+04  0.00000000000E+00 0. -1.
        -11    1    3    3    0    0 -0.38790089563E+03 -0.49464468976E+03 -0.46152825876E+03  0.77983896258E+03  0.00000000000E+00 0.  1.
         22    1    1    2    0    0  0.10200104758E+04  0.11538163474E+04  0.16151704367E+04  0.22317009374E+04  0.00000000000E+00 0. -1.
<mgrwt>
<rscale>  0 0.41734566E+04</rscale>
<asrwt>0</asrwt>
<pdfrwt beam="1">  1        2 0.35362577E+00 0.41734566E+04</pdfrwt>
<pdfrwt beam="2">  1       -2 0.29144808E+00 0.41734566E+04</pdfrwt>
<totfact> 0.12668580E-01</totfact>
</mgrwt>
</event>
<event>
 6    1  0.1588846E-005  0.1995222E+04  0.7818608E-02  0.8608858E-01
         -2   -1    0    0    0  501 -0.00000000000E+00  0.00000000000E+00  0.99652508684E+03  0.99652508684E+03  0.00000000000E+00 0. -1.
          2   -1    0    0  501    0  0.00000000000E+00 -0.00000000000E+00 -0.99869819236E+03  0.99869819236E+03  0.00000000000E+00 0.  1.
         23    2    1    2    0    0  0.98971609482E+03 -0.68817282696E+00 -0.10926001832E+03  0.99973042196E+03  0.89357389576E+02 0.  0.
         11    1    3    3    0    0  0.80100921547E+03  0.34246491518E+02 -0.93395789470E+02  0.80716253564E+03  0.00000000000E+00 0.  1.
        -11    1    3    3    0    0  0.18870687934E+03 -0.34934664345E+02 -0.15864228851E+02  0.19256788632E+03  0.00000000000E+00 0. -1.
         22    1    1    2    0    0 -0.98971609482E+03  0.68817282696E+00  0.10708691281E+03  0.99549285724E+03  0.00000000000E+00 0.  1.
<mgrwt>
<rscale>  0 0.19952221E+04</rscale>
<asrwt>0</asrwt>
<pdfrwt beam="1">  1        2 0.15364587E+00 0.19952221E+04</pdfrwt>
<pdfrwt beam="2">  1       -2 0.15331155E+00 0.19952221E+04</pdfrwt>
<totfact> 0.66299681E+00</totfact>
</mgrwt>
</event>
<event>
 6    1  0.1588846E-005  0.9189296E+03  0.7818608E-02  0.9402223E-01
          2   -1    0    0  501    0  0.00000000000E+00  0.00000000000E+00  0.67108590358E+03  0.67108590358E+03  0.00000000000E+00 0. -1.
         -2   -1    0    0    0  501 -0.00000000000E+00 -0.00000000000E+00 -0.31457660383E+03  0.31457660383E+03  0.00000000000E+00 0.  1.
         23    2    1    2    0    0  0.61175059743E+01 -0.31233214900E+03 -0.17478535394E+03  0.36933239763E+03  0.90926920151E+02 0.  0.
         13    1    3    3    0    0  0.40862042920E+02 -0.25519732529E+03 -0.13656077248E+03  0.29230844320E+03  0.00000000000E+00 0.  1.
        -13    1    3    3    0    0 -0.34744536946E+02 -0.57134823718E+02 -0.38224581458E+02  0.77023954433E+02  0.00000000000E+00 0. -1.
         22    1    1    2    0    0 -0.61175059743E+01  0.31233214900E+03  0.53129465369E+03  0.61633010978E+03  0.00000000000E+00 0. -1.
<mgrwt>
<rscale>  0 0.91892965E+03</rscale>
<asrwt>0</asrwt>
<pdfrwt beam="1">  1        2 0.10324398E+00 0.91892965E+03</pdfrwt>
<pdfrwt beam="2">  1       -2 0.48396401E-01 0.91892965E+03</pdfrwt>
<totfact> 0.17514899E+02</totfact>
</mgrwt>
</event>
<event>
 6    1  0.1588846E-005  0.2637294E+04  0.7818608E-02  0.8355643E-01
          2   -1    0    0  501    0  0.00000000000E+00  0.00000000000E+00  0.23212798453E+04  0.23212798453E+04  0.00000000000E+00 0. -1.
         -2   -1    0    0    0  501 -0.00000000000E+00 -0.00000000000E+00 -0.74908218554E+03  0.74908218554E+03  0.00000000000E+00 0.  1.
         23    2    1    2    0    0  0.55386451962E+03 -0.11682576095E+04  0.49463845710E+03  0.13872917460E+04  0.91210948476E+02 0.  0.
         13    1    3    3    0    0  0.37859987888E+03 -0.69748340447E+03  0.29224833555E+03  0.84571275114E+03  0.00000000000E+00 0. -1.
        -13    1    3    3    0    0  0.17526464074E+03 -0.47077420504E+03  0.20239012155E+03  0.54157899491E+03  0.00000000000E+00 0.  1.
         22    1    1    2    0    0 -0.55386451962E+03  0.11682576095E+04  0.10775592026E+04  0.16830702848E+04  0.00000000000E+00 0.  1.
<mgrwt>
<rscale>  0 0.26372936E+04</rscale>
<asrwt>0</asrwt>
<pdfrwt beam="1">  1        2 0.35711997E+00 0.26372936E+04</pdfrwt>
<pdfrwt beam="2">  1       -2 0.11524341E+00 0.26372936E+04</pdfrwt>
<totfact> 0.22804516E+00</totfact>
</mgrwt>
</event>
<event>
 6    1  0.1588846E-005  0.1409135E+04  0.7818608E-02  0.8947233E-01
         -2   -1    0    0    0  501 -0.00000000000E+00  0.00000000000E+00  0.69638965401E+03  0.69638965401E+03  0.00000000000E+00 0.  1.
          2   -1    0    0  501    0  0.00000000000E+00 -0.00000000000E+00 -0.71284092405E+03  0.71284092405E+03  0.00000000000E+00 0. -1.
         23    2    1    2    0    0  0.55031679249E+03  0.29627665773E+03  0.31092442554E+03  0.70367882514E+03  0.88664877701E+02 0.  0.
         11    1    3    3    0    0  0.37624364962E+03  0.15449397539E+03  0.20331437393E+03  0.45471354384E+03  0.00000000000E+00 0. -1.
        -11    1    3    3    0    0  0.17407314287E+03  0.14178268235E+03  0.10761005161E+03  0.24896528129E+03  0.00000000000E+00 0.  1.
         22    1    1    2    0    0 -0.55031679249E+03 -0.29627665773E+03 -0.32737569558E+03  0.70555175293E+03  0.00000000000E+00 0. -1.
<mgrwt>
<rscale>  0 0.14091345E+04</rscale>
<asrwt>0</asrwt>
<pdfrwt beam="1">  1        2 0.10966783E+00 0.14091345E+04</pdfrwt>
<pdfrwt beam="2">  1       -2 0.10713687E+00 0.14091345E+04</pdfrwt>
<totfact> 0.27273434E+01</totfact>
</mgrwt>
</event>
<event>
 6    1  0.1588846E-005  0.7068063E+03  0.7818608E-02  0.9705663E-01
         -2   -1    0    0    0  501 -0.00000000000E+00  0.00000000000E+00  0.11762907275E+03  0.11762907275E+03  0.00000000000E+00 0.  1.
          2   -1    0    0  501    0  0.00000000000E+00 -0.00000000000E+00 -0.10617593629E+04  0.10617593629E+04  0.00000000000E+00 0. -1.
         23    2    1    2    0    0  0.21002561894E+03 -0.20284512076E+02 -0.20583705184E+02  0.23204450833E+03  0.94333148375E+02 0.  0.
         13    1    3    3    0    0  0.72869488084E+02 -0.41795961225E+02 -0.37856982739E+02  0.92141281793E+02  0.00000000000E+00 0. -1.
        -13    1    3    3    0    0  0.13715613086E+03  0.21511449149E+02  0.17273277555E+02  0.13990322653E+03  0.00000000000E+00 0.  1.
         22    1    1    2    0    0 -0.21002561894E+03  0.20284512076E+02 -0.92354658496E+03  0.94734392732E+03  0.00000000000E+00 0. -1.
<mgrwt>
<rscale>  0 0.70680625E+03</rscale>
<asrwt>0</asrwt>
<pdfrwt beam="1">  1        2 0.16334759E+00 0.70680625E+03</pdfrwt>
<pdfrwt beam="2">  1       -2 0.18096781E-01 0.70680625E+03</pdfrwt>
<totfact> 0.58905301E+02</totfact>
</mgrwt>
</event>
<event>
 6    1  0.1588846E-005  0.1956699E+04  0.7818608E-02  0.8627137E-01
          2   -1    0    0  501    0  0.00000000000E+00  0.00000000000E+00  0.94277018296E+03  0.94277018296E+03  0.00000000000E+00 0. -1.
         -2   -1    0    0    0  501 -0.00000000000E+00 -0.00000000000E+00 -0.10152719757E+04  0.10152719757E+04  0.00000000000E+00 0.  1.
         23    2    1    2    0    0  0.22694189047E+03  0.37445994158E+03  0.83677779716E+03  0.94882848351E+03  0.91408641808E+02 0.  0.
         13    1    3    3    0    0  0.16141151183E+03  0.17857075907E+03  0.44466761128E+03  0.50563868193E+03  0.00000000000E+00 0.  1.
        -13    1    3    3    0    0  0.65530378642E+02  0.19588918251E+03  0.39211018588E+03  0.44318980158E+03  0.00000000000E+00 0. -1.
         22    1    1    2    0    0 -0.22694189047E+03 -0.37445994158E+03 -0.90927958995E+03  0.10092136752E+04  0.00000000000E+00 0.  1.
<mgrwt>
<rscale>  0 0.19566994E+04</rscale>
<asrwt>0</asrwt>
<pdfrwt beam="1">  1        2 0.14504157E+00 0.19566994E+04</pdfrwt>
<pdfrwt beam="2">  1       -2 0.15619569E+00 0.19566994E+04</pdfrwt>
<totfact> 0.68800685E+00</totfact>
</mgrwt>
</event>
<event>
 6    1  0.1588846E-005  0.2777214E+04  0.7818608E-02  0.8310378E-01
          1   -1    0    0  501    0  0.00000000000E+00  0.00000000000E+00  0.22307349818E+04  0.22307349818E+04  0.00000000000E+00 0. -1.
         -1   -1    0    0    0  501 -0.00000000000E+00 -0.00000000000E+00 -0.86439182194E+03  0.86439182194E+03  0.00000000000E+00 0.  1.
         23    2    1    2    0    0  0.78049288441E+03  0.95664509971E+03  0.13885248271E+04  0.18602863218E+04  0.91241515795E+02 0.  0.
         13    1    3    3    0    0  0.38794146078E+03  0.48738282451E+03  0.76809778811E+03  0.98894631134E+03  0.00000000000E+00 0. -1.
        -13    1    3    3    0    0  0.39255142362E+03  0.46926227520E+03  0.62042703898E+03  0.87134001045E+03  0.00000000000E+00 0.  1.
         22    1    1    2    0    0 -0.78049288441E+03 -0.95664509971E+03 -0.22181667258E+02  0.12348404819E+04  0.00000000000E+00 0.  1.
<mgrwt>
<rscale>  0 0.27772138E+04</rscale>
<asrwt>0</asrwt>
<pdfrwt beam="1">  1        1 0.34319000E+00 0.27772138E+04</pdfrwt>
<pdfrwt beam="2">  1       -1 0.13298336E+00 0.27772138E+04</pdfrwt>
<totfact> 0.86176485E-01</totfact>
</mgrwt>
</event>
<event>
 6    1  0.1588846E-005  0.1017846E+04  0.7818608E-02  0.9289185E-01
         -1   -1    0    0    0  501 -0.00000000000E+00  0.00000000000E+00  0.39821848399E+03  0.39821848399E+03  0.00000000000E+00 0.  1.
          1   -1    0    0  501    0  0.00000000000E+00 -0.00000000000E+00 -0.65040358061E+03  0.65040358061E+03  0.00000000000E+00 0. -1.
         23    2    1    2    0    0 -0.28941099518E+03  0.14775416390E+03 -0.52513977212E+03  0.62424690987E+03  0.91227228060E+02 0.  0.
         13    1    3    3    0    0 -0.63146560484E+02 -0.21019861258E+01 -0.13434254290E+03  0.14845816003E+03  0.00000000000E+00 0. -1.
        -13    1    3    3    0    0 -0.22626443469E+03  0.14985615002E+03 -0.39079722922E+03  0.47578874984E+03  0.00000000000E+00 0.  1.
         22    1    1    2    0    0  0.28941099518E+03 -0.14775416390E+03  0.27295467549E+03  0.42437515473E+03  0.00000000000E+00 0.  1.
<mgrwt>
<rscale>  0 0.10178462E+04</rscale>
<asrwt>0</asrwt>
<pdfrwt beam="1">  1        1 0.10006209E+00 0.10178462E+04</pdfrwt>
<pdfrwt beam="2">  1       -1 0.61264382E-01 0.10178462E+04</pdfrwt>
<totfact> 0.82368806E+01</totfact>
</mgrwt>
</event>
<event>
 6    1  0.1588846E-005  0.2350675E+04  0.7818608E-02  0.8458204E-01
          2   -1    0    0  501    0  0.00000000000E+00  0.00000000000E+00  0.19414582937E+04  0.19414582937E+04  0.00000000000E+00 0. -1.
         -2   -1    0    0    0  501 -0.00000000000E+00 -0.00000000000E+00 -0.71153642533E+03  0.71153642533E+03  0.00000000000E+00 0.  1.
         23    2    1    2    0    0  0.74258873537E+03  0.10106449611E+03  0.16351759774E+04  0.18010070694E+04  0.90409760886E+02 0.  0.
         13    1    3    3    0    0  0.10552067173E+03 -0.96207193687E+01  0.18479739894E+03  0.21301936310E+03  0.00000000000E+00 0. -1.
        -13    1    3    3    0    0  0.63706806364E+03  0.11068521548E+03  0.14503785784E+04  0.15879877063E+04  0.00000000000E+00 0.  1.
         22    1    1    2    0    0 -0.74258873537E+03 -0.10106449611E+03 -0.40525410898E+03  0.85198764963E+03  0.00000000000E+00 0.  1.
<mgrwt>
<rscale>  0 0.23506750E+04</rscale>
<asrwt>0</asrwt>
<pdfrwt beam="1">  1        2 0.29868589E+00 0.23506750E+04</pdfrwt>
<pdfrwt beam="2">  1       -2 0.10946714E+00 0.23506750E+04</pdfrwt>
<totfact> 0.43223204E+00</totfact>
</mgrwt>
</event>
<event>
 6    1  0.1828657E-005  0.4111710E+04  0.7818608E-02  0.7982383E-01
         -2   -1    0    0    0  501 -0.00000000000E+00  0.00000000000E+00  0.17574990498E+04  0.17574990498E+04  0.00000000000E+00 0.  1.
          2   -1    0    0  501    0  0.00000000000E+00 -0.00000000000E+00 -0.24048608442E+04  0.24048608442E+04  0.00000000000E+00 0. -1.
         23    2    1    2    0    0 -0.16603793871E+04 -0.11979630147E+04 -0.50111725236E+03  0.21097121990E+04  0.88272125630E+02 0.  0.
         13    1    3    3    0    0 -0.77517063507E+03 -0.60690311589E+03 -0.26272163974E+03  0.10189423760E+04  0.00000000000E+00 0.  1.
        -13    1    3    3    0    0 -0.88520875205E+03 -0.59105989879E+03 -0.23839561262E+03  0.10907698230E+04  0.00000000000E+00 0. -1.
         22    1    1    2    0    0  0.16603793871E+04  0.11979630147E+04 -0.14624454202E+03  0.20526476950E+04  0.00000000000E+00 0.  1.
<mgrwt>
<rscale>  0 0.41117104E+04</rscale>
<asrwt>0</asrwt>
<pdfrwt beam="1">  1        2 0.36997859E+00 0.41117104E+04</pdfrwt>
<pdfrwt beam="2">  1       -2 0.27038447E+00 0.41117104E+04</pdfrwt>
<totfact> 0.14887455E-01</totfact>
</mgrwt>
</event>
<event>
 6    1  0.1588846E-005  0.3051329E+04  0.7818608E-02  0.8229223E-01
         -1   -1    0    0    0  501 -0.00000000000E+00  0.00000000000E+00  0.20781849419E+04  0.20781849419E+04  0.00000000000E+00 0.  1.
          1   -1    0    0  501    0  0.00000000000E+00 -0.00000000000E+00 -0.11200412631E+04  0.11200412631E+04  0.00000000000E+00 0. -1.
         23    2    1    2    0    0  0.24667654806E+03  0.55536699699E+03 -0.98598836647E+03  0.11613336624E+04  0.85094041540E+02 0.  0.
         13    1    3    3    0    0  0.12506301991E+03  0.37665507190E+03 -0.61406171423E+03  0.73115086748E+03  0.00000000000E+00 0.  1.
        -13    1    3    3    0    0  0.12161352815E+03  0.17871192509E+03 -0.37192665224E+03  0.43018279492E+03  0.00000000000E+00 0. -1.
         22    1    1    2    0    0 -0.24667654806E+03 -0.55536699699E+03  0.19441320452E+04  0.20368925426E+04  0.00000000000E+00 0.  1.
<mgrwt>
<rscale>  0 0.30513295E+04</rscale>
<asrwt>0</asrwt>
<pdfrwt beam="1">  1        1 0.17231404E+00 0.30513295E+04</pdfrwt>
<pdfrwt beam="2">  1       -1 0.31972076E+00 0.30513295E+04</pdfrwt>
<totfact> 0.25499850E-01</totfact>
</mgrwt>
</event>
<event>
 6    1  0.1588846E-005  0.1886915E+04  0.7818608E-02  0.8661397E-01
         -2   -1    0    0    0  501 -0.00000000000E+00  0.00000000000E+00  0.25511121102E+03  0.25511121102E+03  0.00000000000E+00 0.  1.
          2   -1    0    0  501    0  0.00000000000E+00 -0.00000000000E+00 -0.34891155221E+04  0.34891155221E+04  0.00000000000E+00 0. -1.
         23    2    1    2    0    0  0.51187735546E+03  0.71705282848E+03 -0.22776607963E+04  0.24439282658E+04  0.94146054298E+02 0.  0.
         13    1    3    3    0    0  0.35906641880E+02  0.40710486770E+02 -0.21244082804E+03  0.21926635876E+03  0.00000000000E+00 0.  1.
        -13    1    3    3    0    0  0.47597071358E+03  0.67634234171E+03 -0.20652199682E+04  0.22246619070E+04  0.00000000000E+00 0. -1.
         22    1    1    2    0    0 -0.51187735546E+03 -0.71705282848E+03 -0.95634351478E+03  0.13002984673E+04  0.00000000000E+00 0.  1.
<mgrwt>
<rscale>  0 0.18869155E+04</rscale>
<asrwt>0</asrwt>
<pdfrwt beam="1">  1        2 0.53678697E+00 0.18869155E+04</pdfrwt>
<pdfrwt beam="2">  1       -2 0.39247881E-01 0.18869155E+04</pdfrwt>
<totfact> 0.47942581E+00</totfact>
</mgrwt>
</event>
<event>
 6    1  0.1588846E-005  0.2783491E+04  0.7818608E-02  0.8308412E-01
         -1   -1    0    0    0  501 -0.00000000000E+00  0.00000000000E+00  0.10075833074E+04  0.10075833074E+04  0.00000000000E+00 0.  1.
          1   -1    0    0  501    0  0.00000000000E+00 -0.00000000000E+00 -0.19223778906E+04  0.19223778906E+04  0.00000000000E+00 0. -1.
         23    2    1    2    0    0 -0.48091572934E+03 -0.46127775637E+02  0.91441222628E+03  0.10380295761E+04  0.89151392499E+02 0.  0.
         11    1    3    3    0    0 -0.17220465693E+03 -0.59722080509E+02  0.34089596815E+03  0.38656336074E+03  0.00000000000E+00 0. -1.
        -11    1    3    3    0    0 -0.30871107241E+03  0.13594304872E+02  0.57351625813E+03  0.65146621531E+03  0.00000000000E+00 0.  1.
         22    1    1    2    0    0  0.48091572934E+03  0.46127775637E+02 -0.18292068094E+04  0.18919316219E+04  0.00000000000E+00 0. -1.
<mgrwt>
<rscale>  0 0.27834912E+04</rscale>
<asrwt>0</asrwt>
<pdfrwt beam="1">  1        1 0.29575044E+00 0.27834912E+04</pdfrwt>
<pdfrwt beam="2">  1       -1 0.15501282E+00 0.27834912E+04</pdfrwt>
<totfact> 0.93053998E-01</totfact>
</mgrwt>
</event>
<event>
 6    1  0.1588846E-005  0.1867051E+04  0.7818608E-02  0.8671433E-01
          2   -1    0    0  501    0  0.00000000000E+00  0.00000000000E+00  0.79402851353E+03  0.79402851353E+03  0.00000000000E+00 0. -1.
         -2   -1    0    0    0  501 -0.00000000000E+00 -0.00000000000E+00 -0.10975292597E+04  0.10975292597E+04  0.00000000000E+00 0.  1.
         23    2    1    2    0    0 -0.13653994891E+03 -0.32525326133E+03 -0.10253183445E+04  0.10881565741E+04  0.91510548982E+02 0.  0.
         11    1    3    3    0    0 -0.44071230750E+02 -0.13155174727E+03 -0.53915783962E+03  0.55672193384E+03  0.00000000000E+00 0. -1.
        -11    1    3    3    0    0 -0.92468718157E+02 -0.19370151406E+03 -0.48616050486E+03  0.53143464026E+03  0.00000000000E+00 0.  1.
         22    1    1    2    0    0  0.13653994891E+03  0.32525326133E+03  0.72181759827E+03  0.80340119917E+03  0.00000000000E+00 0. -1.
<mgrwt>
<rscale>  0 0.18670506E+04</rscale>
<asrwt>0</asrwt>
<pdfrwt beam="1">  1        2 0.12215823E+00 0.18670506E+04</pdfrwt>
<pdfrwt beam="2">  1       -2 0.16885066E+00 0.18670506E+04</pdfrwt>
<totfact> 0.70922728E+00</totfact>
</mgrwt>
</event>
<event>
 6    1  0.1588846E-005  0.3509415E+04  0.7818608E-02  0.8111562E-01
         -2   -1    0    0    0  501 -0.00000000000E+00  0.00000000000E+00  0.92401150475E+03  0.92401150475E+03  0.00000000000E+00 0.  1.
          2   -1    0    0  501    0  0.00000000000E+00 -0.00000000000E+00 -0.33322080768E+04  0.33322080768E+04  0.00000000000E+00 0. -1.
         23    2    1    2    0    0 -0.93742060710E+03  0.51297405643E+03 -0.28911585328E+04  0.30835508164E+04  0.87110267158E+02 0.  0.
         11    1    3    3    0    0 -0.41188411475E+03  0.27167931374E+03 -0.12869946666E+04  0.13783372031E+04  0.00000000000E+00 0.  1.
        -11    1    3    3    0    0 -0.52553649236E+03  0.24129474269E+03 -0.16041638661E+04  0.17052136133E+04  0.00000000000E+00 0. -1.
         22    1    1    2    0    0  0.93742060710E+03 -0.51297405643E+03  0.48296196073E+03  0.11726687651E+04  0.00000000000E+00 0.  1.
<mgrwt>
<rscale>  0 0.35094151E+04</rscale>
<asrwt>0</asrwt>
<pdfrwt beam="1">  1        2 0.51264740E+00 0.35094151E+04</pdfrwt>
<pdfrwt beam="2">  1       -2 0.14215562E+00 0.35094151E+04</pdfrwt>
<totfact> 0.29995740E-01</totfact>
</mgrwt>
</event>
<event>
 6    1  0.1588846E-005  0.2105954E+04  0.7818608E-02  0.8558625E-01
         -1   -1    0    0    0  501 -0.00000000000E+00  0.00000000000E+00  0.46076876983E+03  0.46076876983E+03  0.00000000000E+00 0.  1.
          1   -1    0    0  501    0  0.00000000000E+00 -0.00000000000E+00 -0.24063282239E+04  0.24063282239E+04  0.00000000000E+00 0. -1.
         23    2    1    2    0    0 -0.96169863922E+03  0.22015987290E+03 -0.48095770624E+03  0.11011997934E+04  0.89364576461E+02 0.  0.
         13    1    3    3    0    0 -0.46369624615E+03  0.12508096399E+03 -0.27923052867E+03  0.55554400760E+03  0.00000000000E+00 0.  1.
        -13    1    3    3    0    0 -0.49800239307E+03  0.95078908904E+02 -0.20172717758E+03  0.54565578582E+03  0.00000000000E+00 0. -1.
         22    1    1    2    0    0  0.96169863922E+03 -0.22015987290E+03 -0.14646017478E+04  0.17658972003E+04  0.00000000000E+00 0. -1.
<mgrwt>
<rscale>  0 0.21059543E+04</rscale>
<asrwt>0</asrwt>
<pdfrwt beam="1">  1        1 0.37020434E+00 0.21059543E+04</pdfrwt>
<pdfrwt beam="2">  1       -1 0.70887503E-01 0.21059543E+04</pdfrwt>
<totfact> 0.29067625E+00</totfact>
</mgrwt>
</event>
<event>
 6    1  0.1588846E-005  0.2495880E+04  0.7818608E-02  0.8404455E-01
          1   -1    0    0  501    0  0.00000000000E+00  0.00000000000E+00  0.16530676291E+04  0.16530676291E+04  0.00000000000E+00 0. -1.
         -1   -1    0    0    0  501 -0.00000000000E+00 -0.00000000000E+00 -0.94209949313E+03  0.94209949313E+03  0.00000000000E+00 0.  1.
         23    2    1    2    0    0  0.10719075092E+04 -0.16949954917E+03 -0.28082518375E+03  0.11250073369E+04  0.95199363014E+02 0.  0.
         13    1    3    3    0    0  0.59576306303E+03 -0.81086992252E+02 -0.20243923457E+03  0.63442128848E+03  0.00000000000E+00 0.  1.
        -13    1    3    3    0    0  0.47614444616E+03 -0.88412556923E+02 -0.78385949184E+02  0.49058604838E+03  0.00000000000E+00 0. -1.
         22    1    1    2    0    0 -0.10719075092E+04  0.16949954917E+03  0.99179331969E+03  0.14701597853E+04  0.00000000000E+00 0. -1.
<mgrwt>
<rscale>  0 0.24958799E+04</rscale>
<asrwt>0</asrwt>
<pdfrwt beam="1">  1        1 0.25431810E+00 0.24958799E+04</pdfrwt>
<pdfrwt beam="2">  1       -1 0.14493838E+00 0.24958799E+04</pdfrwt>
<totfact> 0.17444203E+00</totfact>
</mgrwt>
</event>
<event>
 6    1  0.1588846E-005  0.2585385E+04  0.7818608E-02  0.8373182E-01
         -1   -1    0    0    0  501 -0.00000000000E+00  0.00000000000E+00  0.66638686208E+03  0.66638686208E+03  0.00000000000E+00 0.  1.
          1   -1    0    0  501    0  0.00000000000E+00 -0.00000000000E+00 -0.25076337985E+04  0.25076337985E+04  0.00000000000E+00 0. -1.
         23    2    1    2    0    0 -0.10349951527E+04 -0.69287134487E+03 -0.50737997436E+03  0.13490585407E+04  0.10601340075E+03 0.  0.
         11    1    3    3    0    0 -0.35079851494E+03 -0.28538156650E+03 -0.15280327906E+03  0.47733748927E+03  0.00000000000E+00 0. -1.
        -11    1    3    3    0    0 -0.68419663774E+03 -0.40748977838E+03 -0.35457669531E+03  0.87172105139E+03  0.00000000000E+00 0.  1.
         22    1    1    2    0    0  0.10349951527E+04  0.69287134487E+03 -0.13338669620E+04  0.18249621199E+04  0.00000000000E+00 0. -1.
<mgrwt>
<rscale>  0 0.25853852E+04</rscale>
<asrwt>0</asrwt>
<pdfrwt beam="1">  1        1 0.38578982E+00 0.25853852E+04</pdfrwt>
<pdfrwt beam="2">  1       -1 0.10252105E+00 0.25853852E+04</pdfrwt>
<totfact> 0.10617248E+00</totfact>
</mgrwt>
</event>
<event>
 6    1  0.1588846E-005  0.2926726E+04  0.7818608E-02  0.8264970E-01
          2   -1    0    0  501    0  0.00000000000E+00  0.00000000000E+00  0.16102429509E+04  0.16102429509E+04  0.00000000000E+00 0.  1.
         -2   -1    0    0    0  501 -0.00000000000E+00 -0.00000000000E+00 -0.13298808086E+04  0.13298808086E+04  0.00000000000E+00 0. -1.
         23    2    1    2    0    0  0.11870768317E+04  0.34936514656E+03  0.92236813162E+03  0.15460724332E+04  0.91485454862E+02 0.  0.
         13    1    3    3    0    0  0.26369723694E+03  0.77227291809E+02  0.25364266850E+03  0.37394503694E+03  0.00000000000E+00 0.  1.
        -13    1    3    3    0    0  0.92337959480E+03  0.27213785475E+03  0.66872546312E+03  0.11721273963E+04  0.00000000000E+00 0. -1.
         22    1    1    2    0    0 -0.11870768317E+04 -0.34936514656E+03 -0.64200598934E+03  0.13940513263E+04  0.00000000000E+00 0. -1.
<mgrwt>
<rscale>  0 0.29267260E+04</rscale>
<asrwt>0</asrwt>
<pdfrwt beam="1">  1        2 0.24772969E+00 0.29267260E+04</pdfrwt>
<pdfrwt beam="2">  1       -2 0.20459705E+00 0.29267260E+04</pdfrwt>
<totfact> 0.11763817E+00</totfact>
</mgrwt>
</event>
<event>
 6    1  0.1588846E-005  0.1421256E+04  0.7818608E-02  0.8938574E-01
         -1   -1    0    0    0  501 -0.00000000000E+00  0.00000000000E+00  0.69607428369E+03  0.69607428369E+03  0.00000000000E+00 0.  1.
          1   -1    0    0  501    0  0.00000000000E+00 -0.00000000000E+00 -0.72548615317E+03  0.72548615317E+03  0.00000000000E+00 0. -1.
         23    2    1    2    0    0 -0.34834745815E+02  0.37873231019E+03 -0.61138297455E+03  0.72633242431E+03  0.95488359170E+02 0.  0.
         11    1    3    3    0    0 -0.75745137964E+01  0.31813177872E+03 -0.44416505625E+03  0.54639527733E+03  0.00000000000E+00 0. -1.
        -11    1    3    3    0    0 -0.27260232018E+02  0.60600531469E+02 -0.16721791830E+03  0.17993714698E+03  0.00000000000E+00 0.  1.
         22    1    1    2    0    0  0.34834745815E+02 -0.37873231019E+03  0.58197110507E+03  0.69522801255E+03  0.00000000000E+00 0.  1.
<mgrwt>
<rscale>  0 0.14212561E+04</rscale>
<asrwt>0</asrwt>
<pdfrwt beam="1">  1        1 0.11161325E+00 0.14212561E+04</pdfrwt>
<pdfrwt beam="2">  1       -1 0.10708835E+00 0.14212561E+04</pdfrwt>
<totfact> 0.20419400E+01</totfact>
</mgrwt>
</event>
<event>
 6    1  0.1588846E-005  0.9921221E+03  0.7818608E-02  0.9317228E-01
          1   -1    0    0  501    0  0.00000000000E+00  0.00000000000E+00  0.20206253187E+04  0.20206253187E+04  0.00000000000E+00 0. -1.
         -1   -1    0    0    0  501 -0.00000000000E+00 -0.00000000000E+00 -0.12178237625E+03  0.12178237625E+03  0.00000000000E+00 0.  1.
         23    2    1    2    0    0  0.38226674764E+03  0.16553465621E+03  0.15209744673E+04  0.15799895469E+04  0.97334728084E+02 0.  0.
         13    1    3    3    0    0  0.18880564405E+03  0.61530509703E+02  0.55795426974E+03  0.59223858535E+03  0.00000000000E+00 0.  1.
        -13    1    3    3    0    0  0.19346110359E+03  0.10400414651E+03  0.96302019756E+03  0.98775096153E+03  0.00000000000E+00 0. -1.
         22    1    1    2    0    0 -0.38226674764E+03 -0.16553465621E+03  0.37786847513E+03  0.56241814805E+03  0.00000000000E+00 0.  1.
<mgrwt>
<rscale>  0 0.99212207E+03</rscale>
<asrwt>0</asrwt>
<pdfrwt beam="1">  1        1 0.31086541E+00 0.99212207E+03</pdfrwt>
<pdfrwt beam="2">  1       -1 0.18735752E-01 0.99212207E+03</pdfrwt>
<totfact> 0.66375375E+01</totfact>
</mgrwt>
</event>
<event>
 6    1  0.1588846E-005  0.4142030E+03  0.7818608E-02  0.1038970E+00
          1   -1    0    0  501    0  0.00000000000E+00  0.00000000000E+00  0.74934501693E+03  0.74934501693E+03  0.00000000000E+00 0. -1.
         -1   -1    0    0    0  501 -0.00000000000E+00 -0.00000000000E+00 -0.57238015161E+02  0.57238015161E+02  0.00000000000E+00 0.  1.
         23    2    1    2    0    0 -0.13322907035E+03  0.12747206249E+03  0.48529924531E+03  0.52951163329E+03  0.10425018172E+03 0.  0.
         11    1    3    3    0    0 -0.14638925125E+03  0.89475495574E+02  0.39710765518E+03  0.43258544473E+03  0.00000000000E+00 0. -1.
        -11    1    3    3    0    0  0.13160180901E+02  0.37996566915E+02  0.88191590133E+02  0.96926188561E+02  0.00000000000E+00 0.  1.
         22    1    1    2    0    0  0.13322907035E+03 -0.12747206249E+03  0.20680775646E+03  0.27707139880E+03  0.00000000000E+00 0.  1.
<mgrwt>
<rscale>  0 0.41420295E+03</rscale>
<asrwt>0</asrwt>
<pdfrwt beam="1">  1        1 0.11528384E+00 0.41420295E+03</pdfrwt>
<pdfrwt beam="2">  1       -1 0.88058490E-02 0.41420295E+03</pdfrwt>
<totfact> 0.18958324E+03</totfact>
</mgrwt>
</event>
<event>
 6    1  0.1588846E-005  0.1470354E+04  0.7818608E-02  0.8904410E-01
         -1   -1    0    0    0  501 -0.00000000000E+00  0.00000000000E+00  0.55335942273E+03  0.55335942273E+03  0.00000000000E+00 0.  1.
          1   -1    0    0  501    0  0.00000000000E+00 -0.00000000000E+00 -0.97673429667E+03  0.97673429667E+03  0.00000000000E+00 0. -1.
         23    2    1    2    0    0 -0.28446158348E+03  0.24306206281E+03 -0.86770173056E+03  0.94921170523E+03  0.89994495771E+02 0.  0.
         11    1    3    3    0    0 -0.14966209767E+03  0.11369792228E+03 -0.32732728646E+03  0.37745080933E+03  0.00000000000E+00 0. -1.
        -11    1    3    3    0    0 -0.13479948581E+03  0.12936414054E+03 -0.54037444411E+03  0.57176089590E+03  0.00000000000E+00 0.  1.
         22    1    1    2    0    0  0.28446158348E+03 -0.24306206281E+03  0.44432685662E+03  0.58088201416E+03  0.00000000000E+00 0.  1.
<mgrwt>
<rscale>  0 0.14703539E+04</rscale>
<asrwt>0</asrwt>
<pdfrwt beam="1">  1        1 0.15026681E+00 0.14703539E+04</pdfrwt>
<pdfrwt beam="2">  1       -1 0.85132220E-01 0.14703539E+04</pdfrwt>
<totfact> 0.20886834E+01</totfact>
</mgrwt>
</event>
<event>
 6    1  0.1588846E-005  0.2755432E+04  0.7818608E-02  0.8317240E-01
          1   -1    0    0  501    0  0.00000000000E+00  0.00000000000E+00  0.31176424576E+04  0.31176424576E+04  0.00000000000E+00 0. -1.
         -1   -1    0    0    0  501 -0.00000000000E+00 -0.00000000000E+00 -0.60882577753E+03  0.60882577753E+03  0.00000000000E+00 0.  1.
         23    2    1    2    0    0 -0.57607212157E+03 -0.12486581206E+04  0.11833042379E+04  0.18164971815E+04  0.91907014883E+02 0.  0.
         11    1    3    3    0    0 -0.22839770513E+03 -0.44752300541E+03  0.48480779656E+03  0.69819836127E+03  0.00000000000E+00 0. -1.
        -11    1    3    3    0    0 -0.34767441644E+03 -0.80113511522E+03  0.69849644137E+03  0.11182988202E+04  0.00000000000E+00 0.  1.
         22    1    1    2    0    0  0.57607212157E+03  0.12486581206E+04  0.13255124421E+04  0.19099710536E+04  0.00000000000E+00 0. -1.
<mgrwt>
<rscale>  0 0.27554318E+04</rscale>
<asrwt>0</asrwt>
<pdfrwt beam="1">  1        1 0.47963729E+00 0.27554318E+04</pdfrwt>
<pdfrwt beam="2">  1       -1 0.93665506E-01 0.27554318E+04</pdfrwt>
<totfact> 0.47013731E-01</totfact>
</mgrwt>
</event>
<event>
 6    1  0.1588846E-005  0.1797781E+04  0.7818608E-02  0.8707481E-01
         -3   -1    0    0    0  501 -0.00000000000E+00  0.00000000000E+00  0.26877780559E+03  0.26877780559E+03  0.00000000000E+00 0.  1.
          3   -1    0    0  501    0  0.00000000000E+00 -0.00000000000E+00 -0.30062152520E+04  0.30062152520E+04  0.00000000000E+00 0. -1.
         23    2    1    2    0    0 -0.42323300860E+03  0.12847753147E+03 -0.27929288750E+04  0.28292218670E+04  0.91717045235E+02 0.  0.
         11    1    3    3    0    0 -0.19887621943E+03  0.86679087406E+02 -0.11221476259E+04  0.11429262046E+04  0.00000000000E+00 0.  1.
        -11    1    3    3    0    0 -0.22435678917E+03  0.41798444065E+02 -0.16707812491E+04  0.16862956624E+04  0.00000000000E+00 0. -1.
         22    1    1    2    0    0  0.42323300860E+03 -0.12847753147E+03  0.55491428618E+02  0.44577119054E+03  0.00000000000E+00 0.  1.
<mgrwt>
<rscale>  0 0.17977808E+04</rscale>
<asrwt>0</asrwt>
<pdfrwt beam="1">  1        3 0.46249468E+00 0.17977808E+04</pdfrwt>
<pdfrwt beam="2">  1       -3 0.41350430E-01 0.17977808E+04</pdfrwt>
<totfact> 0.76261370E-02</totfact>
</mgrwt>
</event>
<event>
 6    1  0.1588846E-005  0.3239927E+04  0.7818608E-02  0.8178352E-01
          2   -1    0    0  501    0  0.00000000000E+00  0.00000000000E+00  0.10658825970E+04  0.10658825970E+04  0.00000000000E+00 0. -1.
         -2   -1    0    0    0  501 -0.00000000000E+00 -0.00000000000E+00 -0.24620732217E+04  0.24620732217E+04  0.00000000000E+00 0.  1.
         23    2    1    2    0    0  0.11786636633E+04  0.11074325751E+04 -0.76290803812E+03  0.17910903161E+04  0.10159186172E+03 0.  0.
         13    1    3    3    0    0  0.48599045955E+03  0.43568019372E+03 -0.25564479891E+03  0.70096948663E+03  0.00000000000E+00 0. -1.
        -13    1    3    3    0    0  0.69267320372E+03  0.67175238134E+03 -0.50726323921E+03  0.10901208295E+04  0.00000000000E+00 0.  1.
         22    1    1    2    0    0 -0.11786636633E+04 -0.11074325751E+04 -0.63328258662E+03  0.17368655025E+04  0.00000000000E+00 0.  1.
<mgrwt>
<rscale>  0 0.32399265E+04</rscale>
<asrwt>0</asrwt>
<pdfrwt beam="1">  1        2 0.16398194E+00 0.32399265E+04</pdfrwt>
<pdfrwt beam="2">  1       -2 0.37878049E+00 0.32399265E+04</pdfrwt>
<totfact> 0.19562188E-01</totfact>
</mgrwt>
</event>
<event>
 6    1  0.1588846E-005  0.4247489E+04  0.7818608E-02  0.7956400E-01
          1   -1    0    0  501    0  0.00000000000E+00  0.00000000000E+00  0.17071640194E+04  0.17071640194E+04  0.00000000000E+00 0. -1.
         -1   -1    0    0    0  501 -0.00000000000E+00 -0.00000000000E+00 -0.26419785482E+04  0.26419785482E+04  0.00000000000E+00 0.  1.
         23    2    1    2    0    0 -0.82077928236E+03  0.17700652026E+04  0.38862990396E+03  0.19915347507E+04  0.91476824959E+02 0.  0.
         11    1    3    3    0    0 -0.11862927403E+03  0.29550533671E+03  0.93614840251E+02  0.33190367126E+03  0.00000000000E+00 0. -1.
        -11    1    3    3    0    0 -0.70215000833E+03  0.14745598658E+04  0.29501506371E+03  0.16596310795E+04  0.00000000000E+00 0.  1.
         22    1    1    2    0    0  0.82077928236E+03 -0.17700652026E+04 -0.13234444328E+04  0.23576078169E+04  0.00000000000E+00 0.  1.
<mgrwt>
<rscale>  0 0.42474890E+04</rscale>
<asrwt>0</asrwt>
<pdfrwt beam="1">  1        1 0.26264062E+00 0.42474890E+04</pdfrwt>
<pdfrwt beam="2">  1       -1 0.40645824E+00 0.42474890E+04</pdfrwt>
<totfact> 0.23344349E-02</totfact>
</mgrwt>
</event>
<event>
 6    1  0.1588846E-005  0.2579246E+04  0.7818608E-02  0.8375285E-01
         -2   -1    0    0    0  501 -0.00000000000E+00  0.00000000000E+00  0.83184227215E+03  0.83184227215E+03  0.00000000000E+00 0.  1.
          2   -1    0    0  501    0  0.00000000000E+00 -0.00000000000E+00 -0.19993306580E+04  0.19993306580E+04  0.00000000000E+00 0. -1.
         23    2    1    2    0    0  0.89116657358E+03  0.65081559103E+03  0.14468487109E+03  0.11166649973E+04  0.90929692566E+02 0.  0.
         11    1    3    3    0    0  0.70944816332E+02  0.57996777856E+02 -0.12575139054E+02  0.92492850147E+02  0.00000000000E+00 0.  1.
        -11    1    3    3    0    0  0.82022175724E+03  0.59281881317E+03  0.15726001015E+03  0.10241721472E+04  0.00000000000E+00 0. -1.
         22    1    1    2    0    0 -0.89116657358E+03 -0.65081559103E+03 -0.13121732569E+04  0.17145079328E+04  0.00000000000E+00 0. -1.
<mgrwt>
<rscale>  0 0.25792462E+04</rscale>
<asrwt>0</asrwt>
<pdfrwt beam="1">  1        2 0.30758933E+00 0.25792462E+04</pdfrwt>
<pdfrwt beam="2">  1       -2 0.12797574E+00 0.25792462E+04</pdfrwt>
<totfact> 0.26775993E+00</totfact>
</mgrwt>
</event>
<event>
 6    1  0.1588846E-005  0.8349539E+03  0.7818608E-02  0.9510757E-01
         -2   -1    0    0    0  501 -0.00000000000E+00  0.00000000000E+00  0.51501105732E+03  0.51501105732E+03  0.00000000000E+00 0.  1.
          2   -1    0    0  501    0  0.00000000000E+00 -0.00000000000E+00 -0.33841409099E+03  0.33841409099E+03  0.00000000000E+00 0. -1.
         23    2    1    2    0    0  0.27897934209E+03  0.20243400393E+03 -0.14327964311E+03  0.38318048378E+03  0.86540324451E+02 0.  0.
         11    1    3    3    0    0  0.99268719664E+02  0.47363095247E+02 -0.87375254334E+01  0.11033533362E+03  0.00000000000E+00 0. -1.
        -11    1    3    3    0    0  0.17971062243E+03  0.15507090868E+03 -0.13454211767E+03  0.27284515015E+03  0.00000000000E+00 0.  1.
         22    1    1    2    0    0 -0.27897934209E+03 -0.20243400393E+03  0.31987660944E+03  0.47024466454E+03  0.00000000000E+00 0.  1.
<mgrwt>
<rscale>  0 0.83495389E+03</rscale>
<asrwt>0</asrwt>
<pdfrwt beam="1">  1        2 0.52063707E-01 0.83495389E+03</pdfrwt>
<pdfrwt beam="2">  1       -2 0.79232470E-01 0.83495389E+03</pdfrwt>
<totfact> 0.13643369E+02</totfact>
</mgrwt>
</event>
<event>
 6    1  0.1588846E-005  0.6285200E+03  0.7818608E-02  0.9847941E-01
          2   -1    0    0  501    0  0.00000000000E+00  0.00000000000E+00  0.20956780115E+04  0.20956780115E+04  0.00000000000E+00 0.  1.
         -2   -1    0    0    0  501 -0.00000000000E+00 -0.00000000000E+00 -0.47125246666E+02  0.47125246666E+02  0.00000000000E+00 0. -1.
         23    2    1    2    0    0  0.49561575463E+02 -0.13782390879E+03  0.19677597751E+04  0.19755331569E+04  0.95921539915E+02 0.  0.
         11    1    3    3    0    0  0.23148169771E+02 -0.11262591090E+03  0.18081461744E+04  0.18117982839E+04  0.00000000000E+00 0. -1.
        -11    1    3    3    0    0  0.26413405692E+02 -0.25197997892E+02  0.15961360070E+03  0.16373487297E+03  0.00000000000E+00 0.  1.
         22    1    1    2    0    0 -0.49561575463E+02  0.13782390879E+03  0.80792989746E+02  0.16727010130E+03  0.00000000000E+00 0. -1.
<mgrwt>
<rscale>  0 0.62851999E+03</rscale>
<asrwt>0</asrwt>
<pdfrwt beam="1">  1        2 0.32241193E+00 0.62851999E+03</pdfrwt>
<pdfrwt beam="2">  1       -2 0.72500396E-02 0.62851999E+03</pdfrwt>
<totfact> 0.70384733E+02</totfact>
</mgrwt>
</event>
<event>
 6    1  0.1588846E-005  0.2413687E+04  0.7818608E-02  0.8434397E-01
         -2   -1    0    0    0  501 -0.00000000000E+00  0.00000000000E+00  0.41211739329E+03  0.41211739329E+03  0.00000000000E+00 0. -1.
          2   -1    0    0  501    0  0.00000000000E+00 -0.00000000000E+00 -0.35341183855E+04  0.35341183855E+04  0.00000000000E+00 0.  1.
         23    2    1    2    0    0 -0.10239126334E+04  0.11495532993E+03 -0.25851923965E+04  0.27844374843E+04  0.90887669538E+02 0.  0.
         11    1    3    3    0    0 -0.49692632271E+02  0.22451660511E+02 -0.10885009722E+03  0.12174472648E+03  0.00000000000E+00 0. -1.
        -11    1    3    3    0    0 -0.97422000111E+03  0.92503669418E+02 -0.24763422992E+04  0.26626927578E+04  0.00000000000E+00 0.  1.
         22    1    1    2    0    0  0.10239126334E+04 -0.11495532993E+03 -0.53680859578E+03  0.11617982945E+04  0.00000000000E+00 0. -1.
<mgrwt>
<rscale>  0 0.24136874E+04</rscale>
<asrwt>0</asrwt>
<pdfrwt beam="1">  1        2 0.54371049E+00 0.24136874E+04</pdfrwt>
<pdfrwt beam="2">  1       -2 0.63402679E-01 0.24136874E+04</pdfrwt>
<totfact> 0.15944343E+00</totfact>
</mgrwt>
</event>
<event>
 6    1  0.1588846E-005  0.5449435E+04  0.7818608E-02  0.7762685E-01
          2   -1    0    0  501    0  0.00000000000E+00  0.00000000000E+00  0.35634040914E+04  0.35634040914E+04  0.00000000000E+00 0.  1.
         -2   -1    0    0    0  501 -0.00000000000E+00 -0.00000000000E+00 -0.20834251668E+04  0.20834251668E+04  0.00000000000E+00 0. -1.
         23    2    1    2    0    0 -0.16257353363E+04 -0.19902228898E+04 -0.19566476686E+03  0.25789661069E+04  0.93696023269E+02 0.  0.
         11    1    3    3    0    0 -0.11097495378E+04 -0.13672345664E+04 -0.17732345242E+03  0.17698355865E+04  0.00000000000E+00 0.  1.
        -11    1    3    3    0    0 -0.51598579851E+03 -0.62298832333E+03 -0.18341314438E+02  0.80913052042E+03  0.00000000000E+00 0. -1.
         22    1    1    2    0    0  0.16257353363E+04  0.19902228898E+04  0.16756436915E+04  0.30678631514E+04  0.00000000000E+00 0. -1.
<mgrwt>
<rscale>  0 0.54494351E+04</rscale>
<asrwt>0</asrwt>
<pdfrwt beam="1">  1        2 0.54821601E+00 0.54494351E+04</pdfrwt>
<pdfrwt beam="2">  1       -2 0.32052695E+00 0.54494351E+04</pdfrwt>
<totfact> 0.12215883E-02</totfact>
</mgrwt>
</event>
<event>
 6    1  0.1772695E-005  0.2667288E+04  0.7818608E-02  0.8345698E-01
         -2   -1    0    0    0  501 -0.00000000000E+00  0.00000000000E+00  0.71884476867E+03  0.71884476867E+03  0.00000000000E+00 0.  1.
          2   -1    0    0  501    0  0.00000000000E+00 -0.00000000000E+00 -0.24742564658E+04  0.24742564658E+04  0.00000000000E+00 0. -1.
         23    2    1    2    0    0  0.90132407044E+03 -0.48694864796E+03  0.14072836037E+03  0.10379095531E+04  0.89149892639E+02 0.  0.
         11    1    3    3    0    0  0.45656915908E+03 -0.26035506160E+03  0.11546823626E+03  0.53811993896E+03  0.00000000000E+00 0. -1.
        -11    1    3    3    0    0  0.44475491136E+03 -0.22659358636E+03  0.25260124110E+02  0.49978961416E+03  0.00000000000E+00 0.  1.
         22    1    1    2    0    0 -0.90132407044E+03  0.48694864796E+03 -0.18961400575E+04  0.21551916813E+04  0.00000000000E+00 0.  1.
<mgrwt>
<rscale>  0 0.26672880E+04</rscale>
<asrwt>0</asrwt>
<pdfrwt beam="1">  1        2 0.38065484E+00 0.26672880E+04</pdfrwt>
<pdfrwt beam="2">  1       -2 0.11059150E+00 0.26672880E+04</pdfrwt>
<totfact> 0.20548184E+00</totfact>
</mgrwt>
</event>
<event>
 6    1  0.1588846E-005  0.1960970E+04  0.7818608E-02  0.8625089E-01
          1   -1    0    0  501    0  0.00000000000E+00  0.00000000000E+00  0.22075064830E+04  0.22075064830E+04  0.00000000000E+00 0. -1.
         -1   -1    0    0    0  501 -0.00000000000E+00 -0.00000000000E+00 -0.43549165118E+03  0.43549165118E+03  0.00000000000E+00 0.  1.
         23    2    1    2    0    0  0.84060934197E+03 -0.22316228643E+03  0.28505521248E+03  0.92036225233E+03  0.96874813354E+02 0.  0.
         13    1    3    3    0    0  0.22901928399E+03 -0.10375060537E+03  0.67345705288E+02  0.26028727317E+03  0.00000000000E+00 0.  1.
        -13    1    3    3    0    0  0.61159005798E+03 -0.11941168107E+03  0.21770950719E+03  0.66007497916E+03  0.00000000000E+00 0. -1.
         22    1    1    2    0    0 -0.84060934197E+03  0.22316228643E+03  0.14869596193E+04  0.17226358818E+04  0.00000000000E+00 0. -1.
<mgrwt>
<rscale>  0 0.19609698E+04</rscale>
<asrwt>0</asrwt>
<pdfrwt beam="1">  1        1 0.33961638E+00 0.19609698E+04</pdfrwt>
<pdfrwt beam="2">  1       -1 0.66998716E-01 0.19609698E+04</pdfrwt>
<totfact> 0.45229615E+00</totfact>
</mgrwt>
</event>
<event>
 6    1  0.1588846E-005  0.2065891E+04  0.7818608E-02  0.8576419E-01
         -2   -1    0    0    0  501 -0.00000000000E+00  0.00000000000E+00  0.14862130836E+04  0.14862130836E+04  0.00000000000E+00 0.  1.
          2   -1    0    0  501    0  0.00000000000E+00 -0.00000000000E+00 -0.71791632451E+03  0.71791632451E+03  0.00000000000E+00 0. -1.
         23    2    1    2    0    0 -0.81480881362E+03  0.30189057478E+03  0.97686099437E+03  0.13105129567E+04  0.90196926468E+02 0.  0.
         11    1    3    3    0    0 -0.43527190955E+03  0.11702930543E+03  0.53082934375E+03  0.69637438621E+03  0.00000000000E+00 0.  1.
        -11    1    3    3    0    0 -0.37953690407E+03  0.18486126934E+03  0.44603165061E+03  0.61413857052E+03  0.00000000000E+00 0. -1.
         22    1    1    2    0    0  0.81480881362E+03 -0.30189057478E+03 -0.20856423531E+03  0.89361645136E+03  0.00000000000E+00 0. -1.
<mgrwt>
<rscale>  0 0.20658912E+04</rscale>
<asrwt>0</asrwt>
<pdfrwt beam="1">  1        2 0.11044867E+00 0.20658912E+04</pdfrwt>
<pdfrwt beam="2">  1       -2 0.22864817E+00 0.20658912E+04</pdfrwt>
<totfact> 0.31951012E+00</totfact>
</mgrwt>
</event>
<event>
 6    1  0.1588846E-005  0.2233480E+04  0.7818608E-02  0.8504621E-01
         -2   -1    0    0    0  501 -0.00000000000E+00  0.00000000000E+00  0.61390306111E+03  0.61390306111E+03  0.00000000000E+00 0.  1.
          2   -1    0    0  501    0  0.00000000000E+00 -0.00000000000E+00 -0.20314410906E+04  0.20314410906E+04  0.00000000000E+00 0. -1.
         23    2    1    2    0    0  0.63384368850E+03  0.73067679001E+03 -0.53441437377E+02  0.97309838462E+03  0.91750128181E+02 0.  0.
         13    1    3    3    0    0  0.36475550831E+03  0.43649867113E+03 -0.75375817681E+02  0.57381110536E+03  0.00000000000E+00 0.  1.
        -13    1    3    3    0    0  0.26908818019E+03  0.29417811888E+03  0.21934380304E+02  0.39928727926E+03  0.00000000000E+00 0. -1.
         22    1    1    2    0    0 -0.63384368850E+03 -0.73067679001E+03 -0.13640965921E+04  0.16722457671E+04  0.00000000000E+00 0. -1.
<mgrwt>
<rscale>  0 0.22334797E+04</rscale>
<asrwt>0</asrwt>
<pdfrwt beam="1">  1        2 0.31252940E+00 0.22334797E+04</pdfrwt>
<pdfrwt beam="2">  1       -2 0.94446624E-01 0.22334797E+04</pdfrwt>
<totfact> 0.55262291E+00</totfact>
</mgrwt>
</event>
<event>
 6    1  0.1588846E-005  0.2098435E+04  0.7818608E-02  0.8561933E-01
          1   -1    0    0  501    0  0.00000000000E+00  0.00000000000E+00  0.95565828654E+03  0.95565828654E+03  0.00000000000E+00 0. -1.
         -1   -1    0    0    0  501 -0.00000000000E+00 -0.00000000000E+00 -0.11519362020E+04  0.11519362020E+04  0.00000000000E+00 0.  1.
         23    2    1    2    0    0 -0.34611879615E+03  0.21974117932E+02 -0.10907388672E+04  0.11482501932E+04  0.92120285036E+02 0.  0.
         11    1    3    3    0    0 -0.80928704574E+02  0.44438605708E+02 -0.30443362172E+03  0.31812587907E+03  0.00000000000E+00 0. -1.
        -11    1    3    3    0    0 -0.26519009157E+03 -0.22464487776E+02 -0.78630524543E+03  0.83012431411E+03  0.00000000000E+00 0.  1.
         22    1    1    2    0    0  0.34611879615E+03 -0.21974117932E+02  0.89446095171E+03  0.95934429536E+03  0.00000000000E+00 0. -1.
<mgrwt>
<rscale>  0 0.20984350E+04</rscale>
<asrwt>0</asrwt>
<pdfrwt beam="1">  1        1 0.14702435E+00 0.20984350E+04</pdfrwt>
<pdfrwt beam="2">  1       -1 0.17722096E+00 0.20984350E+04</pdfrwt>
<totfact> 0.32882355E+00</totfact>
</mgrwt>
</event>
<event>
 6    1  0.1588846E-005  0.6903565E+04  0.7818608E-02  0.7587463E-01
          2   -1    0    0  501    0  0.00000000000E+00  0.00000000000E+00  0.38204058997E+04  0.38204058997E+04  0.00000000000E+00 0.  1.
         -2   -1    0    0    0  501 -0.00000000000E+00 -0.00000000000E+00 -0.31187266380E+04  0.31187266380E+04  0.00000000000E+00 0. -1.
         23    2    1    2    0    0  0.88379054058E+03 -0.33017210628E+04  0.83101044940E+03  0.35187269692E+04  0.91724699694E+02 0.  0.
         13    1    3    3    0    0  0.62767319852E+03 -0.23286697590E+04  0.62906089324E+03  0.24924674718E+04  0.00000000000E+00 0.  1.
        -13    1    3    3    0    0  0.25611734206E+03 -0.97305130385E+03  0.20194955617E+03  0.10262594974E+04  0.00000000000E+00 0. -1.
         22    1    1    2    0    0 -0.88379054058E+03  0.33017210628E+04 -0.12933118776E+03  0.34204055684E+04  0.00000000000E+00 0.  1.
<mgrwt>
<rscale>  0 0.69035648E+04</rscale>
<asrwt>0</asrwt>
<pdfrwt beam="1">  1        2 0.58775475E+00 0.69035648E+04</pdfrwt>
<pdfrwt beam="2">  1       -2 0.47980410E+00 0.69035648E+04</pdfrwt>
<totfact> 0.66339677E-04</totfact>
</mgrwt>
</event>
<event>
 6    1  0.1588846E-005  0.1816556E+04  0.7818608E-02  0.8697544E-01
         -1   -1    0    0    0  501 -0.00000000000E+00  0.00000000000E+00  0.76421431416E+03  0.76421431416E+03  0.00000000000E+00 0.  1.
          1   -1    0    0  501    0  0.00000000000E+00 -0.00000000000E+00 -0.10794993849E+04  0.10794993849E+04  0.00000000000E+00 0. -1.
         23    2    1    2    0    0  0.43905018854E+02  0.71553480193E+03 -0.72037502453E+03  0.10202966881E+04  0.90263238545E+02 0.  0.
         13    1    3    3    0    0  0.38774958190E+02  0.25677594694E+03 -0.31344734418E+03  0.40704621591E+03  0.00000000000E+00 0.  1.
        -13    1    3    3    0    0  0.51300606636E+01  0.45875885499E+03 -0.40692768034E+03  0.61325047214E+03  0.00000000000E+00 0. -1.
         22    1    1    2    0    0 -0.43905018854E+02 -0.71553480193E+03  0.40508995375E+03  0.82341701105E+03  0.00000000000E+00 0.  1.
<mgrwt>
<rscale>  0 0.18165560E+04</rscale>
<asrwt>0</asrwt>
<pdfrwt beam="1">  1        1 0.16607683E+00 0.18165560E+04</pdfrwt>
<pdfrwt beam="2">  1       -1 0.11757143E+00 0.18165560E+04</pdfrwt>
<totfact> 0.80584096E+00</totfact>
</mgrwt>
</event>
<event>
 6    1  0.1588846E-005  0.2689882E+04  0.7818608E-02  0.8338295E-01
          4   -1    0    0  501    0  0.00000000000E+00  0.00000000000E+00  0.24032587838E+04  0.24032587838E+04  0.00000000000E+00 0. -1.
         -4   -1    0    0    0  501 -0.00000000000E+00 -0.00000000000E+00 -0.75267240423E+03  0.75267240423E+03  0.00000000000E+00 0.  1.
         23    2    1    2    0    0 -0.10411574507E+04  0.83538015180E+03  0.10039821251E+04  0.16727029867E+04  0.89924073848E+02 0.  0.
         11    1    3    3    0    0 -0.61758924609E+03  0.43952245929E+03  0.57987380064E+03  0.95438466761E+03  0.00000000000E+00 0.  1.
        -11    1    3    3    0    0 -0.42356820465E+03  0.39585769251E+03  0.42410832450E+03  0.71831831914E+03  0.00000000000E+00 0. -1.
         22    1    1    2    0    0  0.10411574507E+04 -0.83538015180E+03  0.64660425444E+03  0.14832282013E+04  0.00000000000E+00 0. -1.
<mgrwt>
<rscale>  0 0.26898822E+04</rscale>
<asrwt>0</asrwt>
<pdfrwt beam="1">  1        4 0.36973212E+00 0.26898822E+04</pdfrwt>
<pdfrwt beam="2">  1       -4 0.11579576E+00 0.26898822E+04</pdfrwt>
<totfact> 0.11102055E-02</totfact>
</mgrwt>
</event>
<event>
 6    1  0.1588846E-005  0.4368983E+04  0.7818608E-02  0.7933984E-01
          2   -1    0    0  501    0  0.00000000000E+00  0.00000000000E+00  0.25925971595E+04  0.25925971595E+04  0.00000000000E+00 0.  1.
         -2   -1    0    0    0  501 -0.00000000000E+00 -0.00000000000E+00 -0.18406269217E+04  0.18406269217E+04  0.00000000000E+00 0. -1.
         23    2    1    2    0    0  0.91488845909E+03 -0.90105227283E+03  0.21681859945E+04  0.25215276721E+04  0.90306166900E+02 0.  0.
         11    1    3    3    0    0  0.75165100352E+03 -0.74750530573E+03  0.17199176910E+04  0.20203614223E+04  0.00000000000E+00 0. -1.
        -11    1    3    3    0    0  0.16323745557E+03 -0.15354696710E+03  0.44826830350E+03  0.50116624979E+03  0.00000000000E+00 0.  1.
         22    1    1    2    0    0 -0.91488845909E+03  0.90105227283E+03 -0.14162157566E+04  0.19116964090E+04  0.00000000000E+00 0. -1.
<mgrwt>
<rscale>  0 0.43689835E+04</rscale>
<asrwt>0</asrwt>
<pdfrwt beam="1">  1        2 0.39886110E+00 0.43689835E+04</pdfrwt>
<pdfrwt beam="2">  1       -2 0.28317337E+00 0.43689835E+04</pdfrwt>
<totfact> 0.94801330E-02</totfact>
</mgrwt>
</event>
<event>
 6    1  0.1588846E-005  0.1130112E+04  0.7818608E-02  0.9176330E-01
         -2   -1    0    0    0  501 -0.00000000000E+00  0.00000000000E+00  0.51156562602E+03  0.51156562602E+03  0.00000000000E+00 0.  1.
          2   -1    0    0  501    0  0.00000000000E+00 -0.00000000000E+00 -0.62413927376E+03  0.62413927376E+03  0.00000000000E+00 0. -1.
         23    2    1    2    0    0  0.42047290018E+03  0.37161061569E+03 -0.73998206709E+02  0.57322825659E+03  0.90680703965E+02 0.  0.
         11    1    3    3    0    0  0.35719354205E+03  0.33896677556E+03 -0.89143610231E+02  0.50043209795E+03  0.00000000000E+00 0.  1.
        -11    1    3    3    0    0  0.63279358137E+02  0.32643840133E+02  0.15145403522E+02  0.72796158640E+02  0.00000000000E+00 0. -1.
         22    1    1    2    0    0 -0.42047290018E+03 -0.37161061569E+03 -0.38575441023E+02  0.56247664319E+03  0.00000000000E+00 0.  1.
<mgrwt>
<rscale>  0 0.11301118E+04</rscale>
<asrwt>0</asrwt>
<pdfrwt beam="1">  1        2 0.96021426E-01 0.11301118E+04</pdfrwt>
<pdfrwt beam="2">  1       -2 0.78702405E-01 0.11301118E+04</pdfrwt>
<totfact> 0.67220792E+01</totfact>
</mgrwt>
</event>
<event>
 6    1  0.1626164E-005  0.2663034E+04  0.7818608E-02  0.8347100E-01
         -2   -1    0    0    0  501 -0.00000000000E+00  0.00000000000E+00  0.94290189437E+03  0.94290189437E+03  0.00000000000E+00 0. -1.
          2   -1    0    0  501    0  0.00000000000E+00 -0.00000000000E+00 -0.18802992272E+04  0.18802992272E+04  0.00000000000E+00 0.  1.
         23    2    1    2    0    0  0.83890972270E+03  0.10250923169E+04 -0.59586038971E+03  0.14552715676E+04  0.90454134312E+02 0.  0.
         13    1    3    3    0    0  0.66690704405E+03  0.78407865814E+03 -0.42685161102E+03  0.11143368635E+04  0.00000000000E+00 0. -1.
        -13    1    3    3    0    0  0.17200267864E+03  0.24101365880E+03 -0.16900877869E+03  0.34093470411E+03  0.00000000000E+00 0.  1.
         22    1    1    2    0    0 -0.83890972270E+03 -0.10250923169E+04 -0.34153694313E+03  0.13679295540E+04  0.00000000000E+00 0.  1.
<mgrwt>
<rscale>  0 0.26630341E+04</rscale>
<asrwt>0</asrwt>
<pdfrwt beam="1">  1        2 0.28927680E+00 0.26630341E+04</pdfrwt>
<pdfrwt beam="2">  1       -2 0.14506183E+00 0.26630341E+04</pdfrwt>
<totfact> 0.22431103E+00</totfact>
</mgrwt>
</event>
<event>
 6    1  0.1588846E-005  0.2910436E+04  0.7818608E-02  0.8269779E-01
          2   -1    0    0  501    0  0.00000000000E+00  0.00000000000E+00  0.12119651778E+04  0.12119651778E+04  0.00000000000E+00 0.  1.
         -2   -1    0    0    0  501 -0.00000000000E+00 -0.00000000000E+00 -0.17472944182E+04  0.17472944182E+04  0.00000000000E+00 0. -1.
         23    2    1    2    0    0  0.10807182355E+03  0.96899765404E+03  0.82881908756E+03  0.12824958580E+04  0.84962187459E+02 0.  0.
         11    1    3    3    0    0  0.39591290714E+02  0.14173305171E+03  0.10069146182E+03  0.17831011954E+03  0.00000000000E+00 0. -1.
        -11    1    3    3    0    0  0.68480532840E+02  0.82726460233E+03  0.72812762574E+03  0.11041857385E+04  0.00000000000E+00 0.  1.
         22    1    1    2    0    0 -0.10807182355E+03 -0.96899765404E+03 -0.13641483279E+04  0.16767637380E+04  0.00000000000E+00 0. -1.
<mgrwt>
<rscale>  0 0.29104364E+04</rscale>
<asrwt>0</asrwt>
<pdfrwt beam="1">  1        2 0.18645618E+00 0.29104364E+04</pdfrwt>
<pdfrwt beam="2">  1       -2 0.26881452E+00 0.29104364E+04</pdfrwt>
<totfact> 0.79177005E-01</totfact>
</mgrwt>
</event>
<event>
 6    1  0.1588846E-005  0.2898109E+04  0.7818608E-02  0.8273440E-01
         -2   -1    0    0    0  501 -0.00000000000E+00  0.00000000000E+00  0.89576147314E+03  0.89576147314E+03  0.00000000000E+00 0.  1.
          2   -1    0    0  501    0  0.00000000000E+00 -0.00000000000E+00 -0.23441053081E+04  0.23441053081E+04  0.00000000000E+00 0. -1.
         23    2    1    2    0    0 -0.38613659102E+03 -0.43333618787E+03 -0.22074980997E+04  0.22842534095E+04  0.88792231253E+02 0.  0.
         13    1    3    3    0    0 -0.24140021778E+03 -0.32064406563E+03 -0.14163989859E+04  0.14721660128E+04  0.00000000000E+00 0. -1.
        -13    1    3    3    0    0 -0.14473637324E+03 -0.11269212223E+03 -0.79109911377E+03  0.81208739675E+03  0.00000000000E+00 0.  1.
         22    1    1    2    0    0  0.38613659102E+03  0.43333618787E+03  0.75915426468E+03  0.95561337173E+03  0.00000000000E+00 0.  1.
<mgrwt>
<rscale>  0 0.28981092E+04</rscale>
<asrwt>0</asrwt>
<pdfrwt beam="1">  1        2 0.36063159E+00 0.28981092E+04</pdfrwt>
<pdfrwt beam="2">  1       -2 0.13780946E+00 0.28981092E+04</pdfrwt>
<totfact> 0.13818850E+00</totfact>
</mgrwt>
</event>
<event>
 6    1  0.1588846E-005  0.2675733E+04  0.7818608E-02  0.8342922E-01
         -2   -1    0    0    0  501 -0.00000000000E+00  0.00000000000E+00  0.72492456149E+03  0.72492456149E+03  0.00000000000E+00 0.  1.
          2   -1    0    0  501    0  0.00000000000E+00 -0.00000000000E+00 -0.24690654058E+04  0.24690654058E+04  0.00000000000E+00 0. -1.
         23    2    1    2    0    0 -0.12979416942E+04  0.20627113544E+03 -0.11616134182E+04  0.17564439246E+04  0.92461364980E+02 0.  0.
         11    1    3    3    0    0 -0.52838119455E+03  0.85947673458E+02 -0.53420306516E+03  0.75627151483E+03  0.00000000000E+00 0. -1.
        -11    1    3    3    0    0 -0.76956049961E+03  0.12032346198E+03 -0.62741035305E+03  0.10001724097E+04  0.00000000000E+00 0.  1.
         22    1    1    2    0    0  0.12979416942E+04 -0.20627113544E+03 -0.58252742606E+03  0.14375460427E+04  0.00000000000E+00 0.  1.
<mgrwt>
<rscale>  0 0.26757325E+04</rscale>
<asrwt>0</asrwt>
<pdfrwt beam="1">  1        2 0.37985622E+00 0.26757325E+04</pdfrwt>
<pdfrwt beam="2">  1       -2 0.11152686E+00 0.26757325E+04</pdfrwt>
<totfact> 0.20257722E+00</totfact>
</mgrwt>
</event>
<event>
 6    1  0.1588846E-005  0.2657959E+04  0.7818608E-02  0.8348776E-01
         -2   -1    0    0    0  501 -0.00000000000E+00  0.00000000000E+00  0.10239329317E+04  0.10239329317E+04  0.00000000000E+00 0. -1.
          2   -1    0    0  501    0  0.00000000000E+00 -0.00000000000E+00 -0.17249050343E+04  0.17249050343E+04  0.00000000000E+00 0.  1.
         23    2    1    2    0    0  0.13751083041E+03 -0.12215729574E+04  0.16711278956E+03  0.12439389332E+04  0.91146400704E+02 0.  0.
         11    1    3    3    0    0  0.43452531957E+01 -0.37350217587E+03  0.31807174268E+02  0.37487925115E+03  0.00000000000E+00 0.  1.
        -11    1    3    3    0    0  0.13316557721E+03 -0.84807078154E+03  0.13530561529E+03  0.86905968206E+03  0.00000000000E+00 0. -1.
         22    1    1    2    0    0 -0.13751083041E+03  0.12215729574E+04 -0.86808489215E+03  0.15048990327E+04  0.00000000000E+00 0.  1.
<mgrwt>
<rscale>  0 0.26579594E+04</rscale>
<asrwt>0</asrwt>
<pdfrwt beam="1">  1        2 0.26537000E+00 0.26579594E+04</pdfrwt>
<pdfrwt beam="2">  1       -2 0.15752814E+00 0.26579594E+04</pdfrwt>
<totfact> 0.21977895E+00</totfact>
</mgrwt>
</event>
<event>
 6    1  0.1588846E-005  0.3925915E+04  0.7818608E-02  0.8019661E-01
          2   -1    0    0  501    0  0.00000000000E+00  0.00000000000E+00  0.18037812195E+04  0.18037812195E+04  0.00000000000E+00 0. -1.
         -2   -1    0    0    0  501 -0.00000000000E+00 -0.00000000000E+00 -0.21361806663E+04  0.21361806663E+04  0.00000000000E+00 0.  1.
         23    2    1    2    0    0  0.11644387128E+03 -0.16501608367E+04 -0.12247010087E+04  0.20603895836E+04  0.93395467432E+02 0.  0.
         11    1    3    3    0    0  0.62037091984E+02 -0.56384222528E+03 -0.46796129567E+03  0.73536006829E+03  0.00000000000E+00 0.  1.
        -11    1    3    3    0    0  0.54406779299E+02 -0.10863186114E+04 -0.75673971300E+03  0.13250295153E+04  0.00000000000E+00 0. -1.
         22    1    1    2    0    0 -0.11644387128E+03  0.16501608367E+04  0.89230156191E+03  0.18795723023E+04  0.00000000000E+00 0. -1.
<mgrwt>
<rscale>  0 0.39259152E+04</rscale>
<asrwt>0</asrwt>
<pdfrwt beam="1">  1        2 0.27750480E+00 0.39259152E+04</pdfrwt>
<pdfrwt beam="2">  1       -2 0.32864318E+00 0.39259152E+04</pdfrwt>
<totfact> 0.14422080E-01</totfact>
</mgrwt>
</event>
<event>
 6    1  0.1588846E-005  0.1213263E+04  0.7818608E-02  0.9101326E-01
         -3   -1    0    0    0  501 -0.00000000000E+00  0.00000000000E+00  0.10640676902E+04  0.10640676902E+04  0.00000000000E+00 0.  1.
          3   -1    0    0  501    0  0.00000000000E+00 -0.00000000000E+00 -0.34584435681E+03  0.34584435681E+03  0.00000000000E+00 0. -1.
         23    2    1    2    0    0 -0.57934573976E+03  0.10459975142E+03  0.51531638693E+03  0.78721322486E+03  0.87012002552E+02 0.  0.
         11    1    3    3    0    0 -0.44825619712E+03  0.10167752990E+03  0.43843361877E+03  0.63521333142E+03  0.00000000000E+00 0.  1.
        -11    1    3    3    0    0 -0.13108954263E+03  0.29222215220E+01  0.76882768158E+02  0.15199989344E+03  0.00000000000E+00 0. -1.
         22    1    1    2    0    0  0.57934573976E+03 -0.10459975142E+03  0.20290694645E+03  0.62269882214E+03  0.00000000000E+00 0. -1.
<mgrwt>
<rscale>  0 0.12132630E+04</rscale>
<asrwt>0</asrwt>
<pdfrwt beam="1">  1        3 0.53206825E-01 0.12132630E+04</pdfrwt>
<pdfrwt beam="2">  1       -3 0.16370272E+00 0.12132630E+04</pdfrwt>
<totfact> 0.23102106E+00</totfact>
</mgrwt>
</event>
<event>
 6    1  0.1588846E-005  0.2209958E+04  0.7818608E-02  0.8514295E-01
          1   -1    0    0  501    0  0.00000000000E+00  0.00000000000E+00  0.10115910250E+04  0.10115910250E+04  0.00000000000E+00 0. -1.
         -1   -1    0    0    0  501 -0.00000000000E+00 -0.00000000000E+00 -0.12069886205E+04  0.12069886205E+04  0.00000000000E+00 0.  1.
         23    2    1    2    0    0  0.30130531694E+03  0.93045561543E+03  0.41426846820E+03  0.10660930922E+04  0.91670994414E+02 0.  0.
         13    1    3    3    0    0  0.23892748752E+03  0.83170394226E+03  0.37129827238E+03  0.94163697832E+03  0.00000000000E+00 0. -1.
        -13    1    3    3    0    0  0.62377829420E+02  0.98751673172E+02  0.42970195827E+02  0.12445611390E+03  0.00000000000E+00 0.  1.
         22    1    1    2    0    0 -0.30130531694E+03 -0.93045561543E+03 -0.60966606375E+03  0.11524865533E+04  0.00000000000E+00 0.  1.
<mgrwt>
<rscale>  0 0.22099582E+04</rscale>
<asrwt>0</asrwt>
<pdfrwt beam="1">  1        1 0.15562939E+00 0.22099582E+04</pdfrwt>
<pdfrwt beam="2">  1       -1 0.18569056E+00 0.22099582E+04</pdfrwt>
<totfact> 0.25583417E+00</totfact>
</mgrwt>
</event>
<event>
 6    1  0.1588846E-005  0.1572290E+04  0.7818608E-02  0.8837754E-01
          1   -1    0    0  501    0  0.00000000000E+00  0.00000000000E+00  0.53708060913E+03  0.53708060913E+03  0.00000000000E+00 0. -1.
         -1   -1    0    0    0  501 -0.00000000000E+00 -0.00000000000E+00 -0.11507105428E+04  0.11507105428E+04  0.00000000000E+00 0.  1.
         23    2    1    2    0    0  0.76382480088E+03 -0.41776499679E+02 -0.48951109898E+03  0.91282077344E+03  0.91907812693E+02 0.  0.
         11    1    3    3    0    0  0.42501958262E+03 -0.48663280595E+02 -0.31781316178E+03  0.53293054546E+03  0.00000000000E+00 0. -1.
        -11    1    3    3    0    0  0.33880521826E+03  0.68867809159E+01 -0.17169793720E+03  0.37989022798E+03  0.00000000000E+00 0.  1.
         22    1    1    2    0    0 -0.76382480088E+03  0.41776499679E+02 -0.12411883466E+03  0.77497037845E+03  0.00000000000E+00 0.  1.
<mgrwt>
<rscale>  0 0.15722905E+04</rscale>
<asrwt>0</asrwt>
<pdfrwt beam="1">  1        1 0.82627786E-01 0.15722905E+04</pdfrwt>
<pdfrwt beam="2">  1       -1 0.17703239E+00 0.15722905E+04</pdfrwt>
<totfact> 0.84331804E+00</totfact>
</mgrwt>
</event>
<event>
 6    1  0.1588846E-005  0.1285116E+04  0.7818608E-02  0.9041453E-01
         -2   -1    0    0    0  501 -0.00000000000E+00  0.00000000000E+00  0.51832065831E+03  0.51832065831E+03  0.00000000000E+00 0.  1.
          2   -1    0    0  501    0  0.00000000000E+00 -0.00000000000E+00 -0.79657345384E+03  0.79657345384E+03  0.00000000000E+00 0. -1.
         23    2    1    2    0    0 -0.21477695515E+03  0.55435355084E+03 -0.38018601846E+03  0.71171305995E+03  0.92504439221E+02 0.  0.
         11    1    3    3    0    0 -0.12740359499E+03  0.26932466293E+03 -0.14159415912E+03  0.32987324229E+03  0.00000000000E+00 0. -1.
        -11    1    3    3    0    0 -0.87373360158E+02  0.28502888791E+03 -0.23859185934E+03  0.38183981766E+03  0.00000000000E+00 0.  1.
         22    1    1    2    0    0  0.21477695515E+03 -0.55435355084E+03  0.10193322293E+03  0.60318105220E+03  0.00000000000E+00 0.  1.
<mgrwt>
<rscale>  0 0.12851155E+04</rscale>
<asrwt>0</asrwt>
<pdfrwt beam="1">  1        2 0.12254976E+00 0.12851155E+04</pdfrwt>
<pdfrwt beam="2">  1       -2 0.79741640E-01 0.12851155E+04</pdfrwt>
<totfact> 0.47349705E+01</totfact>
</mgrwt>
</event>
<event>
 6    1  0.1588846E-005  0.8524472E+03  0.7818608E-02  0.9487058E-01
         -1   -1    0    0    0  501 -0.00000000000E+00  0.00000000000E+00  0.99485437552E+02  0.99485437552E+02  0.00000000000E+00 0.  1.
          1   -1    0    0  501    0  0.00000000000E+00 -0.00000000000E+00 -0.18260619234E+04  0.18260619234E+04  0.00000000000E+00 0. -1.
         23    2    1    2    0    0  0.36487563214E+03 -0.20672500665E+03 -0.96557009722E+03  0.10566398982E+04  0.91064847881E+02 0.  0.
         13    1    3    3    0    0  0.11032214638E+03 -0.36572989824E+02 -0.35600406824E+03  0.37449626990E+03  0.00000000000E+00 0.  1.
        -13    1    3    3    0    0  0.25455348576E+03 -0.17015201683E+03 -0.60956602898E+03  0.68214362830E+03  0.00000000000E+00 0. -1.
         22    1    1    2    0    0 -0.36487563214E+03  0.20672500665E+03 -0.76100638867E+03  0.86890746279E+03  0.00000000000E+00 0. -1.
<mgrwt>
<rscale>  0 0.85244723E+03</rscale>
<asrwt>0</asrwt>
<pdfrwt beam="1">  1        1 0.28093261E+00 0.85244723E+03</pdfrwt>
<pdfrwt beam="2">  1       -1 0.15305452E-01 0.85244723E+03</pdfrwt>
<totfact> 0.12662016E+02</totfact>
</mgrwt>
</event>
<event>
 6    1  0.1588846E-005  0.2087042E+04  0.7818608E-02  0.8566973E-01
         -1   -1    0    0    0  501 -0.00000000000E+00  0.00000000000E+00  0.62598378285E+03  0.62598378285E+03  0.00000000000E+00 0.  1.
          1   -1    0    0  501    0  0.00000000000E+00 -0.00000000000E+00 -0.17395588759E+04  0.17395588759E+04  0.00000000000E+00 0. -1.
         23    2    1    2    0    0  0.71863824712E+03  0.76693772631E+02 -0.14079234645E+04  0.15851813138E+04  0.90710808825E+02 0.  0.
         11    1    3    3    0    0  0.68464738407E+03  0.74368180244E+02 -0.13749004941E+04  0.15377334085E+04  0.00000000000E+00 0. -1.
        -11    1    3    3    0    0  0.33990863056E+02  0.23255923878E+01 -0.33022970344E+02  0.47447905345E+02  0.00000000000E+00 0.  1.
         22    1    1    2    0    0 -0.71863824712E+03 -0.76693772631E+02  0.29434837140E+03  0.78036134498E+03  0.00000000000E+00 0.  1.
<mgrwt>
<rscale>  0 0.20870416E+04</rscale>
<asrwt>0</asrwt>
<pdfrwt beam="1">  1        1 0.26762444E+00 0.20870416E+04</pdfrwt>
<pdfrwt beam="2">  1       -1 0.96305198E-01 0.20870416E+04</pdfrwt>
<totfact> 0.42812969E+00</totfact>
</mgrwt>
</event>
<event>
 6    1  0.1588846E-005  0.2636438E+04  0.7818608E-02  0.8355928E-01
          1   -1    0    0  501    0  0.00000000000E+00  0.00000000000E+00  0.11296034831E+04  0.11296034831E+04  0.00000000000E+00 0. -1.
         -1   -1    0    0    0  501 -0.00000000000E+00 -0.00000000000E+00 -0.15383284526E+04  0.15383284526E+04  0.00000000000E+00 0.  1.
         23    2    1    2    0    0 -0.98582294024E+03  0.37134032864E+03 -0.10039230096E+04  0.14579727562E+04  0.89903501058E+02 0.  0.
         13    1    3    3    0    0 -0.46406909281E+03  0.17032180258E+03 -0.40970599195E+03  0.64205034006E+03  0.00000000000E+00 0.  1.
        -13    1    3    3    0    0 -0.52175384744E+03  0.20101852605E+03 -0.59421701762E+03  0.81592241614E+03  0.00000000000E+00 0. -1.
         22    1    1    2    0    0  0.98582294024E+03 -0.37134032864E+03  0.59519804000E+03  0.12099591795E+04  0.00000000000E+00 0. -1.
<mgrwt>
<rscale>  0 0.26364379E+04</rscale>
<asrwt>0</asrwt>
<pdfrwt beam="1">  1        1 0.17378515E+00 0.26364379E+04</pdfrwt>
<pdfrwt beam="2">  1       -1 0.23666591E+00 0.26364379E+04</pdfrwt>
<totfact> 0.90189661E-01</totfact>
</mgrwt>
</event>
<event>
 6    1  0.1588846E-005  0.1465227E+04  0.7818608E-02  0.8907911E-01
          1   -1    0    0  501    0  0.00000000000E+00  0.00000000000E+00  0.50808400848E+03  0.50808400848E+03  0.00000000000E+00 0. -1.
         -1   -1    0    0    0  501 -0.00000000000E+00 -0.00000000000E+00 -0.10563659925E+04  0.10563659925E+04  0.00000000000E+00 0.  1.
         23    2    1    2    0    0  0.68221113479E+03 -0.24461614008E+03 -0.18360934968E+03  0.75313303541E+03  0.90817879932E+02 0.  0.
         13    1    3    3    0    0  0.43753912500E+03 -0.19074028966E+03 -0.90217690626E+02  0.48575876287E+03  0.00000000000E+00 0.  1.
        -13    1    3    3    0    0  0.24467200980E+03 -0.53875850414E+02 -0.93391659051E+02  0.26737427254E+03  0.00000000000E+00 0. -1.
         22    1    1    2    0    0 -0.68221113479E+03  0.24461614008E+03 -0.36467263438E+03  0.81131696561E+03  0.00000000000E+00 0. -1.
<mgrwt>
<rscale>  0 0.14652272E+04</rscale>
<asrwt>0</asrwt>
<pdfrwt beam="1">  1        1 0.78166771E-01 0.14652272E+04</pdfrwt>
<pdfrwt beam="2">  1       -1 0.16251784E+00 0.14652272E+04</pdfrwt>
<totfact> 0.11761646E+01</totfact>
</mgrwt>
</event>
<event>
 6    1  0.1588846E-005  0.1287012E+04  0.7818608E-02  0.9039928E-01
         -1   -1    0    0    0  501 -0.00000000000E+00  0.00000000000E+00  0.40904808195E+03  0.40904808195E+03  0.00000000000E+00 0.  1.
          1   -1    0    0  501    0  0.00000000000E+00 -0.00000000000E+00 -0.10123507731E+04  0.10123507731E+04  0.00000000000E+00 0. -1.
         23    2    1    2    0    0 -0.11148349826E+02  0.14971820545E+03 -0.99056987281E+03  0.10060487656E+04  0.91463758392E+02 0.  0.
         11    1    3    3    0    0 -0.49627629728E+02  0.58733762726E+02 -0.41524268493E+03  0.42230207661E+03  0.00000000000E+00 0.  1.
        -11    1    3    3    0    0  0.38479279902E+02  0.90984442721E+02 -0.57532718788E+03  0.58374668900E+03  0.00000000000E+00 0. -1.
         22    1    1    2    0    0  0.11148349826E+02 -0.14971820545E+03  0.38726718170E+03  0.41535008940E+03  0.00000000000E+00 0.  1.
<mgrwt>
<rscale>  0 0.12870123E+04</rscale>
<asrwt>0</asrwt>
<pdfrwt beam="1">  1        1 0.15574627E+00 0.12870123E+04</pdfrwt>
<pdfrwt beam="2">  1       -1 0.62930475E-01 0.12870123E+04</pdfrwt>
<totfact> 0.37277172E+01</totfact>
</mgrwt>
</event>
<event>
 6    1  0.1588846E-005  0.4454730E+03  0.7818608E-02  0.1029081E+00
          2   -1    0    0  501    0  0.00000000000E+00  0.00000000000E+00  0.10925637262E+04  0.10925637262E+04  0.00000000000E+00 0. -1.
         -2   -1    0    0    0  501 -0.00000000000E+00 -0.00000000000E+00 -0.45408369429E+02  0.45408369429E+02  0.00000000000E+00 0.  1.
         23    2    1    2    0    0  0.16941554315E+03 -0.55857291264E+02  0.24634432045E+03  0.31753320141E+03  0.91214837256E+02 0.  0.
         11    1    3    3    0    0  0.23600126461E+02 -0.19178837015E+02  0.18009668282E+01  0.30463703645E+02  0.00000000000E+00 0.  1.
        -11    1    3    3    0    0  0.14581541668E+03 -0.36678454248E+02  0.24454335362E+03  0.28706949777E+03  0.00000000000E+00 0. -1.
         22    1    1    2    0    0 -0.16941554315E+03  0.55857291264E+02  0.80081103628E+03  0.82043889418E+03  0.00000000000E+00 0. -1.
<mgrwt>
<rscale>  0 0.44547295E+03</rscale>
<asrwt>0</asrwt>
<pdfrwt beam="1">  1        2 0.16808671E+00 0.44547295E+03</pdfrwt>
<pdfrwt beam="2">  1       -2 0.69859038E-02 0.44547295E+03</pdfrwt>
<totfact> 0.27032133E+03</totfact>
</mgrwt>
</event>
<event>
 6    1  0.1588846E-005  0.2703894E+04  0.7818608E-02  0.8333743E-01
          1   -1    0    0  501    0  0.00000000000E+00  0.00000000000E+00  0.25223571681E+04  0.25223571681E+04  0.00000000000E+00 0. -1.
         -1   -1    0    0    0  501 -0.00000000000E+00 -0.00000000000E+00 -0.72462393996E+03  0.72462393996E+03  0.00000000000E+00 0.  1.
         23    2    1    2    0    0 -0.61572179073E+03  0.43843710813E+03  0.22438184440E+04  0.23692952638E+04  0.86593394815E+02 0.  0.
         11    1    3    3    0    0 -0.32722159786E+03  0.27365652006E+03  0.13458678245E+04  0.14118505821E+04  0.00000000000E+00 0. -1.
        -11    1    3    3    0    0 -0.28850019286E+03  0.16478058807E+03  0.89795061954E+03  0.95744468176E+03  0.00000000000E+00 0.  1.
         22    1    1    2    0    0  0.61572179073E+03 -0.43843710813E+03 -0.44608521588E+03  0.87768584425E+03  0.00000000000E+00 0.  1.
<mgrwt>
<rscale>  0 0.27038938E+04</rscale>
<asrwt>0</asrwt>
<pdfrwt beam="1">  1        1 0.38805495E+00 0.27038938E+04</pdfrwt>
<pdfrwt beam="2">  1       -1 0.11148061E+00 0.27038938E+04</pdfrwt>
<totfact> 0.84317531E-01</totfact>
</mgrwt>
</event>
<event>
 6    1  0.1588846E-005  0.3355482E+04  0.7818608E-02  0.8148920E-01
         -1   -1    0    0    0  501 -0.00000000000E+00  0.00000000000E+00  0.14045980573E+04  0.14045980573E+04  0.00000000000E+00 0.  1.
          1   -1    0    0  501    0  0.00000000000E+00 -0.00000000000E+00 -0.20040004490E+04  0.20040004490E+04  0.00000000000E+00 0. -1.
         23    2    1    2    0    0  0.78127049063E+03  0.68447251395E+03  0.10368103462E+04  0.14705380517E+04  0.92845386131E+02 0.  0.
         13    1    3    3    0    0  0.68807819529E+03  0.56179967309E+03  0.86734853660E+03  0.12415167979E+04  0.00000000000E+00 0. -1.
        -13    1    3    3    0    0  0.93192295332E+02  0.12267284087E+03  0.16946180959E+03  0.22902125383E+03  0.00000000000E+00 0.  1.
         22    1    1    2    0    0 -0.78127049063E+03 -0.68447251395E+03 -0.16362127379E+04  0.19380604546E+04  0.00000000000E+00 0. -1.
<mgrwt>
<rscale>  0 0.33554822E+04</rscale>
<asrwt>0</asrwt>
<pdfrwt beam="1">  1        1 0.30830776E+00 0.33554822E+04</pdfrwt>
<pdfrwt beam="2">  1       -1 0.21609201E+00 0.33554822E+04</pdfrwt>
<totfact> 0.28592529E-01</totfact>
</mgrwt>
</event>
<event>
 6    1  0.1588846E-005  0.1348422E+04  0.7818608E-02  0.8992024E-01
         -2   -1    0    0    0  501 -0.00000000000E+00  0.00000000000E+00  0.89034812336E+03  0.89034812336E+03  0.00000000000E+00 0.  1.
          2   -1    0    0  501    0  0.00000000000E+00 -0.00000000000E+00 -0.51054203417E+03  0.51054203417E+03  0.00000000000E+00 0. -1.
         23    2    1    2    0    0 -0.48062546224E+03  0.94450714777E+02 -0.28590705584E+03  0.57439408136E+03  0.90906235459E+02 0.  0.
         11    1    3    3    0    0 -0.74124160976E+02 -0.12935505167E+02 -0.65077821237E+02  0.99482869638E+02  0.00000000000E+00 0.  1.
        -11    1    3    3    0    0 -0.40650130126E+03  0.10738621994E+03 -0.22082923460E+03  0.47491121172E+03  0.00000000000E+00 0. -1.
         22    1    1    2    0    0  0.48062546224E+03 -0.94450714777E+02  0.66571314503E+03  0.82649607618E+03  0.00000000000E+00 0.  1.
<mgrwt>
<rscale>  0 0.13484215E+04</rscale>
<asrwt>0</asrwt>
<pdfrwt beam="1">  1        2 0.78544928E-01 0.13484215E+04</pdfrwt>
<pdfrwt beam="2">  1       -2 0.13697663E+00 0.13484215E+04</pdfrwt>
<totfact> 0.22299017E+01</totfact>
</mgrwt>
</event>
<event>
 6    1  0.1588846E-005  0.1848508E+04  0.7818608E-02  0.8680921E-01
          2   -1    0    0  501    0  0.00000000000E+00  0.00000000000E+00  0.10467138478E+04  0.10467138478E+04  0.00000000000E+00 0. -1.
         -2   -1    0    0    0  501 -0.00000000000E+00 -0.00000000000E+00 -0.81612122230E+03  0.81612122230E+03  0.00000000000E+00 0.  1.
         23    2    1    2    0    0  0.78127261132E+03  0.35348297203E+03 -0.22564452415E+03  0.89150122358E+03  0.92314005727E+02 0.  0.
         13    1    3    3    0    0  0.38983267042E+03  0.22138924559E+03 -0.95610901498E+02  0.45839301202E+03  0.00000000000E+00 0.  1.
        -13    1    3    3    0    0  0.39143994090E+03  0.13209372645E+03 -0.13003362265E+03  0.43310821156E+03  0.00000000000E+00 0. -1.
         22    1    1    2    0    0 -0.78127261132E+03 -0.35348297203E+03  0.45623714970E+03  0.97133384656E+03  0.00000000000E+00 0.  1.
<mgrwt>
<rscale>  0 0.18485079E+04</rscale>
<asrwt>0</asrwt>
<pdfrwt beam="1">  1        2 0.16103290E+00 0.18485079E+04</pdfrwt>
<pdfrwt beam="2">  1       -2 0.12555711E+00 0.18485079E+04</pdfrwt>
<totfact> 0.10488444E+01</totfact>
</mgrwt>
</event>
<event>
 6    1  0.1588846E-005  0.3164104E+04  0.7818608E-02  0.8198362E-01
          2   -1    0    0  501    0  0.00000000000E+00  0.00000000000E+00  0.92207180822E+03  0.92207180822E+03  0.00000000000E+00 0. -1.
         -2   -1    0    0    0  501 -0.00000000000E+00 -0.00000000000E+00 -0.27144189326E+04  0.27144189326E+04  0.00000000000E+00 0.  1.
         23    2    1    2    0    0 -0.13065361807E+04 -0.85995125785E+03 -0.63429664632E+03  0.16903063027E+04  0.90830635035E+02 0.  0.
         13    1    3    3    0    0 -0.40259959355E+03 -0.27956818264E+03 -0.24262572408E+03  0.54691136710E+03  0.00000000000E+00 0. -1.
        -13    1    3    3    0    0 -0.90393658713E+03 -0.58038307521E+03 -0.39167092224E+03  0.11433949356E+04  0.00000000000E+00 0.  1.
         22    1    1    2    0    0  0.13065361807E+04  0.85995125785E+03 -0.11580504781E+04  0.19461844381E+04  0.00000000000E+00 0.  1.
<mgrwt>
<rscale>  0 0.31641044E+04</rscale>
<asrwt>0</asrwt>
<pdfrwt beam="1">  1        2 0.14185720E+00 0.31641044E+04</pdfrwt>
<pdfrwt beam="2">  1       -2 0.41760291E+00 0.31641044E+04</pdfrwt>
<totfact> 0.13593512E-01</totfact>
</mgrwt>
</event>
<event>
 6    1  0.1588846E-005  0.2804385E+04  0.7818608E-02  0.8301908E-01
          2   -1    0    0  501    0  0.00000000000E+00  0.00000000000E+00  0.88268576553E+03  0.88268576553E+03  0.00000000000E+00 0. -1.
         -2   -1    0    0    0  501 -0.00000000000E+00 -0.00000000000E+00 -0.22274558447E+04  0.22274558447E+04  0.00000000000E+00 0.  1.
         23    2    1    2    0    0 -0.10021575197E+04 -0.70889179993E+03 -0.14213548764E+04  0.18802178282E+04  0.90122796232E+02 0.  0.
         13    1    3    3    0    0 -0.92593793470E+03 -0.67892310100E+03 -0.13093416530E+04  0.17414572060E+04  0.00000000000E+00 0. -1.
        -13    1    3    3    0    0 -0.76219585046E+02 -0.29968698931E+02 -0.11201322339E+03  0.13876062221E+03  0.00000000000E+00 0.  1.
         22    1    1    2    0    0  0.10021575197E+04  0.70889179993E+03  0.76584797237E+02  0.12299237820E+04  0.00000000000E+00 0. -1.
<mgrwt>
<rscale>  0 0.28043848E+04</rscale>
<asrwt>0</asrwt>
<pdfrwt beam="1">  1        2 0.13579781E+00 0.28043848E+04</pdfrwt>
<pdfrwt beam="2">  1       -2 0.34268552E+00 0.28043848E+04</pdfrwt>
<totfact> 0.45329883E-01</totfact>
</mgrwt>
</event>
<event>
 6    1  0.1588846E-005  0.1936966E+04  0.7818608E-02  0.8636671E-01
         -1   -1    0    0    0  501 -0.00000000000E+00  0.00000000000E+00  0.81868063960E+03  0.81868063960E+03  0.00000000000E+00 0.  1.
          1   -1    0    0  501    0  0.00000000000E+00 -0.00000000000E+00 -0.11456967751E+04  0.11456967751E+04  0.00000000000E+00 0. -1.
         23    2    1    2    0    0  0.56591202903E+03  0.54101125285E+03  0.41049759002E+03  0.88879566717E+03  0.92194719157E+02 0.  0.
         11    1    3    3    0    0  0.42101079527E+03  0.36574863993E+03  0.32733326266E+03  0.64666005149E+03  0.00000000000E+00 0.  1.
        -11    1    3    3    0    0  0.14490123376E+03  0.17526261292E+03  0.83164327360E+02  0.24213561568E+03  0.00000000000E+00 0. -1.
         22    1    1    2    0    0 -0.56591202903E+03 -0.54101125285E+03 -0.73751372555E+03  0.10755817476E+04  0.00000000000E+00 0. -1.
<mgrwt>
<rscale>  0 0.19369665E+04</rscale>
<asrwt>0</asrwt>
<pdfrwt beam="1">  1        1 0.17626104E+00 0.19369665E+04</pdfrwt>
<pdfrwt beam="2">  1       -1 0.12595087E+00 0.19369665E+04</pdfrwt>
<totfact> 0.60024300E+00</totfact>
</mgrwt>
</event>
<event>
 6    1  0.1588846E-005  0.1348530E+04  0.7818608E-02  0.8991941E-01
         -2   -1    0    0    0  501 -0.00000000000E+00  0.00000000000E+00  0.31774076871E+03  0.31774076871E+03  0.00000000000E+00 0. -1.
          2   -1    0    0  501    0  0.00000000000E+00 -0.00000000000E+00 -0.14308312106E+04  0.14308312106E+04  0.00000000000E+00 0.  1.
         23    2    1    2    0    0  0.21698045558E+03  0.57141669881E+03 -0.19963968671E+03  0.64948606642E+03  0.91534606470E+02 0.  0.
         11    1    3    3    0    0  0.18569192953E+03  0.45612207702E+03 -0.19577410797E+03  0.52995881273E+03  0.00000000000E+00 0.  1.
        -11    1    3    3    0    0  0.31288526047E+02  0.11529462179E+03 -0.38655787418E+01  0.11952725369E+03  0.00000000000E+00 0. -1.
         22    1    1    2    0    0 -0.21698045558E+03 -0.57141669881E+03 -0.91345075519E+03  0.10990859129E+04  0.00000000000E+00 0.  1.
<mgrwt>
<rscale>  0 0.13485302E+04</rscale>
<asrwt>0</asrwt>
<pdfrwt beam="1">  1        2 0.22012788E+00 0.13485302E+04</pdfrwt>
<pdfrwt beam="2">  1       -2 0.48883195E-01 0.13485302E+04</pdfrwt>
<totfact> 0.53772764E+01</totfact>
</mgrwt>
</event>
<event>
 6    1  0.1588846E-005  0.1048369E+04  0.7818608E-02  0.9257030E-01
         -2   -1    0    0    0  501 -0.00000000000E+00  0.00000000000E+00  0.85456064723E+02  0.85456064723E+02  0.00000000000E+00 0.  1.
          2   -1    0    0  501    0  0.00000000000E+00 -0.00000000000E+00 -0.32153283441E+04  0.32153283441E+04  0.00000000000E+00 0. -1.
         23    2    1    2    0    0  0.19404874629E+03 -0.88049713631E+02 -0.30709775836E+04  0.30797046648E+04  0.90938635944E+02 0.  0.
         13    1    3    3    0    0  0.17950813620E+03 -0.43335475028E+02 -0.24467743556E+04  0.24537330501E+04  0.00000000000E+00 0.  1.
        -13    1    3    3    0    0  0.14540610092E+02 -0.44714238602E+02 -0.62420322807E+03  0.62597161470E+03  0.00000000000E+00 0. -1.
         22    1    1    2    0    0 -0.19404874629E+03  0.88049713631E+02 -0.58894695740E+02  0.22107974397E+03  0.00000000000E+00 0.  1.
<mgrwt>
<rscale>  0 0.10483688E+04</rscale>
<asrwt>0</asrwt>
<pdfrwt beam="1">  1        2 0.49466597E+00 0.10483688E+04</pdfrwt>
<pdfrwt beam="2">  1       -2 0.13147085E-01 0.10483688E+04</pdfrwt>
<totfact> 0.56829704E+01</totfact>
</mgrwt>
</event>
<event>
 6    1  0.1588846E-005  0.2395246E+04  0.7818608E-02  0.8441285E-01
         -2   -1    0    0    0  501 -0.00000000000E+00  0.00000000000E+00  0.64850683208E+03  0.64850683208E+03  0.00000000000E+00 0.  1.
          2   -1    0    0  501    0  0.00000000000E+00 -0.00000000000E+00 -0.22116976019E+04  0.22116976019E+04  0.00000000000E+00 0. -1.
         23    2    1    2    0    0  0.63003555868E+03  0.16453479885E+03 -0.19805156791E+04  0.20867856696E+04  0.90639782332E+02 0.  0.
         13    1    3    3    0    0  0.31991195973E+03  0.12451089469E+03 -0.96681239823E+03  0.10259497250E+04  0.00000000000E+00 0. -1.
        -13    1    3    3    0    0  0.31012359895E+03  0.40023904158E+02 -0.10137032809E+04  0.10608359446E+04  0.00000000000E+00 0.  1.
         22    1    1    2    0    0 -0.63003555868E+03 -0.16453479885E+03  0.41732490932E+03  0.77341876442E+03  0.00000000000E+00 0.  1.
<mgrwt>
<rscale>  0 0.23952461E+04</rscale>
<asrwt>0</asrwt>
<pdfrwt beam="1">  1        2 0.34026116E+00 0.23952461E+04</pdfrwt>
<pdfrwt beam="2">  1       -2 0.99770284E-01 0.23952461E+04</pdfrwt>
<totfact> 0.37994558E+00</totfact>
</mgrwt>
</event>
<event>
 6    1  0.1588846E-005  0.2696957E+04  0.7818608E-02  0.8335993E-01
          2   -1    0    0  501    0  0.00000000000E+00  0.00000000000E+00  0.36433294200E+04  0.36433294200E+04  0.00000000000E+00 0. -1.
         -2   -1    0    0    0  501 -0.00000000000E+00 -0.00000000000E+00 -0.49910251130E+03  0.49910251130E+03  0.00000000000E+00 0.  1.
         23    2    1    2    0    0 -0.37402140581E+03  0.82174114199E+03  0.31092810889E+04  0.32388990172E+04  0.87678033049E+02 0.  0.
         13    1    3    3    0    0 -0.66829937065E+02  0.88847958605E+02  0.44093002119E+03  0.45473012197E+03  0.00000000000E+00 0.  1.
        -13    1    3    3    0    0 -0.30719146874E+03  0.73289318339E+03  0.26683510677E+04  0.27841688953E+04  0.00000000000E+00 0. -1.
         22    1    1    2    0    0  0.37402140581E+03 -0.82174114199E+03  0.34945819771E+02  0.90353291405E+03  0.00000000000E+00 0.  1.
<mgrwt>
<rscale>  0 0.26969574E+04</rscale>
<asrwt>0</asrwt>
<pdfrwt beam="1">  1        2 0.56051220E+00 0.26969574E+04</pdfrwt>
<pdfrwt beam="2">  1       -2 0.76785004E-01 0.26969574E+04</pdfrwt>
<totfact> 0.85457075E-01</totfact>
</mgrwt>
</event>
<event>
 6    1  0.1588846E-005  0.1186557E+04  0.7818608E-02  0.9124705E-01
         -1   -1    0    0    0  501 -0.00000000000E+00  0.00000000000E+00  0.29438230630E+03  0.29438230630E+03  0.00000000000E+00 0. -1.
          1   -1    0    0  501    0  0.00000000000E+00 -0.00000000000E+00 -0.11956535801E+04  0.11956535801E+04  0.00000000000E+00 0.  1.
         23    2    1    2    0    0  0.34197971818E+03  0.57964036980E+02  0.14671963357E+03  0.38613602719E+03  0.85231586807E+02 0.  0.
         13    1    3    3    0    0  0.20915851443E+03  0.18542349300E+02  0.12905210114E+03  0.24646611874E+03  0.00000000000E+00 0.  1.
        -13    1    3    3    0    0  0.13282120375E+03  0.39421687680E+02  0.17667532426E+02  0.13966990845E+03  0.00000000000E+00 0. -1.
         22    1    1    2    0    0 -0.34197971818E+03 -0.57964036980E+02 -0.10479909074E+04  0.11038998593E+04  0.00000000000E+00 0.  1.
<mgrwt>
<rscale>  0 0.11865568E+04</rscale>
<asrwt>0</asrwt>
<pdfrwt beam="1">  1        1 0.18394670E+00 0.11865568E+04</pdfrwt>
<pdfrwt beam="2">  1       -1 0.45289586E-01 0.11865568E+04</pdfrwt>
<totfact> 0.51580157E+01</totfact>
</mgrwt>
</event>
<event>
 6    1  0.1588846E-005  0.2965297E+04  0.7818608E-02  0.8253711E-01
         -1   -1    0    0    0  501 -0.00000000000E+00  0.00000000000E+00  0.11277229640E+04  0.11277229640E+04  0.00000000000E+00 0.  1.
          1   -1    0    0  501    0  0.00000000000E+00 -0.00000000000E+00 -0.19492787825E+04  0.19492787825E+04  0.00000000000E+00 0. -1.
         23    2    1    2    0    0  0.84268473774E+03  0.79862076613E+03  0.54345659027E+03  0.12850275360E+04  0.89654935350E+02 0.  0.
         13    1    3    3    0    0  0.66492072216E+03  0.65694276214E+03  0.46935183217E+03  0.10459371405E+04  0.00000000000E+00 0. -1.
        -13    1    3    3    0    0  0.17776401558E+03  0.14167800399E+03  0.74104758096E+02  0.23909039550E+03  0.00000000000E+00 0.  1.
         22    1    1    2    0    0 -0.84268473774E+03 -0.79862076613E+03 -0.13650124087E+04  0.17919742105E+04  0.00000000000E+00 0. -1.
<mgrwt>
<rscale>  0 0.29652969E+04</rscale>
<asrwt>0</asrwt>
<pdfrwt beam="1">  1        1 0.29988904E+00 0.29652969E+04</pdfrwt>
<pdfrwt beam="2">  1       -1 0.17349584E+00 0.29652969E+04</pdfrwt>
<totfact> 0.63874806E-01</totfact>
</mgrwt>
</event>
<event>
 6    1  0.1588846E-005  0.1580623E+04  0.7818608E-02  0.8832541E-01
         -2   -1    0    0    0  501 -0.00000000000E+00  0.00000000000E+00  0.26821397847E+03  0.26821397847E+03  0.00000000000E+00 0. -1.
          2   -1    0    0  501    0  0.00000000000E+00 -0.00000000000E+00 -0.23287081608E+04  0.23287081608E+04  0.00000000000E+00 0.  1.
         23    2    1    2    0    0  0.31383707458E+03 -0.40786045319E+02 -0.22187926644E+04  0.22430639470E+04  0.90209598365E+02 0.  0.
         13    1    3    3    0    0  0.10824652495E+03  0.28814572254E+02 -0.74562945005E+03  0.75399659582E+03  0.00000000000E+00 0. -1.
        -13    1    3    3    0    0  0.20559054963E+03 -0.69600617573E+02 -0.14731632144E+04  0.14890673511E+04  0.00000000000E+00 0.  1.
         22    1    1    2    0    0 -0.31383707458E+03  0.40786045319E+02  0.15829848204E+03  0.35385819235E+03  0.00000000000E+00 0. -1.
<mgrwt>
<rscale>  0 0.15806228E+04</rscale>
<asrwt>0</asrwt>
<pdfrwt beam="1">  1        2 0.35826278E+00 0.15806228E+04</pdfrwt>
<pdfrwt beam="2">  1       -2 0.41263691E-01 0.15806228E+04</pdfrwt>
<totfact> 0.23360555E+01</totfact>
</mgrwt>
</event>
<event>
 6    1  0.1588846E-005  0.3047057E+04  0.7818608E-02  0.8230420E-01
          2   -1    0    0  501    0  0.00000000000E+00  0.00000000000E+00  0.92808741555E+03  0.92808741555E+03  0.00000000000E+00 0. -1.
         -2   -1    0    0    0  501 -0.00000000000E+00 -0.00000000000E+00 -0.25009922758E+04  0.25009922758E+04  0.00000000000E+00 0.  1.
         23    2    1    2    0    0 -0.13284270658E+04 -0.18259012635E+03  0.23343666056E+02  0.13443574122E+04  0.93243239617E+02 0.  0.
         11    1    3    3    0    0 -0.96825477519E+03 -0.14623434422E+03 -0.22296755189E+02  0.97948912112E+03  0.00000000000E+00 0. -1.
        -11    1    3    3    0    0 -0.36017229059E+03 -0.36355782130E+02  0.45640421245E+02  0.36486829111E+03  0.00000000000E+00 0.  1.
         22    1    1    2    0    0  0.13284270658E+04  0.18259012635E+03 -0.15962485263E+04  0.20847222791E+04  0.00000000000E+00 0.  1.
<mgrwt>
<rscale>  0 0.30470572E+04</rscale>
<asrwt>0</asrwt>
<pdfrwt beam="1">  1        2 0.14278268E+00 0.30470572E+04</pdfrwt>
<pdfrwt beam="2">  1       -2 0.38476804E+00 0.30470572E+04</pdfrwt>
<totfact> 0.22312667E-01</totfact>
</mgrwt>
</event>
<event>
 6    1  0.1588846E-005  0.1811443E+04  0.7818608E-02  0.8700238E-01
          1   -1    0    0  501    0  0.00000000000E+00  0.00000000000E+00  0.13863607167E+04  0.13863607167E+04  0.00000000000E+00 0. -1.
         -1   -1    0    0    0  501 -0.00000000000E+00 -0.00000000000E+00 -0.59171568007E+03  0.59171568007E+03  0.00000000000E+00 0.  1.
         23    2    1    2    0    0  0.21817166396E+03  0.25274151809E+03  0.13150079234E+04  0.13598089110E+04  0.91418191822E+02 0.  0.
         11    1    3    3    0    0  0.19029635130E+03  0.16758891055E+03  0.88758656417E+03  0.92309731511E+03  0.00000000000E+00 0. -1.
        -11    1    3    3    0    0  0.27875312655E+02  0.85152607536E+02  0.42742135927E+03  0.43671159589E+03  0.00000000000E+00 0.  1.
         22    1    1    2    0    0 -0.21817166396E+03 -0.25274151809E+03 -0.52036288684E+03  0.61826748574E+03  0.00000000000E+00 0.  1.
<mgrwt>
<rscale>  0 0.18114429E+04</rscale>
<asrwt>0</asrwt>
<pdfrwt beam="1">  1        1 0.21328626E+00 0.18114429E+04</pdfrwt>
<pdfrwt beam="2">  1       -1 0.91033182E-01 0.18114429E+04</pdfrwt>
<totfact> 0.87209591E+00</totfact>
</mgrwt>
</event>
<event>
 6    1  0.1588846E-005  0.3178961E+04  0.7818608E-02  0.8194396E-01
         -2   -1    0    0    0  501 -0.00000000000E+00  0.00000000000E+00  0.12842409889E+04  0.12842409889E+04  0.00000000000E+00 0. -1.
          2   -1    0    0  501    0  0.00000000000E+00 -0.00000000000E+00 -0.19672698870E+04  0.19672698870E+04  0.00000000000E+00 0.  1.
         23    2    1    2    0    0  0.12372173245E+04 -0.79760280567E+03 -0.95171375446E+03  0.17551591472E+04  0.89149413997E+02 0.  0.
         11    1    3    3    0    0  0.10177879416E+04 -0.66005621555E+03 -0.74290277508E+03  0.14224876221E+04  0.00000000000E+00 0. -1.
        -11    1    3    3    0    0  0.21942938287E+03 -0.13754659012E+03 -0.20881097937E+03  0.33267152512E+03  0.00000000000E+00 0.  1.
         22    1    1    2    0    0 -0.12372173245E+04  0.79760280567E+03  0.26868485638E+03  0.14963517286E+04  0.00000000000E+00 0. -1.
<mgrwt>
<rscale>  0 0.31789612E+04</rscale>
<asrwt>0</asrwt>
<pdfrwt beam="1">  1        2 0.30265690E+00 0.31789612E+04</pdfrwt>
<pdfrwt beam="2">  1       -2 0.19757554E+00 0.31789612E+04</pdfrwt>
<totfact> 0.81101117E-01</totfact>
</mgrwt>
</event>
<event>
 6    1  0.1588846E-005  0.2486030E+04  0.7818608E-02  0.8407980E-01
         -1   -1    0    0    0  501 -0.00000000000E+00  0.00000000000E+00  0.18967313290E+04  0.18967313290E+04  0.00000000000E+00 0.  1.
          1   -1    0    0  501    0  0.00000000000E+00 -0.00000000000E+00 -0.81460443990E+03  0.81460443990E+03  0.00000000000E+00 0. -1.
         23    2    1    2    0    0  0.11463286323E+04  0.48642991889E+02  0.24733101834E+02  0.11510418558E+04  0.88601092226E+02 0.  0.
         13    1    3    3    0    0  0.33881008345E+03 -0.25753546373E+02  0.12211048424E+02  0.34000680509E+03  0.00000000000E+00 0. -1.
        -13    1    3    3    0    0  0.80751854886E+03  0.74396538261E+02  0.12522053411E+02  0.81103505071E+03  0.00000000000E+00 0.  1.
         22    1    1    2    0    0 -0.11463286323E+04 -0.48642991889E+02  0.10573937873E+04  0.15602939131E+04  0.00000000000E+00 0.  1.
<mgrwt>
<rscale>  0 0.24860296E+04</rscale>
<asrwt>0</asrwt>
<pdfrwt beam="1">  1        1 0.12532376E+00 0.24860296E+04</pdfrwt>
<pdfrwt beam="2">  1       -1 0.29180482E+00 0.24860296E+04</pdfrwt>
<totfact> 0.71287713E-01</totfact>
</mgrwt>
</event>
<event>
 6    1  0.1588846E-005  0.6245511E+03  0.7818608E-02  0.9855740E-01
          1   -1    0    0  501    0  0.00000000000E+00  0.00000000000E+00  0.21845723987E+03  0.21845723987E+03  0.00000000000E+00 0. -1.
         -1   -1    0    0    0  501 -0.00000000000E+00 -0.00000000000E+00 -0.44638493035E+03  0.44638493035E+03  0.00000000000E+00 0.  1.
         23    2    1    2    0    0  0.21048484302E+03 -0.13577134274E+03 -0.30280262463E+03  0.40341534984E+03  0.91196427317E+02 0.  0.
         13    1    3    3    0    0  0.24527241999E+02  0.10593492380E+02 -0.52777278304E+02  0.59154448573E+02  0.00000000000E+00 0. -1.
        -13    1    3    3    0    0  0.18595760102E+03 -0.14636483512E+03 -0.25002534633E+03  0.34426090127E+03  0.00000000000E+00 0.  1.
         22    1    1    2    0    0 -0.21048484302E+03  0.13577134274E+03  0.74874934142E+02  0.26142682038E+03  0.00000000000E+00 0. -1.
<mgrwt>
<rscale>  0 0.62455110E+03</rscale>
<asrwt>0</asrwt>
<pdfrwt beam="1">  1        1 0.33608806E-01 0.62455110E+03</pdfrwt>
<pdfrwt beam="2">  1       -1 0.68674604E-01 0.62455110E+03</pdfrwt>
<totfact> 0.28870206E+02</totfact>
</mgrwt>
</event>
<event>
 6    1  0.1588846E-005  0.1287341E+04  0.7818608E-02  0.9039664E-01
         -2   -1    0    0    0  501 -0.00000000000E+00  0.00000000000E+00  0.23833021445E+03  0.23833021445E+03  0.00000000000E+00 0.  1.
          2   -1    0    0  501    0  0.00000000000E+00 -0.00000000000E+00 -0.17383940980E+04  0.17383940980E+04  0.00000000000E+00 0. -1.
         23    2    1    2    0    0 -0.81533868367E+02 -0.62437055180E+03 -0.57516274474E+03  0.85782821619E+03  0.92578117913E+02 0.  0.
         13    1    3    3    0    0  0.20792040684E+01 -0.18747677364E+03 -0.12743971961E+03  0.22669968213E+03  0.00000000000E+00 0. -1.
        -13    1    3    3    0    0 -0.83613072435E+02 -0.43689377816E+03 -0.44772302513E+03  0.63112853406E+03  0.00000000000E+00 0.  1.
         22    1    1    2    0    0  0.81533868367E+02  0.62437055180E+03 -0.92490113883E+03  0.11188960963E+04  0.00000000000E+00 0. -1.
<mgrwt>
<rscale>  0 0.12873412E+04</rscale>
<asrwt>0</asrwt>
<pdfrwt beam="1">  1        2 0.26744524E+00 0.12873412E+04</pdfrwt>
<pdfrwt beam="2">  1       -2 0.36666187E-01 0.12873412E+04</pdfrwt>
<totfact> 0.64157875E+01</totfact>
</mgrwt>
</event>
<event>
 6    1  0.1588846E-005  0.1434228E+04  0.7818608E-02  0.8929409E-01
         -1   -1    0    0    0  501 -0.00000000000E+00  0.00000000000E+00  0.68983668372E+03  0.68983668372E+03  0.00000000000E+00 0.  1.
          1   -1    0    0  501    0  0.00000000000E+00 -0.00000000000E+00 -0.74546987906E+03  0.74546987906E+03  0.00000000000E+00 0. -1.
         23    2    1    2    0    0 -0.34353672465E+03 -0.13526156658E+03  0.58414066251E+03  0.69664306580E+03  0.88193395223E+02 0.  0.
         11    1    3    3    0    0 -0.80018724682E+02 -0.71066791438E+01  0.18316680670E+03  0.20000895046E+03  0.00000000000E+00 0.  1.
        -11    1    3    3    0    0 -0.26351799996E+03 -0.12815488744E+03  0.40097385581E+03  0.49663411535E+03  0.00000000000E+00 0. -1.
         22    1    1    2    0    0  0.34353672465E+03  0.13526156658E+03 -0.63977385785E+03  0.73866349698E+03  0.00000000000E+00 0. -1.
<mgrwt>
<rscale>  0 0.14342280E+04</rscale>
<asrwt>0</asrwt>
<pdfrwt beam="1">  1        1 0.11468767E+00 0.14342280E+04</pdfrwt>
<pdfrwt beam="2">  1       -1 0.10612872E+00 0.14342280E+04</pdfrwt>
<totfact> 0.19973191E+01</totfact>
</mgrwt>
</event>
<event>
 6    1  0.1588846E-005  0.1034558E+04  0.7818608E-02  0.9271434E-01
          1   -1    0    0  501    0  0.00000000000E+00  0.00000000000E+00  0.10714266897E+04  0.10714266897E+04  0.00000000000E+00 0. -1.
         -1   -1    0    0    0  501 -0.00000000000E+00 -0.00000000000E+00 -0.24973951933E+03  0.24973951933E+03  0.00000000000E+00 0.  1.
         23    2    1    2    0    0 -0.49237928290E+03  0.10251537794E+03  0.28398299561E+03  0.58491045150E+03  0.92342479576E+02 0.  0.
         13    1    3    3    0    0 -0.95478124005E+02 -0.74484775380E+01  0.82555204308E+02  0.12643936784E+03  0.00000000000E+00 0.  1.
        -13    1    3    3    0    0 -0.39690115889E+03  0.10996385548E+03  0.20142779130E+03  0.45847108366E+03  0.00000000000E+00 0. -1.
         22    1    1    2    0    0  0.49237928290E+03 -0.10251537794E+03  0.53770417476E+03  0.73625575753E+03  0.00000000000E+00 0. -1.
<mgrwt>
<rscale>  0 0.10345580E+04</rscale>
<asrwt>0</asrwt>
<pdfrwt beam="1">  1        1 0.16483487E+00 0.10345580E+04</pdfrwt>
<pdfrwt beam="2">  1       -1 0.38421465E-01 0.10345580E+04</pdfrwt>
<totfact> 0.87337293E+01</totfact>
</mgrwt>
</event>
<event>
 6    1  0.1588846E-005  0.2031720E+04  0.7818608E-02  0.8591932E-01
         -2   -1    0    0    0  501 -0.00000000000E+00  0.00000000000E+00  0.40138976347E+03  0.40138976347E+03  0.00000000000E+00 0.  1.
          2   -1    0    0  501    0  0.00000000000E+00 -0.00000000000E+00 -0.25709966278E+04  0.25709966278E+04  0.00000000000E+00 0. -1.
         23    2    1    2    0    0 -0.41564836419E+03 -0.34070926837E+03  0.17091836897E+03  0.57094833546E+03  0.89008677663E+02 0.  0.
         13    1    3    3    0    0 -0.11518914823E+03 -0.12671465375E+03  0.89379678009E+02  0.19316798437E+03  0.00000000000E+00 0. -1.
        -13    1    3    3    0    0 -0.30045921596E+03 -0.21399461463E+03  0.81538690961E+02  0.37778035109E+03  0.00000000000E+00 0.  1.
         22    1    1    2    0    0  0.41564836419E+03  0.34070926837E+03 -0.23405252333E+04  0.24014380558E+04  0.00000000000E+00 0. -1.
<mgrwt>
<rscale>  0 0.20317202E+04</rscale>
<asrwt>0</asrwt>
<pdfrwt beam="1">  1        2 0.39553794E+00 0.20317202E+04</pdfrwt>
<pdfrwt beam="2">  1       -2 0.61752272E-01 0.20317202E+04</pdfrwt>
<totfact> 0.71498685E+00</totfact>
</mgrwt>
</event>
<event>
 6    1  0.1588846E-005  0.2433600E+04  0.7818608E-02  0.8427030E-01
          1   -1    0    0  501    0  0.00000000000E+00  0.00000000000E+00  0.16047800564E+04  0.16047800564E+04  0.00000000000E+00 0. -1.
         -1   -1    0    0    0  501 -0.00000000000E+00 -0.00000000000E+00 -0.92262032208E+03  0.92262032208E+03  0.00000000000E+00 0.  1.
         23    2    1    2    0    0  0.46097080221E+03  0.63179561721E+03  0.13074378688E+04  0.15260849797E+04  0.88779513730E+02 0.  0.
         11    1    3    3    0    0  0.26268660954E+03  0.34073930486E+03  0.63541172909E+03  0.76736926846E+03  0.00000000000E+00 0.  1.
        -11    1    3    3    0    0  0.19828419267E+03  0.29105631235E+03  0.67202613974E+03  0.75871571126E+03  0.00000000000E+00 0. -1.
         22    1    1    2    0    0 -0.46097080221E+03 -0.63179561721E+03 -0.62527813447E+03  0.10013153988E+04  0.00000000000E+00 0.  1.
<mgrwt>
<rscale>  0 0.24336004E+04</rscale>
<asrwt>0</asrwt>
<pdfrwt beam="1">  1        1 0.24688924E+00 0.24336004E+04</pdfrwt>
<pdfrwt beam="2">  1       -1 0.14194159E+00 0.24336004E+04</pdfrwt>
<totfact> 0.20004625E+00</totfact>
</mgrwt>
</event>
<event>
 6    1  0.1606051E-005  0.2677907E+04  0.7818608E-02  0.8342209E-01
         -2   -1    0    0    0  501 -0.00000000000E+00  0.00000000000E+00  0.89042728377E+03  0.89042728377E+03  0.00000000000E+00 0.  1.
          2   -1    0    0  501    0  0.00000000000E+00 -0.00000000000E+00 -0.20134107225E+04  0.20134107225E+04  0.00000000000E+00 0. -1.
         23    2    1    2    0    0 -0.75063048050E+03  0.52007481196E+03  0.49790300783E+03  0.10434088082E+04  0.82889128252E+02 0.  0.
         11    1    3    3    0    0 -0.32588521957E+03  0.27004004613E+03  0.20774160155E+03  0.47146513749E+03  0.00000000000E+00 0. -1.
        -11    1    3    3    0    0 -0.42474526092E+03  0.25003476583E+03  0.29016140627E+03  0.57194367074E+03  0.00000000000E+00 0.  1.
         22    1    1    2    0    0  0.75063048050E+03 -0.52007481196E+03 -0.16208864465E+04  0.18604291980E+04  0.00000000000E+00 0. -1.
<mgrwt>
<rscale>  0 0.26779065E+04</rscale>
<asrwt>0</asrwt>
<pdfrwt beam="1">  1        2 0.30975550E+00 0.26779065E+04</pdfrwt>
<pdfrwt beam="2">  1       -2 0.13698881E+00 0.26779065E+04</pdfrwt>
<totfact> 0.21933778E+00</totfact>
</mgrwt>
</event>
<event>
 6    1  0.1588846E-005  0.2819239E+04  0.7818608E-02  0.8297320E-01
         -2   -1    0    0    0  501 -0.00000000000E+00  0.00000000000E+00  0.16878546303E+04  0.16878546303E+04  0.00000000000E+00 0.  1.
          2   -1    0    0  501    0  0.00000000000E+00 -0.00000000000E+00 -0.11772502502E+04  0.11772502502E+04  0.00000000000E+00 0. -1.
         23    2    1    2    0    0  0.43341244158E+03 -0.66977800224E+03 -0.92498386387E+03  0.12227399627E+04  0.55217309339E+02 0.  0.
         11    1    3    3    0    0  0.28993921222E+03 -0.48285765179E+03 -0.62632103030E+03  0.84231484118E+03  0.00000000000E+00 0.  1.
        -11    1    3    3    0    0  0.14347322936E+03 -0.18692035045E+03 -0.29866283357E+03  0.38042512156E+03  0.00000000000E+00 0. -1.
         22    1    1    2    0    0 -0.43341244158E+03  0.66977800224E+03  0.14355882440E+04  0.16423649178E+04  0.00000000000E+00 0.  1.
<mgrwt>
<rscale>  0 0.28192391E+04</rscale>
<asrwt>0</asrwt>
<pdfrwt beam="1">  1        2 0.18111542E+00 0.28192391E+04</pdfrwt>
<pdfrwt beam="2">  1       -2 0.25966994E+00 0.28192391E+04</pdfrwt>
<totfact> 0.95183852E-01</totfact>
</mgrwt>
</event>
<event>
 6    1  0.1588846E-005  0.1608833E+04  0.7818608E-02  0.8815140E-01
          1   -1    0    0  501    0  0.00000000000E+00  0.00000000000E+00  0.20770922776E+04  0.20770922776E+04  0.00000000000E+00 0. -1.
         -1   -1    0    0    0  501 -0.00000000000E+00 -0.00000000000E+00 -0.31153466408E+03  0.31153466408E+03  0.00000000000E+00 0.  1.
         23    2    1    2    0    0  0.31512100545E+03  0.30198930781E+03  0.18842051504E+04  0.19363261258E+04  0.92903318450E+02 0.  0.
         11    1    3    3    0    0  0.17584604606E+03  0.22209130114E+03  0.12961222940E+04  0.13267175204E+04  0.00000000000E+00 0. -1.
        -11    1    3    3    0    0  0.13927495939E+03  0.79898006679E+02  0.58808285639E+03  0.60960860539E+03  0.00000000000E+00 0.  1.
         22    1    1    2    0    0 -0.31512100545E+03 -0.30198930781E+03 -0.11864753681E+03  0.45230081594E+03  0.00000000000E+00 0.  1.
<mgrwt>
<rscale>  0 0.16088334E+04</rscale>
<asrwt>0</asrwt>
<pdfrwt beam="1">  1        1 0.31955265E+00 0.16088334E+04</pdfrwt>
<pdfrwt beam="2">  1       -1 0.47928411E-01 0.16088334E+04</pdfrwt>
<totfact> 0.11023379E+01</totfact>
</mgrwt>
</event>
<event>
 6    1  0.1588846E-005  0.3944153E+04  0.7818608E-02  0.8015908E-01
          2   -1    0    0  501    0  0.00000000000E+00  0.00000000000E+00  0.13678068648E+04  0.13678068648E+04  0.00000000000E+00 0. -1.
         -2   -1    0    0    0  501 -0.00000000000E+00 -0.00000000000E+00 -0.28433005967E+04  0.28433005967E+04  0.00000000000E+00 0.  1.
         23    2    1    2    0    0  0.65501331967E+03 -0.13812408760E+04 -0.20665334978E+04  0.25721453474E+04  0.92207287538E+02 0.  0.
         11    1    3    3    0    0  0.25174725396E+03 -0.62602867979E+03 -0.94588040488E+03  0.11618856777E+04  0.00000000000E+00 0.  1.
        -11    1    3    3    0    0  0.40326606571E+03 -0.75521219625E+03 -0.11206530929E+04  0.14102596696E+04  0.00000000000E+00 0. -1.
         22    1    1    2    0    0 -0.65501331967E+03  0.13812408760E+04  0.59103976594E+03  0.16389621141E+04  0.00000000000E+00 0. -1.
<mgrwt>
<rscale>  0 0.39441532E+04</rscale>
<asrwt>0</asrwt>
<pdfrwt beam="1">  1        2 0.21043182E+00 0.39441532E+04</pdfrwt>
<pdfrwt beam="2">  1       -2 0.43743086E+00 0.39441532E+04</pdfrwt>
<totfact> 0.50286714E-02</totfact>
</mgrwt>
</event>
<event>
 6    1  0.1588846E-005  0.1202434E+04  0.7818608E-02  0.9110729E-01
         -2   -1    0    0    0  501 -0.00000000000E+00  0.00000000000E+00  0.18040770452E+03  0.18040770452E+03  0.00000000000E+00 0.  1.
          2   -1    0    0  501    0  0.00000000000E+00 -0.00000000000E+00 -0.20035831919E+04  0.20035831919E+04  0.00000000000E+00 0. -1.
         23    2    1    2    0    0  0.34712371525E+03 -0.45059014166E+03 -0.12500318789E+04  0.13765133763E+04  0.93182764566E+02 0.  0.
         13    1    3    3    0    0  0.30245104224E+03 -0.36095332625E+03 -0.95203232460E+03  0.10621344000E+04  0.00000000000E+00 0.  1.
        -13    1    3    3    0    0  0.44672673002E+02 -0.89636815406E+02 -0.29799955427E+03  0.31437897629E+03  0.00000000000E+00 0. -1.
         22    1    1    2    0    0 -0.34712371525E+03  0.45059014166E+03 -0.57314360847E+03  0.80747752004E+03  0.00000000000E+00 0.  1.
<mgrwt>
<rscale>  0 0.12024339E+04</rscale>
<asrwt>0</asrwt>
<pdfrwt beam="1">  1        2 0.30824356E+00 0.12024339E+04</pdfrwt>
<pdfrwt beam="2">  1       -2 0.27755032E-01 0.12024339E+04</pdfrwt>
<totfact> 0.77844734E+01</totfact>
</mgrwt>
</event>
<event>
 6    1  0.1588846E-005  0.3201570E+04  0.7818608E-02  0.8188403E-01
          1   -1    0    0  501    0  0.00000000000E+00  0.00000000000E+00  0.14092408314E+04  0.14092408314E+04  0.00000000000E+00 0. -1.
         -1   -1    0    0    0  501 -0.00000000000E+00 -0.00000000000E+00 -0.18183644306E+04  0.18183644306E+04  0.00000000000E+00 0.  1.
         23    2    1    2    0    0  0.24751471008E+03  0.15354695998E+04 -0.58125450155E+03  0.16628179055E+04  0.90422162825E+02 0.  0.
         11    1    3    3    0    0  0.19646285406E+03  0.94438150057E+03 -0.35503047946E+03  0.10278622053E+04  0.00000000000E+00 0.  1.
        -11    1    3    3    0    0  0.51051856029E+02  0.59108809922E+03 -0.22622402208E+03  0.63495570020E+03  0.00000000000E+00 0. -1.
         22    1    1    2    0    0 -0.24751471008E+03 -0.15354695998E+04  0.17213090233E+03  0.15647873565E+04  0.00000000000E+00 0.  1.
<mgrwt>
<rscale>  0 0.32015705E+04</rscale>
<asrwt>0</asrwt>
<pdfrwt beam="1">  1        1 0.21680628E+00 0.32015705E+04</pdfrwt>
<pdfrwt beam="2">  1       -1 0.27974837E+00 0.32015705E+04</pdfrwt>
<totfact> 0.28283855E-01</totfact>
</mgrwt>
</event>
<event>
 6    1  0.1588846E-005  0.2717938E+04  0.7818608E-02  0.8329208E-01
          1   -1    0    0  501    0  0.00000000000E+00  0.00000000000E+00  0.30356355813E+04  0.30356355813E+04  0.00000000000E+00 0. -1.
         -1   -1    0    0    0  501 -0.00000000000E+00 -0.00000000000E+00 -0.60837244928E+03  0.60837244928E+03  0.00000000000E+00 0.  1.
         23    2    1    2    0    0  0.10340463073E+04  0.87406559380E+03  0.13447792929E+04  0.19105104996E+04  0.91523738598E+02 0.  0.
         13    1    3    3    0    0  0.30521752636E+03  0.25019239857E+03  0.45118506880E+03  0.59943468452E+03  0.00000000000E+00 0.  1.
        -13    1    3    3    0    0  0.72882878090E+03  0.62387319523E+03  0.89359422411E+03  0.13110758151E+04  0.00000000000E+00 0. -1.
         22    1    1    2    0    0 -0.10340463073E+04 -0.87406559380E+03  0.10824838391E+04  0.17334975309E+04  0.00000000000E+00 0.  1.
<mgrwt>
<rscale>  0 0.27179382E+04</rscale>
<asrwt>0</asrwt>
<pdfrwt beam="1">  1        1 0.46702085E+00 0.27179382E+04</pdfrwt>
<pdfrwt beam="2">  1       -1 0.93595764E-01 0.27179382E+04</pdfrwt>
<totfact> 0.54306604E-01</totfact>
</mgrwt>
</event>
<event>
 6    1  0.1588846E-005  0.3072150E+04  0.7818608E-02  0.8223423E-01
         -1   -1    0    0    0  501 -0.00000000000E+00  0.00000000000E+00  0.16833138042E+04  0.16833138042E+04  0.00000000000E+00 0.  1.
          1   -1    0    0  501    0  0.00000000000E+00 -0.00000000000E+00 -0.14017147720E+04  0.14017147720E+04  0.00000000000E+00 0. -1.
         23    2    1    2    0    0 -0.86824083085E+03  0.32849569526E+03  0.13682867023E+04  0.16558184257E+04  0.88173674637E+02 0.  0.
         13    1    3    3    0    0 -0.35704774624E+03  0.95774013564E+02  0.58349517920E+03  0.69074045699E+03  0.00000000000E+00 0.  1.
        -13    1    3    3    0    0 -0.51119308462E+03  0.23272168170E+03  0.78479152311E+03  0.96507796868E+03  0.00000000000E+00 0. -1.
         22    1    1    2    0    0  0.86824083085E+03 -0.32849569526E+03 -0.10866876701E+04  0.14292101506E+04  0.00000000000E+00 0. -1.
<mgrwt>
<rscale>  0 0.30721496E+04</rscale>
<asrwt>0</asrwt>
<pdfrwt beam="1">  1        1 0.21564843E+00 0.30721496E+04</pdfrwt>
<pdfrwt beam="2">  1       -1 0.25897135E+00 0.30721496E+04</pdfrwt>
<totfact> 0.39485748E-01</totfact>
</mgrwt>
</event>
<event>
 6    1  0.1588846E-005  0.1706771E+04  0.7818608E-02  0.8757512E-01
          2   -1    0    0  501    0  0.00000000000E+00  0.00000000000E+00  0.10230677422E+04  0.10230677422E+04  0.00000000000E+00 0. -1.
         -2   -1    0    0    0  501 -0.00000000000E+00 -0.00000000000E+00 -0.71184599238E+03  0.71184599238E+03  0.00000000000E+00 0.  1.
         23    2    1    2    0    0 -0.40975758395E+03 -0.34158506788E+03 -0.51778167196E+03  0.74910020781E+03  0.92041432656E+02 0.  0.
         11    1    3    3    0    0 -0.26011819677E+03 -0.20129610742E+03 -0.37704174871E+03  0.50034196248E+03  0.00000000000E+00 0.  1.
        -11    1    3    3    0    0 -0.14963938718E+03 -0.14028896046E+03 -0.14073992325E+03  0.24875824533E+03  0.00000000000E+00 0. -1.
         22    1    1    2    0    0  0.40975758395E+03  0.34158506788E+03  0.82900342175E+03  0.98581352672E+03  0.00000000000E+00 0. -1.
<mgrwt>
<rscale>  0 0.17067708E+04</rscale>
<asrwt>0</asrwt>
<pdfrwt beam="1">  1        2 0.15739504E+00 0.17067708E+04</pdfrwt>
<pdfrwt beam="2">  1       -2 0.10951477E+00 0.17067708E+04</pdfrwt>
<totfact> 0.15378863E+01</totfact>
</mgrwt>
</event>
<event>
 6    1  0.1588846E-005  0.2055085E+04  0.7818608E-02  0.8581291E-01
         -1   -1    0    0    0  501 -0.00000000000E+00  0.00000000000E+00  0.21457130685E+04  0.21457130685E+04  0.00000000000E+00 0.  1.
          1   -1    0    0  501    0  0.00000000000E+00 -0.00000000000E+00 -0.49207136342E+03  0.49207136342E+03  0.00000000000E+00 0. -1.
         23    2    1    2    0    0  0.13549269162E+03  0.93924304601E+03  0.32960103852E+03  0.10087910447E+04  0.92123603189E+02 0.  0.
         11    1    3    3    0    0  0.37953760865E+02  0.43848961227E+03  0.11198744039E+03  0.45415285405E+03  0.00000000000E+00 0. -1.
        -11    1    3    3    0    0  0.97538930756E+02  0.50075343374E+03  0.21761359813E+03  0.55463819063E+03  0.00000000000E+00 0.  1.
         22    1    1    2    0    0 -0.13549269162E+03 -0.93924304601E+03  0.13240406665E+04  0.16289933872E+04  0.00000000000E+00 0.  1.
<mgrwt>
<rscale>  0 0.20550854E+04</rscale>
<asrwt>0</asrwt>
<pdfrwt beam="1">  1        1 0.75703288E-01 0.20550854E+04</pdfrwt>
<pdfrwt beam="2">  1       -1 0.33010970E+00 0.20550854E+04</pdfrwt>
<totfact> 0.88016708E-01</totfact>
</mgrwt>
</event>
<event>
 6    1  0.1588846E-005  0.9729822E+03  0.7818608E-02  0.9338684E-01
         -2   -1    0    0    0  501 -0.00000000000E+00  0.00000000000E+00  0.50766458385E+03  0.50766458385E+03  0.00000000000E+00 0.  1.
          2   -1    0    0  501    0  0.00000000000E+00 -0.00000000000E+00 -0.46620074492E+03  0.46620074492E+03  0.00000000000E+00 0. -1.
         23    2    1    2    0    0  0.40701194013E+03 -0.14165444288E+01  0.27964390561E+03  0.50228238784E+03  0.91794102146E+02 0.  0.
         13    1    3    3    0    0  0.24978159031E+03 -0.14507808160E+02  0.11879835500E+03  0.27697358810E+03  0.00000000000E+00 0. -1.
        -13    1    3    3    0    0  0.15723034982E+03  0.13091263731E+02  0.16084555061E+03  0.22530879974E+03  0.00000000000E+00 0.  1.
         22    1    1    2    0    0 -0.40701194013E+03  0.14165444288E+01 -0.23818006669E+03  0.47158294092E+03  0.00000000000E+00 0. -1.
<mgrwt>
<rscale>  0 0.97298223E+03</rscale>
<asrwt>0</asrwt>
<pdfrwt beam="1">  1        2 0.71723191E-01 0.97298223E+03</pdfrwt>
<pdfrwt beam="2">  1       -2 0.78102244E-01 0.97298223E+03</pdfrwt>
<totfact> 0.97474275E+01</totfact>
</mgrwt>
</event>
<event>
 6    1  0.1588846E-005  0.1703977E+04  0.7818608E-02  0.8759100E-01
          2   -1    0    0  501    0  0.00000000000E+00  0.00000000000E+00  0.33928150566E+03  0.33928150566E+03  0.00000000000E+00 0. -1.
         -2   -1    0    0    0  501 -0.00000000000E+00 -0.00000000000E+00 -0.21394740545E+04  0.21394740545E+04  0.00000000000E+00 0.  1.
         23    2    1    2    0    0  0.20169563615E+03  0.38212492517E+02 -0.21015414859E+04  0.21141290306E+04  0.10451610848E+03 0.  0.
         13    1    3    3    0    0  0.13920495675E+03 -0.13713187245E+02 -0.15939735156E+04  0.16000992594E+04  0.00000000000E+00 0. -1.
        -13    1    3    3    0    0  0.62490679395E+02  0.51925679762E+02 -0.50756797027E+03  0.51402977119E+03  0.00000000000E+00 0.  1.
         22    1    1    2    0    0 -0.20169563615E+03 -0.38212492517E+02  0.30134893702E+03  0.36462652957E+03  0.00000000000E+00 0. -1.
<mgrwt>
<rscale>  0 0.17039765E+04</rscale>
<asrwt>0</asrwt>
<pdfrwt beam="1">  1        2 0.52197155E-01 0.17039765E+04</pdfrwt>
<pdfrwt beam="2">  1       -2 0.32914985E+00 0.17039765E+04</pdfrwt>
<totfact> 0.19196384E+00</totfact>
</mgrwt>
</event>
<event>
 6    1  0.1588846E-005  0.1679314E+04  0.7818608E-02  0.8773251E-01
         -1   -1    0    0    0  501 -0.00000000000E+00  0.00000000000E+00  0.34789455100E+03  0.34789455100E+03  0.00000000000E+00 0.  1.
          1   -1    0    0  501    0  0.00000000000E+00 -0.00000000000E+00 -0.20265443336E+04  0.20265443336E+04  0.00000000000E+00 0. -1.
         23    2    1    2    0    0  0.29009284953E+03 -0.33613538669E+03  0.16148652545E+03  0.48149343063E+03  0.92828693300E+02 0.  0.
         11    1    3    3    0    0  0.19803419303E+03 -0.17584802094E+03  0.12595918793E+03  0.29326742932E+03  0.00000000000E+00 0. -1.
        -11    1    3    3    0    0  0.92058656502E+02 -0.16028736575E+03  0.35527337518E+02  0.18822600130E+03  0.00000000000E+00 0.  1.
         22    1    1    2    0    0 -0.29009284953E+03  0.33613538669E+03 -0.18401363081E+04  0.18929454540E+04  0.00000000000E+00 0. -1.
<mgrwt>
<rscale>  0 0.16793138E+04</rscale>
<asrwt>0</asrwt>
<pdfrwt beam="1">  1        1 0.31177605E+00 0.16793138E+04</pdfrwt>
<pdfrwt beam="2">  1       -1 0.53522239E-01 0.16793138E+04</pdfrwt>
<totfact> 0.96020634E+00</totfact>
</mgrwt>
</event>
<event>
 6    1  0.1588846E-005  0.2382774E+04  0.7818608E-02  0.8445981E-01
          2   -1    0    0  501    0  0.00000000000E+00  0.00000000000E+00  0.10562492852E+04  0.10562492852E+04  0.00000000000E+00 0. -1.
         -2   -1    0    0    0  501 -0.00000000000E+00 -0.00000000000E+00 -0.13438147543E+04  0.13438147543E+04  0.00000000000E+00 0.  1.
         23    2    1    2    0    0 -0.48345990087E+03 -0.28675007988E+03 -0.12004012515E+04  0.13280434008E+04  0.82322693690E+02 0.  0.
         13    1    3    3    0    0 -0.44699720924E+03 -0.23566560407E+03 -0.10711960154E+04  0.11844009817E+04  0.00000000000E+00 0.  1.
        -13    1    3    3    0    0 -0.36462691631E+02 -0.51084475807E+02 -0.12920523604E+03  0.14364241912E+03  0.00000000000E+00 0. -1.
         22    1    1    2    0    0  0.48345990087E+03  0.28675007988E+03  0.91283578245E+03  0.10720206387E+04  0.00000000000E+00 0. -1.
<mgrwt>
<rscale>  0 0.23827743E+04</rscale>
<asrwt>0</asrwt>
<pdfrwt beam="1">  1        2 0.16249989E+00 0.23827743E+04</pdfrwt>
<pdfrwt beam="2">  1       -2 0.20674073E+00 0.23827743E+04</pdfrwt>
<totfact> 0.25103452E+00</totfact>
</mgrwt>
</event>
<event>
 6    1  0.1588846E-005  0.4986083E+04  0.7818608E-02  0.7830658E-01
         -2   -1    0    0    0  501 -0.00000000000E+00  0.00000000000E+00  0.26442979933E+04  0.26442979933E+04  0.00000000000E+00 0.  1.
          2   -1    0    0  501    0  0.00000000000E+00 -0.00000000000E+00 -0.23504370363E+04  0.23504370363E+04  0.00000000000E+00 0. -1.
         23    2    1    2    0    0 -0.56751682631E+03 -0.30115487133E+03  0.25590830733E+04  0.26401648267E+04  0.93779161594E+02 0.  0.
         11    1    3    3    0    0 -0.41104512466E+03 -0.23132394844E+03  0.20278886560E+04  0.20820185553E+04  0.00000000000E+00 0. -1.
        -11    1    3    3    0    0 -0.15647170165E+03 -0.69830922898E+02  0.53119441730E+03  0.55814627132E+03  0.00000000000E+00 0.  1.
         22    1    1    2    0    0  0.56751682631E+03  0.30115487133E+03 -0.22652221163E+04  0.23545702030E+04  0.00000000000E+00 0. -1.
<mgrwt>
<rscale>  0 0.49860830E+04</rscale>
<asrwt>0</asrwt>
<pdfrwt beam="1">  1        2 0.36160570E+00 0.49860830E+04</pdfrwt>
<pdfrwt beam="2">  1       -2 0.40681508E+00 0.49860830E+04</pdfrwt>
<totfact> 0.20730681E-02</totfact>
</mgrwt>
</event>
<event>
 6    1  0.1588846E-005  0.6346733E+03  0.7818608E-02  0.9835971E-01
          4   -1    0    0  501    0  0.00000000000E+00  0.00000000000E+00  0.58832770868E+02  0.58832770868E+02  0.00000000000E+00 0. -1.
         -4   -1    0    0    0  501 -0.00000000000E+00 -0.00000000000E+00 -0.17116746314E+04  0.17116746314E+04  0.00000000000E+00 0.  1.
         23    2    1    2    0    0 -0.28208288655E+03  0.31191658589E+02 -0.11965141440E+04  0.12331261043E+04  0.91707241011E+02 0.  0.
         13    1    3    3    0    0 -0.20539781291E+03 -0.19434898489E+02 -0.83783499850E+03  0.86286352428E+03  0.00000000000E+00 0.  1.
        -13    1    3    3    0    0 -0.76685073638E+02  0.50626557078E+02 -0.35867914546E+03  0.37026258005E+03  0.00000000000E+00 0. -1.
         22    1    1    2    0    0  0.28208288655E+03 -0.31191658589E+02 -0.45632771656E+03  0.53738129791E+03  0.00000000000E+00 0. -1.
<mgrwt>
<rscale>  0 0.63467334E+03</rscale>
<asrwt>0</asrwt>
<pdfrwt beam="1">  1        4 0.90511949E-02 0.63467334E+03</pdfrwt>
<pdfrwt beam="2">  1       -4 0.26333458E+00 0.63467334E+03</pdfrwt>
<totfact> 0.10034638E+01</totfact>
</mgrwt>
</event>
<event>
 6    1  0.1588846E-005  0.1594282E+04  0.7818608E-02  0.8824068E-01
         -1   -1    0    0    0  501 -0.00000000000E+00  0.00000000000E+00  0.12115569557E+04  0.12115569557E+04  0.00000000000E+00 0.  1.
          1   -1    0    0  501    0  0.00000000000E+00 -0.00000000000E+00 -0.52447711894E+03  0.52447711894E+03  0.00000000000E+00 0. -1.
         23    2    1    2    0    0  0.55898604686E+03 -0.53571542917E+03  0.53872368909E+03  0.94770294609E+03  0.91984994450E+02 0.  0.
         13    1    3    3    0    0  0.40622081526E+03 -0.37889203730E+03  0.33526202510E+03  0.64882597987E+03  0.00000000000E+00 0.  1.
        -13    1    3    3    0    0  0.15276523161E+03 -0.15682339188E+03  0.20346166399E+03  0.29887696623E+03  0.00000000000E+00 0. -1.
         22    1    1    2    0    0 -0.55898604686E+03  0.53571542917E+03  0.14835614764E+03  0.78833112851E+03  0.00000000000E+00 0. -1.
<mgrwt>
<rscale>  0 0.15942822E+04</rscale>
<asrwt>0</asrwt>
<pdfrwt beam="1">  1        1 0.80688788E-01 0.15942822E+04</pdfrwt>
<pdfrwt beam="2">  1       -1 0.18639338E+00 0.15942822E+04</pdfrwt>
<totfact> 0.74579409E+00</totfact>
</mgrwt>
</event>
<event>
 6    1  0.1588846E-005  0.1539499E+04  0.7818608E-02  0.8858603E-01
         -2   -1    0    0    0  501 -0.00000000000E+00  0.00000000000E+00  0.17688273687E+03  0.17688273687E+03  0.00000000000E+00 0.  1.
          2   -1    0    0  501    0  0.00000000000E+00 -0.00000000000E+00 -0.33497562455E+04  0.33497562455E+04  0.00000000000E+00 0. -1.
         23    2    1    2    0    0 -0.35442329271E+02  0.75704496715E+03 -0.13208017650E+04  0.15255035586E+04  0.90942639497E+02 0.  0.
         11    1    3    3    0    0 -0.45962952780E+01  0.67068476404E+03 -0.11365201987E+04  0.13196656170E+04  0.00000000000E+00 0.  1.
        -11    1    3    3    0    0 -0.30846033993E+02  0.86360203105E+02 -0.18428156638E+03  0.20583794160E+03  0.00000000000E+00 0. -1.
         22    1    1    2    0    0  0.35442329271E+02 -0.75704496715E+03 -0.18520717436E+04  0.20011354238E+04  0.00000000000E+00 0.  1.
<mgrwt>
<rscale>  0 0.15394987E+04</rscale>
<asrwt>0</asrwt>
<pdfrwt beam="1">  1        2 0.51534715E+00 0.15394987E+04</pdfrwt>
<pdfrwt beam="2">  1       -2 0.27212727E-01 0.15394987E+04</pdfrwt>
<totfact> 0.12342488E+01</totfact>
</mgrwt>
</event>
<event>
 6    1  0.1588846E-005  0.3036777E+04  0.7818608E-02  0.8233306E-01
          2   -1    0    0  501    0  0.00000000000E+00  0.00000000000E+00  0.15047849156E+04  0.15047849156E+04  0.00000000000E+00 0. -1.
         -2   -1    0    0    0  501 -0.00000000000E+00 -0.00000000000E+00 -0.15321150607E+04  0.15321150607E+04  0.00000000000E+00 0.  1.
         23    2    1    2    0    0  0.18111074602E+03  0.71462967223E+03 -0.13395597327E+04  0.15317610586E+04  0.91514984929E+02 0.  0.
         13    1    3    3    0    0  0.15323589359E+03  0.42262841317E+03 -0.81187050346E+03  0.92802463819E+03  0.00000000000E+00 0. -1.
        -13    1    3    3    0    0  0.27874852429E+02  0.29200125906E+03 -0.52768922925E+03  0.60373642043E+03  0.00000000000E+00 0.  1.
         22    1    1    2    0    0 -0.18111074602E+03 -0.71462967223E+03  0.13122295877E+04  0.15051389177E+04  0.00000000000E+00 0. -1.
<mgrwt>
<rscale>  0 0.30367770E+04</rscale>
<asrwt>0</asrwt>
<pdfrwt beam="1">  1        2 0.23150537E+00 0.30367770E+04</pdfrwt>
<pdfrwt beam="2">  1       -2 0.23571001E+00 0.30367770E+04</pdfrwt>
<totfact> 0.84799415E-01</totfact>
</mgrwt>
</event>
<event>
 6    1  0.1588846E-005  0.4913090E+04  0.7818608E-02  0.7842055E-01
         -2   -1    0    0    0  501 -0.00000000000E+00  0.00000000000E+00  0.15742423337E+04  0.15742423337E+04  0.00000000000E+00 0.  1.
          2   -1    0    0  501    0  0.00000000000E+00 -0.00000000000E+00 -0.38333451070E+04  0.38333451070E+04  0.00000000000E+00 0. -1.
         23    2    1    2    0    0  0.12459257370E+04 -0.20178388232E+04 -0.18318860896E+04  0.29979155640E+04  0.87673400908E+02 0.  0.
         11    1    3    3    0    0  0.51556875421E+03 -0.90584573418E+03 -0.77630531225E+03  0.12996220883E+04  0.00000000000E+00 0. -1.
        -11    1    3    3    0    0  0.73035698278E+03 -0.11119930890E+04 -0.10555807774E+04  0.16982934758E+04  0.00000000000E+00 0.  1.
         22    1    1    2    0    0 -0.12459257370E+04  0.20178388232E+04 -0.42721668362E+03  0.24096718767E+04  0.00000000000E+00 0. -1.
<mgrwt>
<rscale>  0 0.49130903E+04</rscale>
<asrwt>0</asrwt>
<pdfrwt beam="1">  1        2 0.58974539E+00 0.49130903E+04</pdfrwt>
<pdfrwt beam="2">  1       -2 0.24219113E+00 0.49130903E+04</pdfrwt>
<totfact> 0.24287925E-02</totfact>
</mgrwt>
</event>
<event>
 6    1  0.1588846E-005  0.2367673E+04  0.7818608E-02  0.8451706E-01
          1   -1    0    0  501    0  0.00000000000E+00  0.00000000000E+00  0.12743053938E+04  0.12743053938E+04  0.00000000000E+00 0. -1.
         -1   -1    0    0    0  501 -0.00000000000E+00 -0.00000000000E+00 -0.10997905193E+04  0.10997905193E+04  0.00000000000E+00 0.  1.
         23    2    1    2    0    0 -0.59392370469E+03 -0.34186174279E+03  0.10532492473E+04  0.12597400830E+04  0.89421930267E+02 0.  0.
         13    1    3    3    0    0 -0.25325546372E+03 -0.16011945469E+03  0.38361243384E+03  0.48675976526E+03  0.00000000000E+00 0. -1.
        -13    1    3    3    0    0 -0.34066824097E+03 -0.18174228810E+03  0.66963681342E+03  0.77298031772E+03  0.00000000000E+00 0.  1.
         22    1    1    2    0    0  0.59392370469E+03  0.34186174279E+03 -0.87873437282E+03  0.11143558301E+04  0.00000000000E+00 0.  1.
<mgrwt>
<rscale>  0 0.23676731E+04</rscale>
<asrwt>0</asrwt>
<pdfrwt beam="1">  1        1 0.19604698E+00 0.23676731E+04</pdfrwt>
<pdfrwt beam="2">  1       -1 0.16919854E+00 0.23676731E+04</pdfrwt>
<totfact> 0.21156190E+00</totfact>
</mgrwt>
</event>
<event>
 6    1  0.1588846E-005  0.9927222E+03  0.7818608E-02  0.9316563E-01
         -2   -1    0    0    0  501 -0.00000000000E+00  0.00000000000E+00  0.12935337601E+03  0.12935337601E+03  0.00000000000E+00 0.  1.
          2   -1    0    0  501    0  0.00000000000E+00 -0.00000000000E+00 -0.19046609269E+04  0.19046609269E+04  0.00000000000E+00 0. -1.
         23    2    1    2    0    0  0.29163562557E+02 -0.42830801607E+03 -0.40236631222E+03  0.59551998076E+03  0.91908260019E+02 0.  0.
         11    1    3    3    0    0  0.54940903601E+02 -0.38148970914E+03 -0.35846222710E+03  0.52635355924E+03  0.00000000000E+00 0. -1.
        -11    1    3    3    0    0 -0.25777341044E+02 -0.46818306930E+02 -0.43904085128E+02  0.69166421521E+02  0.00000000000E+00 0.  1.
         22    1    1    2    0    0 -0.29163562557E+02  0.42830801607E+03 -0.13729412386E+04  0.14384943221E+04  0.00000000000E+00 0. -1.
<mgrwt>
<rscale>  0 0.99272216E+03</rscale>
<asrwt>0</asrwt>
<pdfrwt beam="1">  1        2 0.29302473E+00 0.99272216E+03</pdfrwt>
<pdfrwt beam="2">  1       -2 0.19900521E-01 0.99272216E+03</pdfrwt>
<totfact> 0.16299079E+02</totfact>
</mgrwt>
</event>
<event>
 6    1  0.1588846E-005  0.1825620E+04  0.7818608E-02  0.8692792E-01
         -2   -1    0    0    0  501 -0.00000000000E+00  0.00000000000E+00  0.13038192406E+04  0.13038192406E+04  0.00000000000E+00 0.  1.
          2   -1    0    0  501    0  0.00000000000E+00 -0.00000000000E+00 -0.63906268107E+03  0.63906268107E+03  0.00000000000E+00 0. -1.
         23    2    1    2    0    0  0.58002362162E+03  0.63476788650E+03  0.14644054084E+02  0.86491905540E+03  0.92265121818E+02 0.  0.
         13    1    3    3    0    0  0.28182619007E+03  0.34987661385E+03  0.44278547457E+02  0.45144239510E+03  0.00000000000E+00 0.  1.
        -13    1    3    3    0    0  0.29819743155E+03  0.28489127265E+03 -0.29634493373E+02  0.41347666029E+03  0.00000000000E+00 0. -1.
         22    1    1    2    0    0 -0.58002362162E+03 -0.63476788650E+03  0.65011250548E+03  0.10779628663E+04  0.00000000000E+00 0. -1.
<mgrwt>
<rscale>  0 0.18256201E+04</rscale>
<asrwt>0</asrwt>
<pdfrwt beam="1">  1        2 0.98317336E-01 0.18256201E+04</pdfrwt>
<pdfrwt beam="2">  1       -2 0.20058757E+00 0.18256201E+04</pdfrwt>
<totfact> 0.56980897E+00</totfact>
</mgrwt>
</event>
<event>
 6    1  0.1588846E-005  0.1214725E+04  0.7818608E-02  0.9100065E-01
         -2   -1    0    0    0  501 -0.00000000000E+00  0.00000000000E+00  0.50097121428E+03  0.50097121428E+03  0.00000000000E+00 0.  1.
          2   -1    0    0  501    0  0.00000000000E+00 -0.00000000000E+00 -0.73634754459E+03  0.73634754459E+03  0.00000000000E+00 0. -1.
         23    2    1    2    0    0 -0.23304426523E+03 -0.50787068843E+03  0.11534692938E+03  0.57758466804E+03  0.89760063048E+02 0.  0.
         11    1    3    3    0    0 -0.11631021659E+03 -0.35507802751E+03  0.78746805638E+02  0.38185014273E+03  0.00000000000E+00 0. -1.
        -11    1    3    3    0    0 -0.11673404864E+03 -0.15279266092E+03  0.36600123739E+02  0.19573452531E+03  0.00000000000E+00 0.  1.
         22    1    1    2    0    0  0.23304426523E+03  0.50787068843E+03 -0.35072325968E+03  0.65973409083E+03  0.00000000000E+00 0. -1.
<mgrwt>
<rscale>  0 0.12147245E+04</rscale>
<asrwt>0</asrwt>
<pdfrwt beam="1">  1        2 0.11328424E+00 0.12147245E+04</pdfrwt>
<pdfrwt beam="2">  1       -2 0.77072495E-01 0.12147245E+04</pdfrwt>
<totfact> 0.56920612E+01</totfact>
</mgrwt>
</event>
<event>
 6    1  0.1588846E-005  0.4652648E+04  0.7818608E-02  0.7884444E-01
         -1   -1    0    0    0  501 -0.00000000000E+00  0.00000000000E+00  0.31126772417E+04  0.31126772417E+04  0.00000000000E+00 0.  1.
          1   -1    0    0  501    0  0.00000000000E+00 -0.00000000000E+00 -0.17386266377E+04  0.17386266377E+04  0.00000000000E+00 0. -1.
         23    2    1    2    0    0  0.13412325085E+04  0.17697700467E+04 -0.32684823790E+02  0.22226359234E+04  0.89730096730E+02 0.  0.
         11    1    3    3    0    0  0.73206257305E+03  0.10082826785E+04 -0.54800945859E+02  0.12472179898E+04  0.00000000000E+00 0. -1.
        -11    1    3    3    0    0  0.60916993542E+03  0.76148736820E+03  0.22116122070E+02  0.97541793351E+03  0.00000000000E+00 0.  1.
         22    1    1    2    0    0 -0.13412325085E+04 -0.17697700467E+04  0.14067354278E+04  0.26286679561E+04  0.00000000000E+00 0.  1.
<mgrwt>
<rscale>  0 0.46526481E+04</rscale>
<asrwt>0</asrwt>
<pdfrwt beam="1">  1        1 0.26748102E+00 0.46526481E+04</pdfrwt>
<pdfrwt beam="2">  1       -1 0.47887342E+00 0.46526481E+04</pdfrwt>
<totfact> 0.68608166E-03</totfact>
</mgrwt>
</event>
<event>
 6    1  0.1588846E-005  0.2299613E+04  0.7818608E-02  0.8478074E-01
         -2   -1    0    0    0  501 -0.00000000000E+00  0.00000000000E+00  0.52411068114E+03  0.52411068114E+03  0.00000000000E+00 0.  1.
          2   -1    0    0  501    0  0.00000000000E+00 -0.00000000000E+00 -0.25224724055E+04  0.25224724055E+04  0.00000000000E+00 0. -1.
         23    2    1    2    0    0  0.33923679654E+03  0.66549912387E+03 -0.21556629072E+04  0.22832257980E+04  0.90921875281E+02 0.  0.
         13    1    3    3    0    0  0.13247546311E+03  0.27283260000E+03 -0.74372593209E+03  0.80319091007E+03  0.00000000000E+00 0. -1.
        -13    1    3    3    0    0  0.20676133343E+03  0.39266652388E+03 -0.14119369751E+04  0.14800348880E+04  0.00000000000E+00 0.  1.
         22    1    1    2    0    0 -0.33923679654E+03 -0.66549912387E+03  0.15730118280E+03  0.76335728863E+03  0.00000000000E+00 0.  1.
<mgrwt>
<rscale>  0 0.22996128E+04</rscale>
<asrwt>0</asrwt>
<pdfrwt beam="1">  1        2 0.38807268E+00 0.22996128E+04</pdfrwt>
<pdfrwt beam="2">  1       -2 0.80632412E-01 0.22996128E+04</pdfrwt>
<totfact> 0.41590477E+00</totfact>
</mgrwt>
</event>
<event>
 6    1  0.1588846E-005  0.1865288E+04  0.7818608E-02  0.8672330E-01
          2   -1    0    0  501    0  0.00000000000E+00  0.00000000000E+00  0.44052360750E+04  0.44052360750E+04  0.00000000000E+00 0.  1.
         -2   -1    0    0    0  501 -0.00000000000E+00 -0.00000000000E+00 -0.19745243616E+03  0.19745243616E+03  0.00000000000E+00 0. -1.
         23    2    1    2    0    0 -0.79317024881E+03  0.69108673310E+02  0.32971144890E+04  0.33930549498E+04  0.89235007259E+02 0.  0.
         11    1    3    3    0    0 -0.65169761898E+03  0.43315041973E+02  0.28253277321E+04  0.28998384047E+04  0.00000000000E+00 0. -1.
        -11    1    3    3    0    0 -0.14147262982E+03  0.25793631337E+02  0.47178675687E+03  0.49321654511E+03  0.00000000000E+00 0.  1.
         22    1    1    2    0    0  0.79317024881E+03 -0.69108673310E+02  0.91066914992E+03  0.12096335614E+04  0.00000000000E+00 0.  1.
<mgrwt>
<rscale>  0 0.18652877E+04</rscale>
<asrwt>0</asrwt>
<pdfrwt beam="1">  1        2 0.67772855E+00 0.18652877E+04</pdfrwt>
<pdfrwt beam="2">  1       -2 0.30377301E-01 0.18652877E+04</pdfrwt>
<totfact> 0.14549389E+00</totfact>
</mgrwt>
</event>
<event>
 6    1  0.1588846E-005  0.1147564E+04  0.7818608E-02  0.9160034E-01
          1   -1    0    0  501    0  0.00000000000E+00  0.00000000000E+00  0.48717276126E+03  0.48717276126E+03  0.00000000000E+00 0. -1.
         -1   -1    0    0    0  501 -0.00000000000E+00 -0.00000000000E+00 -0.67578839216E+03  0.67578839216E+03  0.00000000000E+00 0.  1.
         23    2    1    2    0    0 -0.31007360961E+03  0.43787512786E+03 -0.28994402682E+03  0.61693211133E+03  0.93045259571E+02 0.  0.
         11    1    3    3    0    0 -0.11423900857E+03  0.19980568506E+03 -0.17008051557E+03  0.28618218784E+03  0.00000000000E+00 0.  1.
        -11    1    3    3    0    0 -0.19583460104E+03  0.23806944280E+03 -0.11986351125E+03  0.33074992349E+03  0.00000000000E+00 0. -1.
         22    1    1    2    0    0  0.31007360961E+03 -0.43787512786E+03  0.10132839592E+03  0.54602904208E+03  0.00000000000E+00 0. -1.
<mgrwt>
<rscale>  0 0.11475638E+04</rscale>
<asrwt>0</asrwt>
<pdfrwt beam="1">  1        1 0.74949655E-01 0.11475638E+04</pdfrwt>
<pdfrwt beam="2">  1       -1 0.10396745E+00 0.11475638E+04</pdfrwt>
<totfact> 0.39778003E+01</totfact>
</mgrwt>
</event>
<event>
 6    1  0.1588846E-005  0.1802793E+04  0.7818608E-02  0.8704815E-01
          1   -1    0    0  501    0  0.00000000000E+00  0.00000000000E+00  0.69530647589E+03  0.69530647589E+03  0.00000000000E+00 0. -1.
         -1   -1    0    0    0  501 -0.00000000000E+00 -0.00000000000E+00 -0.11685722090E+04  0.11685722090E+04  0.00000000000E+00 0.  1.
         23    2    1    2    0    0  0.45874695516E+03  0.52977094299E+03  0.34518928680E+03  0.78639335296E+03  0.90293083708E+02 0.  0.
         11    1    3    3    0    0  0.43454086243E+03  0.50830565445E+03  0.34810761890E+03  0.75390935384E+03  0.00000000000E+00 0. -1.
        -11    1    3    3    0    0  0.24206092729E+02  0.21465288533E+02 -0.29183320975E+01  0.32483999126E+02  0.00000000000E+00 0.  1.
         22    1    1    2    0    0 -0.45874695516E+03 -0.52977094299E+03 -0.81845501994E+03  0.10774853319E+04  0.00000000000E+00 0.  1.
<mgrwt>
<rscale>  0 0.18027932E+04</rscale>
<asrwt>0</asrwt>
<pdfrwt beam="1">  1        1 0.10697023E+00 0.18027932E+04</pdfrwt>
<pdfrwt beam="2">  1       -1 0.17978034E+00 0.18027932E+04</pdfrwt>
<totfact> 0.54229917E+00</totfact>
</mgrwt>
</event>
<event>
 6    1  0.1588846E-005  0.2813387E+04  0.7818608E-02  0.8299124E-01
         -2   -1    0    0    0  501 -0.00000000000E+00  0.00000000000E+00  0.12016704962E+04  0.12016704962E+04  0.00000000000E+00 0.  1.
          2   -1    0    0  501    0  0.00000000000E+00 -0.00000000000E+00 -0.16466969197E+04  0.16466969197E+04  0.00000000000E+00 0. -1.
         23    2    1    2    0    0 -0.48883628339E+03 -0.11585466285E+04 -0.85782220168E+03  0.15248903451E+04  0.90776827988E+02 0.  0.
         11    1    3    3    0    0 -0.14599431836E+03 -0.31551980092E+03 -0.19103392741E+03  0.39668759394E+03  0.00000000000E+00 0. -1.
        -11    1    3    3    0    0 -0.34284196503E+03 -0.84302682761E+03 -0.66678827426E+03  0.11282027512E+04  0.00000000000E+00 0.  1.
         22    1    1    2    0    0  0.48883628339E+03  0.11585466285E+04  0.41279577823E+03  0.13234770708E+04  0.00000000000E+00 0.  1.
<mgrwt>
<rscale>  0 0.28133874E+04</rscale>
<asrwt>0</asrwt>
<pdfrwt beam="1">  1        2 0.25333799E+00 0.28133874E+04</pdfrwt>
<pdfrwt beam="2">  1       -2 0.18487238E+00 0.28133874E+04</pdfrwt>
<totfact> 0.15326640E+00</totfact>
</mgrwt>
</event>
<event>
 6    1  0.2215396E-005  0.3239104E+04  0.7818608E-02  0.8178566E-01
         -2   -1    0    0    0  501 -0.00000000000E+00  0.00000000000E+00  0.11445961295E+04  0.11445961295E+04  0.00000000000E+00 0.  1.
          2   -1    0    0  501    0  0.00000000000E+00 -0.00000000000E+00 -0.22915929099E+04  0.22915929099E+04  0.00000000000E+00 0. -1.
         23    2    1    2    0    0 -0.14413494539E+04  0.17306618207E+03 -0.13325879806E+04  0.19726712755E+04  0.90559834179E+02 0.  0.
         13    1    3    3    0    0 -0.32333729860E+03  0.32307279081E+02 -0.24917636318E+03  0.40948703144E+03  0.00000000000E+00 0. -1.
        -13    1    3    3    0    0 -0.11180121553E+04  0.14075890299E+03 -0.10834116174E+04  0.15631842440E+04  0.00000000000E+00 0.  1.
         22    1    1    2    0    0  0.14413494539E+04 -0.17306618207E+03  0.18559120018E+03  0.14635177639E+04  0.00000000000E+00 0. -1.
<mgrwt>
<rscale>  0 0.32391038E+04</rscale>
<asrwt>0</asrwt>
<pdfrwt beam="1">  1        2 0.35255275E+00 0.32391038E+04</pdfrwt>
<pdfrwt beam="2">  1       -2 0.17609171E+00 0.32391038E+04</pdfrwt>
<totfact> 0.74267968E-01</totfact>
</mgrwt>
</event>
<event>
 6    1  0.1588846E-005  0.2646415E+04  0.7818608E-02  0.8352604E-01
         -2   -1    0    0    0  501 -0.00000000000E+00  0.00000000000E+00  0.62549007957E+03  0.62549007957E+03  0.00000000000E+00 0.  1.
          2   -1    0    0  501    0  0.00000000000E+00 -0.00000000000E+00 -0.27992090847E+04  0.27992090847E+04  0.00000000000E+00 0. -1.
         23    2    1    2    0    0 -0.88142768739E+03 -0.95245737484E+03 -0.76368079373E+03  0.15083751894E+04  0.88868095593E+02 0.  0.
         11    1    3    3    0    0 -0.56440087169E+03 -0.67117876084E+03 -0.51558097812E+03  0.10172772572E+04  0.00000000000E+00 0.  1.
        -11    1    3    3    0    0 -0.31702681570E+03 -0.28127861400E+03 -0.24809981561E+03  0.49109793227E+03  0.00000000000E+00 0. -1.
         22    1    1    2    0    0  0.88142768739E+03  0.95245737484E+03 -0.14100382114E+04  0.19163239749E+04  0.00000000000E+00 0.  1.
<mgrwt>
<rscale>  0 0.26464146E+04</rscale>
<asrwt>0</asrwt>
<pdfrwt beam="1">  1        2 0.43064756E+00 0.26464146E+04</pdfrwt>
<pdfrwt beam="2">  1       -2 0.96229242E-01 0.26464146E+04</pdfrwt>
<totfact> 0.18443086E+00</totfact>
</mgrwt>
</event>
<event>
 6    1  0.1588846E-005  0.2600538E+04  0.7818608E-02  0.8368019E-01
          3   -1    0    0  501    0  0.00000000000E+00  0.00000000000E+00  0.76185974670E+03  0.76185974670E+03  0.00000000000E+00 0. -1.
         -3   -1    0    0    0  501 -0.00000000000E+00 -0.00000000000E+00 -0.22191738268E+04  0.22191738268E+04  0.00000000000E+00 0.  1.
         23    2    1    2    0    0  0.64748731501E+03  0.52720602156E+03 -0.18697532044E+04  0.20497484165E+04  0.91134589386E+02 0.  0.
         13    1    3    3    0    0  0.49432280111E+03  0.44963961488E+03 -0.14932810161E+04  0.16359764693E+04  0.00000000000E+00 0. -1.
        -13    1    3    3    0    0  0.15316451390E+03  0.77566406681E+02 -0.37647218826E+03  0.41377194721E+03  0.00000000000E+00 0.  1.
         22    1    1    2    0    0 -0.64748731501E+03 -0.52720602156E+03  0.41243912434E+03  0.93128515695E+03  0.00000000000E+00 0. -1.
<mgrwt>
<rscale>  0 0.26005378E+04</rscale>
<asrwt>0</asrwt>
<pdfrwt beam="1">  1        3 0.11720919E+00 0.26005378E+04</pdfrwt>
<pdfrwt beam="2">  1       -3 0.34141136E+00 0.26005378E+04</pdfrwt>
<totfact> 0.30843100E-02</totfact>
</mgrwt>
</event>
<event>
 6    1  0.1588846E-005  0.2843316E+04  0.7818608E-02  0.8289945E-01
          2   -1    0    0  501    0  0.00000000000E+00  0.00000000000E+00  0.95925827501E+03  0.95925827501E+03  0.00000000000E+00 0. -1.
         -2   -1    0    0    0  501 -0.00000000000E+00 -0.00000000000E+00 -0.21069529988E+04  0.21069529988E+04  0.00000000000E+00 0.  1.
         23    2    1    2    0    0  0.10973950327E+04 -0.53930060621E+03  0.20413800767E+03  0.12434187087E+04  0.96419692499E+02 0.  0.
         13    1    3    3    0    0  0.79768980824E+03 -0.39417080790E+03  0.19176159129E+03  0.91019347606E+03  0.00000000000E+00 0. -1.
        -13    1    3    3    0    0  0.29970522451E+03 -0.14512979831E+03  0.12376416377E+02  0.33322523260E+03  0.00000000000E+00 0.  1.
         22    1    1    2    0    0 -0.10973950327E+04  0.53930060621E+03 -0.13518327314E+04  0.18227925651E+04  0.00000000000E+00 0.  1.
<mgrwt>
<rscale>  0 0.28433164E+04</rscale>
<asrwt>0</asrwt>
<pdfrwt beam="1">  1        2 0.14757820E+00 0.28433164E+04</pdfrwt>
<pdfrwt beam="2">  1       -2 0.32414661E+00 0.28433164E+04</pdfrwt>
<totfact> 0.52390668E-01</totfact>
</mgrwt>
</event>
<event>
 6    1  0.1588846E-005  0.2183976E+04  0.7818608E-02  0.8525127E-01
          1   -1    0    0  501    0  0.00000000000E+00  0.00000000000E+00  0.15616806838E+04  0.15616806838E+04  0.00000000000E+00 0. -1.
         -1   -1    0    0    0  501 -0.00000000000E+00 -0.00000000000E+00 -0.76356048107E+03  0.76356048107E+03  0.00000000000E+00 0.  1.
         23    2    1    2    0    0 -0.70663905731E+03 -0.24316964882E+03 -0.44482136069E+03  0.87493982876E+03  0.95830191453E+02 0.  0.
         11    1    3    3    0    0 -0.15640904265E+03 -0.14211575702E+02 -0.10463069113E+03  0.18871496770E+03  0.00000000000E+00 0.  1.
        -11    1    3    3    0    0 -0.55023001467E+03 -0.22895807312E+03 -0.34019066955E+03  0.68622486106E+03  0.00000000000E+00 0. -1.
         22    1    1    2    0    0  0.70663905731E+03  0.24316964882E+03  0.12429415634E+04  0.14503013361E+04  0.00000000000E+00 0. -1.
<mgrwt>
<rscale>  0 0.21839759E+04</rscale>
<asrwt>0</asrwt>
<pdfrwt beam="1">  1        1 0.24025857E+00 0.21839759E+04</pdfrwt>
<pdfrwt beam="2">  1       -1 0.11747084E+00 0.21839759E+04</pdfrwt>
<totfact> 0.35301626E+00</totfact>
</mgrwt>
</event>
<event>
 6    1  0.1588846E-005  0.3349045E+04  0.7818608E-02  0.8150527E-01
         -2   -1    0    0    0  501 -0.00000000000E+00  0.00000000000E+00  0.96639233677E+03  0.96639233677E+03  0.00000000000E+00 0.  1.
          2   -1    0    0  501    0  0.00000000000E+00 -0.00000000000E+00 -0.29015389399E+04  0.29015389399E+04  0.00000000000E+00 0. -1.
         23    2    1    2    0    0  0.91421985165E+03 -0.13000195604E+04 -0.15727464487E+04  0.22378445715E+04  0.92564245803E+02 0.  0.
         11    1    3    3    0    0  0.63891487194E+03 -0.83253922823E+03 -0.10418374144E+04  0.14787694134E+04  0.00000000000E+00 0. -1.
        -11    1    3    3    0    0  0.27530497971E+03 -0.46748033218E+03 -0.53090903436E+03  0.75907515806E+03  0.00000000000E+00 0.  1.
         22    1    1    2    0    0 -0.91421985165E+03  0.13000195604E+04 -0.36240015445E+03  0.16300867052E+04  0.00000000000E+00 0.  1.
<mgrwt>
<rscale>  0 0.33490446E+04</rscale>
<asrwt>0</asrwt>
<pdfrwt beam="1">  1        2 0.44639060E+00 0.33490446E+04</pdfrwt>
<pdfrwt beam="2">  1       -2 0.14867574E+00 0.33490446E+04</pdfrwt>
<totfact> 0.51123837E-01</totfact>
</mgrwt>
</event>
<event>
 6    1  0.1588846E-005  0.3293661E+04  0.7818608E-02  0.8164510E-01
         -2   -1    0    0    0  501 -0.00000000000E+00  0.00000000000E+00  0.90278531356E+03  0.90278531356E+03  0.00000000000E+00 0. -1.
          2   -1    0    0  501    0  0.00000000000E+00 -0.00000000000E+00 -0.30040928031E+04  0.30040928031E+04  0.00000000000E+00 0.  1.
         23    2    1    2    0    0 -0.97726707749E+03 -0.12751261480E+04 -0.62894965780E+03  0.17276958804E+04  0.91420726496E+02 0.  0.
         13    1    3    3    0    0 -0.60385238628E+03 -0.85141880610E+03 -0.38630009674E+03  0.11130046956E+04  0.00000000000E+00 0.  1.
        -13    1    3    3    0    0 -0.37341469122E+03 -0.42370734187E+03 -0.24264956106E+03  0.61469118479E+03  0.00000000000E+00 0. -1.
         22    1    1    2    0    0  0.97726707749E+03  0.12751261480E+04 -0.14723578317E+04  0.21791822362E+04  0.00000000000E+00 0.  1.
<mgrwt>
<rscale>  0 0.32936611E+04</rscale>
<asrwt>0</asrwt>
<pdfrwt beam="1">  1        2 0.46216813E+00 0.32936611E+04</pdfrwt>
<pdfrwt beam="2">  1       -2 0.13889005E+00 0.32936611E+04</pdfrwt>
<totfact> 0.52995552E-01</totfact>
</mgrwt>
</event>
<event>
 6    1  0.1588846E-005  0.1319989E+04  0.7818608E-02  0.9013862E-01
         -2   -1    0    0    0  501 -0.00000000000E+00  0.00000000000E+00  0.28835690529E+03  0.28835690529E+03  0.00000000000E+00 0. -1.
          2   -1    0    0  501    0  0.00000000000E+00 -0.00000000000E+00 -0.15106027715E+04  0.15106027715E+04  0.00000000000E+00 0.  1.
         23    2    1    2    0    0  0.37929238753E+03  0.53193623454E+03 -0.70624464995E+03  0.96644773814E+03  0.91765200959E+02 0.  0.
         13    1    3    3    0    0  0.19254051451E+03  0.28101590145E+03 -0.30139125715E+03  0.45483895665E+03  0.00000000000E+00 0. -1.
        -13    1    3    3    0    0  0.18675187301E+03  0.25092033309E+03 -0.40485339281E+03  0.51160878149E+03  0.00000000000E+00 0.  1.
         22    1    1    2    0    0 -0.37929238753E+03 -0.53193623454E+03 -0.51600121629E+03  0.83251193870E+03  0.00000000000E+00 0. -1.
<mgrwt>
<rscale>  0 0.13199890E+04</rscale>
<asrwt>0</asrwt>
<pdfrwt beam="1">  1        2 0.23240042E+00 0.13199890E+04</pdfrwt>
<pdfrwt beam="2">  1       -2 0.44362602E-01 0.13199890E+04</pdfrwt>
<totfact> 0.59033035E+01</totfact>
</mgrwt>
</event>
<event>
 6    1  0.1588846E-005  0.6668402E+03  0.7818608E-02  0.9775683E-01
         -1   -1    0    0    0  501 -0.00000000000E+00  0.00000000000E+00  0.20844908378E+03  0.20844908378E+03  0.00000000000E+00 0.  1.
          1   -1    0    0  501    0  0.00000000000E+00 -0.00000000000E+00 -0.53331478929E+03  0.53331478929E+03  0.00000000000E+00 0. -1.
         23    2    1    2    0    0  0.28509059788E+03 -0.15917238850E+03 -0.13923851444E+03  0.36617107186E+03  0.89896561099E+02 0.  0.
         13    1    3    3    0    0  0.20013915790E+03 -0.15568816218E+03 -0.10767552731E+03  0.27547868439E+03  0.00000000000E+00 0. -1.
        -13    1    3    3    0    0  0.84951439983E+02 -0.34842263149E+01 -0.31562987136E+02  0.90692387471E+02  0.00000000000E+00 0.  1.
         22    1    1    2    0    0 -0.28509059788E+03  0.15917238850E+03 -0.18562719106E+03  0.37559280122E+03  0.00000000000E+00 0. -1.
<mgrwt>
<rscale>  0 0.66684025E+03</rscale>
<asrwt>0</asrwt>
<pdfrwt beam="1">  1        1 0.82048429E-01 0.66684025E+03</pdfrwt>
<pdfrwt beam="2">  1       -1 0.32069090E-01 0.66684025E+03</pdfrwt>
<totfact> 0.37174982E+02</totfact>
</mgrwt>
</event>
<event>
 6    1  0.1588846E-005  0.1748623E+04  0.7818608E-02  0.8734108E-01
          1   -1    0    0  501    0  0.00000000000E+00  0.00000000000E+00  0.10583568437E+04  0.10583568437E+04  0.00000000000E+00 0. -1.
         -1   -1    0    0    0  501 -0.00000000000E+00 -0.00000000000E+00 -0.72227142623E+03  0.72227142623E+03  0.00000000000E+00 0.  1.
         23    2    1    2    0    0  0.31136800048E+03  0.21506795268E+03 -0.63156563722E+03  0.74161295742E+03  0.88940252450E+02 0.  0.
         13    1    3    3    0    0  0.39175342664E+02  0.25436023821E+02 -0.14800256082E+03  0.15519812109E+03  0.00000000000E+00 0. -1.
        -13    1    3    3    0    0  0.27219265782E+03  0.18963192886E+03 -0.48356307640E+03  0.58641483633E+03  0.00000000000E+00 0.  1.
         22    1    1    2    0    0 -0.31136800048E+03 -0.21506795268E+03  0.96765105468E+03  0.10390153125E+04  0.00000000000E+00 0. -1.
<mgrwt>
<rscale>  0 0.17486234E+04</rscale>
<asrwt>0</asrwt>
<pdfrwt beam="1">  1        1 0.16282413E+00 0.17486234E+04</pdfrwt>
<pdfrwt beam="2">  1       -1 0.11111868E+00 0.17486234E+04</pdfrwt>
<totfact> 0.96310026E+00</totfact>
</mgrwt>
</event>
<event>
 6    1  0.1588846E-005  0.1844019E+04  0.7818608E-02  0.8683235E-01
         -1   -1    0    0    0  501 -0.00000000000E+00  0.00000000000E+00  0.10186380839E+04  0.10186380839E+04  0.00000000000E+00 0.  1.
          1   -1    0    0  501    0  0.00000000000E+00 -0.00000000000E+00 -0.83454730595E+03  0.83454730595E+03  0.00000000000E+00 0. -1.
         23    2    1    2    0    0 -0.60147619151E+03 -0.63495242095E+01 -0.60697986834E+03  0.85940136260E+03  0.91280973137E+02 0.  0.
         11    1    3    3    0    0 -0.17986466939E+03  0.13558036509E+02 -0.23906505137E+03  0.29947824368E+03  0.00000000000E+00 0. -1.
        -11    1    3    3    0    0 -0.42161152212E+03 -0.19907560719E+02 -0.36791481697E+03  0.55992311892E+03  0.00000000000E+00 0.  1.
         22    1    1    2    0    0  0.60147619151E+03  0.63495242095E+01  0.79107064630E+03  0.99378402727E+03  0.00000000000E+00 0. -1.
<mgrwt>
<rscale>  0 0.18440192E+04</rscale>
<asrwt>0</asrwt>
<pdfrwt beam="1">  1        1 0.12839189E+00 0.18440192E+04</pdfrwt>
<pdfrwt beam="2">  1       -1 0.15671355E+00 0.18440192E+04</pdfrwt>
<totfact> 0.60080389E+00</totfact>
</mgrwt>
</event>
<event>
 6    1  0.1588846E-005  0.4810549E+04  0.7818608E-02  0.7858415E-01
          2   -1    0    0  501    0  0.00000000000E+00  0.00000000000E+00  0.23345692061E+04  0.23345692061E+04  0.00000000000E+00 0. -1.
         -2   -1    0    0    0  501 -0.00000000000E+00 -0.00000000000E+00 -0.24781212282E+04  0.24781212282E+04  0.00000000000E+00 0.  1.
         23    2    1    2    0    0  0.18030406890E+04  0.26271221101E+03  0.14976940852E+04  0.23604134890E+04  0.92145720815E+02 0.  0.
         11    1    3    3    0    0  0.43749352564E+03  0.34591081405E+02  0.32623917068E+03  0.54683555515E+03  0.00000000000E+00 0. -1.
        -11    1    3    3    0    0  0.13655471634E+04  0.22812112961E+03  0.11714549146E+04  0.18135779338E+04  0.00000000000E+00 0.  1.
         22    1    1    2    0    0 -0.18030406890E+04 -0.26271221101E+03 -0.16412461073E+04  0.24522769454E+04  0.00000000000E+00 0.  1.
<mgrwt>
<rscale>  0 0.48105490E+04</rscale>
<asrwt>0</asrwt>
<pdfrwt beam="1">  1        2 0.35916449E+00 0.48105490E+04</pdfrwt>
<pdfrwt beam="2">  1       -2 0.38124942E+00 0.48105490E+04</pdfrwt>
<totfact> 0.31479824E-02</totfact>
</mgrwt>
</event>
<event>
 6    1  0.1588846E-005  0.3521817E+04  0.7818608E-02  0.8108639E-01
         -1   -1    0    0    0  501 -0.00000000000E+00  0.00000000000E+00  0.14151089156E+04  0.14151089156E+04  0.00000000000E+00 0.  1.
          1   -1    0    0  501    0  0.00000000000E+00 -0.00000000000E+00 -0.21912082676E+04  0.21912082676E+04  0.00000000000E+00 0. -1.
         23    2    1    2    0    0 -0.85164207449E+03  0.32437346516E+02  0.11880645816E+04  0.14652225188E+04  0.95043016725E+02 0.  0.
         11    1    3    3    0    0 -0.40362535084E+03  0.34318991007E+02  0.63880555184E+03  0.75641506466E+03  0.00000000000E+00 0.  1.
        -11    1    3    3    0    0 -0.44801672365E+03 -0.18816444915E+01  0.54925902974E+03  0.70880745411E+03  0.00000000000E+00 0. -1.
         22    1    1    2    0    0  0.85164207449E+03 -0.32437346516E+02 -0.19641639335E+04  0.21410946645E+04  0.00000000000E+00 0. -1.
<mgrwt>
<rscale>  0 0.35218168E+04</rscale>
<asrwt>0</asrwt>
<pdfrwt beam="1">  1        1 0.33710896E+00 0.35218168E+04</pdfrwt>
<pdfrwt beam="2">  1       -1 0.21770906E+00 0.35218168E+04</pdfrwt>
<totfact> 0.20510361E-01</totfact>
</mgrwt>
</event>
<event>
 6    1  0.1588846E-005  0.3157301E+04  0.7818608E-02  0.8200186E-01
         -2   -1    0    0    0  501 -0.00000000000E+00  0.00000000000E+00  0.52942584846E+03  0.52942584846E+03  0.00000000000E+00 0. -1.
          2   -1    0    0  501    0  0.00000000000E+00 -0.00000000000E+00 -0.47072455965E+04  0.47072455965E+04  0.00000000000E+00 0.  1.
         23    2    1    2    0    0 -0.10101244796E+04 -0.62442595893E+03 -0.36866695714E+03  0.12466959780E+04  0.89868202266E+02 0.  0.
         11    1    3    3    0    0 -0.70258853592E+03 -0.42479362927E+03 -0.21182477938E+03  0.84790920235E+03  0.00000000000E+00 0. -1.
        -11    1    3    3    0    0 -0.30753594370E+03 -0.19963232966E+03 -0.15684217775E+03  0.39878677565E+03  0.00000000000E+00 0.  1.
         22    1    1    2    0    0  0.10101244796E+04  0.62442595893E+03 -0.38091527908E+04  0.39899754669E+04  0.00000000000E+00 0.  1.
<mgrwt>
<rscale>  0 0.31573011E+04</rscale>
<asrwt>0</asrwt>
<pdfrwt beam="1">  1        2 0.72419164E+00 0.31573011E+04</pdfrwt>
<pdfrwt beam="2">  1       -2 0.81450130E-01 0.31573011E+04</pdfrwt>
<totfact> 0.84317937E-02</totfact>
</mgrwt>
</event>
<event>
 6    1  0.1588846E-005  0.2479182E+04  0.7818608E-02  0.8410440E-01
          2   -1    0    0  501    0  0.00000000000E+00  0.00000000000E+00  0.15779260444E+04  0.15779260444E+04  0.00000000000E+00 0.  1.
         -2   -1    0    0    0  501 -0.00000000000E+00 -0.00000000000E+00 -0.97380081914E+03  0.97380081914E+03  0.00000000000E+00 0. -1.
         23    2    1    2    0    0  0.16286928109E+03 -0.12266632821E+04  0.33670495206E+03  0.12857320718E+04  0.92236247538E+02 0.  0.
         11    1    3    3    0    0  0.10272995657E+03 -0.56049207452E+03  0.11721071065E+03  0.58175867872E+03  0.00000000000E+00 0. -1.
        -11    1    3    3    0    0  0.60139324516E+02 -0.66617120754E+03  0.21949424140E+03  0.70397339305E+03  0.00000000000E+00 0.  1.
         22    1    1    2    0    0 -0.16286928109E+03  0.12266632821E+04  0.26742027321E+03  0.12659947918E+04  0.00000000000E+00 0.  1.
<mgrwt>
<rscale>  0 0.24791819E+04</rscale>
<asrwt>0</asrwt>
<pdfrwt beam="1">  1        2 0.24275785E+00 0.24791819E+04</pdfrwt>
<pdfrwt beam="2">  1       -2 0.14981551E+00 0.24791819E+04</pdfrwt>
<totfact> 0.30819794E+00</totfact>
</mgrwt>
</event>
<event>
 6    1  0.1588846E-005  0.2820561E+04  0.7818608E-02  0.8296913E-01
          2   -1    0    0  501    0  0.00000000000E+00  0.00000000000E+00  0.12382339787E+04  0.12382339787E+04  0.00000000000E+00 0. -1.
         -2   -1    0    0    0  501 -0.00000000000E+00 -0.00000000000E+00 -0.16062324042E+04  0.16062324042E+04  0.00000000000E+00 0.  1.
         23    2    1    2    0    0  0.82484324297E+03  0.43018935533E+03  0.88256481469E+03  0.12858331116E+04  0.94957262770E+02 0.  0.
         11    1    3    3    0    0  0.34969842388E+03  0.13637758064E+03  0.32404597335E+03  0.49587662277E+03  0.00000000000E+00 0.  1.
        -11    1    3    3    0    0  0.47514481909E+03  0.29381177469E+03  0.55851884135E+03  0.78995648880E+03  0.00000000000E+00 0. -1.
         22    1    1    2    0    0 -0.82484324297E+03 -0.43018935533E+03 -0.12505632402E+04  0.15586332714E+04  0.00000000000E+00 0.  1.
<mgrwt>
<rscale>  0 0.28205613E+04</rscale>
<asrwt>0</asrwt>
<pdfrwt beam="1">  1        2 0.19049754E+00 0.28205613E+04</pdfrwt>
<pdfrwt beam="2">  1       -2 0.24711268E+00 0.28205613E+04</pdfrwt>
<totfact> 0.10452931E+00</totfact>
</mgrwt>
</event>
<event>
 6    1  0.1588846E-005  0.1356084E+04  0.7818608E-02  0.8986235E-01
         -1   -1    0    0    0  501 -0.00000000000E+00  0.00000000000E+00  0.83702438008E+03  0.83702438008E+03  0.00000000000E+00 0.  1.
          1   -1    0    0  501    0  0.00000000000E+00 -0.00000000000E+00 -0.54925632056E+03  0.54925632056E+03  0.00000000000E+00 0. -1.
         23    2    1    2    0    0 -0.59410378008E+03 -0.26774329060E+03 -0.35171176946E+02  0.65900116593E+03  0.91650170986E+02 0.  0.
         11    1    3    3    0    0 -0.45079539899E+03 -0.22446553364E+03  0.64237940323E+01  0.50362936041E+03  0.00000000000E+00 0. -1.
        -11    1    3    3    0    0 -0.14330838109E+03 -0.43277756965E+02 -0.41594970979E+02  0.15537180552E+03  0.00000000000E+00 0.  1.
         22    1    1    2    0    0  0.59410378008E+03  0.26774329060E+03  0.32293923646E+03  0.72727953471E+03  0.00000000000E+00 0.  1.
<mgrwt>
<rscale>  0 0.13560840E+04</rscale>
<asrwt>0</asrwt>
<pdfrwt beam="1">  1        1 0.84500972E-01 0.13560840E+04</pdfrwt>
<pdfrwt beam="2">  1       -1 0.12877298E+00 0.13560840E+04</pdfrwt>
<totfact> 0.19757129E+01</totfact>
</mgrwt>
</event>
<event>
 6    1  0.1588846E-005  0.1849745E+04  0.7818608E-02  0.8680284E-01
         -1   -1    0    0    0  501 -0.00000000000E+00  0.00000000000E+00  0.53276034650E+03  0.53276034650E+03  0.00000000000E+00 0.  1.
          1   -1    0    0  501    0  0.00000000000E+00 -0.00000000000E+00 -0.16055795418E+04  0.16055795418E+04  0.00000000000E+00 0. -1.
         23    2    1    2    0    0 -0.82857574030E+03 -0.39106203682E+03 -0.66379817894E+03  0.11349628576E+04  0.89696107043E+02 0.  0.
         13    1    3    3    0    0 -0.76810991185E+03 -0.33578783965E+03 -0.61379542857E+03  0.10389856294E+04  0.00000000000E+00 0.  1.
        -13    1    3    3    0    0 -0.60465828450E+02 -0.55274197173E+02 -0.50002750375E+02  0.95977228176E+02  0.00000000000E+00 0. -1.
         22    1    1    2    0    0  0.82857574030E+03  0.39106203682E+03 -0.40902101640E+03  0.10033770308E+04  0.00000000000E+00 0. -1.
<mgrwt>
<rscale>  0 0.18497450E+04</rscale>
<asrwt>0</asrwt>
<pdfrwt beam="1">  1        1 0.24701223E+00 0.18497450E+04</pdfrwt>
<pdfrwt beam="2">  1       -1 0.81963132E-01 0.18497450E+04</pdfrwt>
<totfact> 0.76963547E+00</totfact>
</mgrwt>
</event>
<event>
 6    1  0.1588846E-005  0.5138436E+04  0.7818608E-02  0.7807500E-01
          2   -1    0    0  501    0  0.00000000000E+00  0.00000000000E+00  0.31136458031E+04  0.31136458031E+04  0.00000000000E+00 0. -1.
         -2   -1    0    0    0  501 -0.00000000000E+00 -0.00000000000E+00 -0.21199846365E+04  0.21199846365E+04  0.00000000000E+00 0.  1.
         23    2    1    2    0    0 -0.12790545909E+04 -0.19186085027E+04 -0.65521450758E+03  0.23988764428E+04  0.90900514516E+02 0.  0.
         13    1    3    3    0    0 -0.59761243889E+03 -0.86458235092E+03 -0.25532031272E+03  0.10815875973E+04  0.00000000000E+00 0.  1.
        -13    1    3    3    0    0 -0.68144215203E+03 -0.10540261518E+04 -0.39989419486E+03  0.13172888454E+04  0.00000000000E+00 0. -1.
         22    1    1    2    0    0  0.12790545909E+04  0.19186085027E+04  0.16488756742E+04  0.28347539967E+04  0.00000000000E+00 0. -1.
<mgrwt>
<rscale>  0 0.51384361E+04</rscale>
<asrwt>0</asrwt>
<pdfrwt beam="1">  1        2 0.47902243E+00 0.51384361E+04</pdfrwt>
<pdfrwt beam="2">  1       -2 0.32615148E+00 0.51384361E+04</pdfrwt>
<totfact> 0.23277158E-02</totfact>
</mgrwt>
</event>
<event>
 6    1  0.1588846E-005  0.1556794E+04  0.7818608E-02  0.8847539E-01
          2   -1    0    0  501    0  0.00000000000E+00  0.00000000000E+00  0.21308206428E+04  0.21308206428E+04  0.00000000000E+00 0. -1.
         -2   -1    0    0    0  501 -0.00000000000E+00 -0.00000000000E+00 -0.28435158574E+03  0.28435158574E+03  0.00000000000E+00 0.  1.
         23    2    1    2    0    0  0.16162541935E+03  0.74160763196E+03  0.11746391461E+04  0.14015351706E+04  0.91755408046E+02 0.  0.
         13    1    3    3    0    0  0.14993752262E+03  0.70621122353E+03  0.11463294894E+04  0.13547275930E+04  0.00000000000E+00 0. -1.
        -13    1    3    3    0    0  0.11687896731E+02  0.35396408428E+02  0.28309656721E+02  0.46807577626E+02  0.00000000000E+00 0.  1.
         22    1    1    2    0    0 -0.16162541935E+03 -0.74160763196E+03  0.67182991092E+03  0.10136370579E+04  0.00000000000E+00 0.  1.
<mgrwt>
<rscale>  0 0.15567944E+04</rscale>
<asrwt>0</asrwt>
<pdfrwt beam="1">  1        2 0.32781855E+00 0.15567944E+04</pdfrwt>
<pdfrwt beam="2">  1       -2 0.43746399E-01 0.15567944E+04</pdfrwt>
<totfact> 0.26938062E+01</totfact>
</mgrwt>
</event>
<event>
 6    1  0.1588846E-005  0.1386320E+04  0.7818608E-02  0.8963781E-01
         -2   -1    0    0    0  501 -0.00000000000E+00  0.00000000000E+00  0.27267392442E+03  0.27267392442E+03  0.00000000000E+00 0.  1.
          2   -1    0    0  501    0  0.00000000000E+00 -0.00000000000E+00 -0.17620698191E+04  0.17620698191E+04  0.00000000000E+00 0. -1.
         23    2    1    2    0    0 -0.62505916381E+03 -0.27955465334E+03 -0.87412905429E+03  0.11141987705E+04  0.92127814163E+02 0.  0.
         13    1    3    3    0    0 -0.52838531550E+03 -0.24192307365E+03 -0.68338392954E+03  0.89706823060E+03  0.00000000000E+00 0. -1.
        -13    1    3    3    0    0 -0.96673848313E+02 -0.37631579689E+02 -0.19074512475E+03  0.21713053989E+03  0.00000000000E+00 0.  1.
         22    1    1    2    0    0  0.62505916381E+03  0.27955465334E+03 -0.61526684041E+03  0.92054497304E+03  0.00000000000E+00 0.  1.
<mgrwt>
<rscale>  0 0.13863196E+04</rscale>
<asrwt>0</asrwt>
<pdfrwt beam="1">  1        2 0.27108766E+00 0.13863196E+04</pdfrwt>
<pdfrwt beam="2">  1       -2 0.41949835E-01 0.13863196E+04</pdfrwt>
<totfact> 0.47520422E+01</totfact>
</mgrwt>
</event>
<event>
 6    1  0.1588846E-005  0.3879191E+04  0.7818608E-02  0.8029371E-01
         -2   -1    0    0    0  501 -0.00000000000E+00  0.00000000000E+00  0.12660595378E+04  0.12660595378E+04  0.00000000000E+00 0.  1.
          2   -1    0    0  501    0  0.00000000000E+00 -0.00000000000E+00 -0.29714484891E+04  0.29714484891E+04  0.00000000000E+00 0. -1.
         23    2    1    2    0    0  0.81078575514E+03 -0.17439861198E+04 -0.11189839711E+04  0.22268534252E+04  0.88825238328E+02 0.  0.
         11    1    3    3    0    0  0.55106593531E+03 -0.11161354095E+04 -0.68800694269E+03  0.14222466279E+04  0.00000000000E+00 0. -1.
        -11    1    3    3    0    0  0.25971981982E+03 -0.62785071024E+03 -0.43097702844E+03  0.80460679726E+03  0.00000000000E+00 0.  1.
         22    1    1    2    0    0 -0.81078575514E+03  0.17439861198E+04 -0.58640498018E+03  0.20106546017E+04  0.00000000000E+00 0.  1.
<mgrwt>
<rscale>  0 0.38791910E+04</rscale>
<asrwt>0</asrwt>
<pdfrwt beam="1">  1        2 0.45714592E+00 0.38791910E+04</pdfrwt>
<pdfrwt beam="2">  1       -2 0.19477839E+00 0.38791910E+04</pdfrwt>
<totfact> 0.20801213E-01</totfact>
</mgrwt>
</event>
<event>
 6    1  0.1588846E-005  0.5200217E+04  0.7818608E-02  0.7798343E-01
          2   -1    0    0  501    0  0.00000000000E+00  0.00000000000E+00  0.31045119174E+04  0.31045119174E+04  0.00000000000E+00 0. -1.
         -2   -1    0    0    0  501 -0.00000000000E+00 -0.00000000000E+00 -0.21776576033E+04  0.21776576033E+04  0.00000000000E+00 0.  1.
         23    2    1    2    0    0  0.95462251601E+03 -0.11481709847E+04  0.26247527052E+04  0.30210946205E+04  0.89917651687E+02 0.  0.
         13    1    3    3    0    0  0.51451489120E+03 -0.62516786697E+03  0.13327269007E+04  0.15593977770E+04  0.00000000000E+00 0. -1.
        -13    1    3    3    0    0  0.44010762481E+03 -0.52300311773E+03  0.12920258045E+04  0.14616968434E+04  0.00000000000E+00 0.  1.
         22    1    1    2    0    0 -0.95462251601E+03  0.11481709847E+04 -0.16978983911E+04  0.22610749003E+04  0.00000000000E+00 0.  1.
<mgrwt>
<rscale>  0 0.52002169E+04</rscale>
<asrwt>0</asrwt>
<pdfrwt beam="1">  1        2 0.47761722E+00 0.52002169E+04</pdfrwt>
<pdfrwt beam="2">  1       -2 0.33502424E+00 0.52002169E+04</pdfrwt>
<totfact> 0.20676848E-02</totfact>
</mgrwt>
</event>
<event>
 6    1  0.1588846E-005  0.1863905E+04  0.7818608E-02  0.8673035E-01
          1   -1    0    0  501    0  0.00000000000E+00  0.00000000000E+00  0.67477143461E+03  0.67477143461E+03  0.00000000000E+00 0. -1.
         -1   -1    0    0    0  501 -0.00000000000E+00 -0.00000000000E+00 -0.12871544249E+04  0.12871544249E+04  0.00000000000E+00 0.  1.
         23    2    1    2    0    0  0.25072760081E+03  0.52735896748E+03 -0.10683532201E+04  0.12210610534E+04  0.92949894466E+02 0.  0.
         13    1    3    3    0    0  0.22979178069E+03  0.39368418932E+03 -0.83460199288E+03  0.95097423199E+03  0.00000000000E+00 0. -1.
        -13    1    3    3    0    0  0.20935820120E+02  0.13367477816E+03 -0.23375122725E+03  0.27008682145E+03  0.00000000000E+00 0.  1.
         22    1    1    2    0    0 -0.25072760081E+03 -0.52735896748E+03  0.45597022984E+03  0.74086480608E+03  0.00000000000E+00 0. -1.
<mgrwt>
<rscale>  0 0.18639045E+04</rscale>
<asrwt>0</asrwt>
<pdfrwt beam="1">  1        1 0.10381099E+00 0.18639045E+04</pdfrwt>
<pdfrwt beam="2">  1       -1 0.19802376E+00 0.18639045E+04</pdfrwt>
<totfact> 0.41974194E+00</totfact>
</mgrwt>
</event>
<event>
 6    1  0.1588846E-005  0.2830262E+04  0.7818608E-02  0.8293934E-01
          2   -1    0    0  501    0  0.00000000000E+00  0.00000000000E+00  0.10364612642E+04  0.10364612642E+04  0.00000000000E+00 0. -1.
         -2   -1    0    0    0  501 -0.00000000000E+00 -0.00000000000E+00 -0.19321475984E+04  0.19321475984E+04  0.00000000000E+00 0.  1.
         23    2    1    2    0    0 -0.12590957141E+04 -0.40588338379E+03  0.74265065308E+02  0.13282220008E+04  0.92709465307E+02 0.  0.
         11    1    3    3    0    0 -0.73112045413E+03 -0.25077646315E+03 -0.95238904189E-01  0.77293334900E+03  0.00000000000E+00 0.  1.
        -11    1    3    3    0    0 -0.52797526002E+03 -0.15510692063E+03  0.74360304212E+02  0.55528865184E+03  0.00000000000E+00 0. -1.
         22    1    1    2    0    0  0.12590957141E+04  0.40588338379E+03 -0.96995139957E+03  0.16403868617E+04  0.00000000000E+00 0.  1.
<mgrwt>
<rscale>  0 0.28302623E+04</rscale>
<asrwt>0</asrwt>
<pdfrwt beam="1">  1        2 0.15945558E+00 0.28302623E+04</pdfrwt>
<pdfrwt beam="2">  1       -2 0.29725348E+00 0.28302623E+04</pdfrwt>
<totfact> 0.68461767E-01</totfact>
</mgrwt>
</event>
<event>
 6    1  0.1588846E-005  0.2907076E+04  0.7818608E-02  0.8270775E-01
          2   -1    0    0  501    0  0.00000000000E+00  0.00000000000E+00  0.19784395484E+04  0.19784395484E+04  0.00000000000E+00 0. -1.
         -2   -1    0    0    0  501 -0.00000000000E+00 -0.00000000000E+00 -0.10678987014E+04  0.10678987014E+04  0.00000000000E+00 0.  1.
         23    2    1    2    0    0 -0.36595059246E+03  0.62434703224E+03 -0.86475569147E+03  0.11292031861E+04  0.59735892333E+02 0.  0.
         11    1    3    3    0    0 -0.21696210457E+03  0.36804510204E+03 -0.55563927740E+03  0.70090281676E+03  0.00000000000E+00 0.  1.
        -11    1    3    3    0    0 -0.14898848789E+03  0.25630193020E+03 -0.30911641408E+03  0.42830036937E+03  0.00000000000E+00 0. -1.
         22    1    1    2    0    0  0.36595059246E+03 -0.62434703224E+03  0.17752965385E+04  0.19171350636E+04  0.00000000000E+00 0. -1.
<mgrwt>
<rscale>  0 0.29070762E+04</rscale>
<asrwt>0</asrwt>
<pdfrwt beam="1">  1        2 0.30437532E+00 0.29070762E+04</pdfrwt>
<pdfrwt beam="2">  1       -2 0.16429211E+00 0.29070762E+04</pdfrwt>
<totfact> 0.13880618E+00</totfact>
</mgrwt>
</event>
<event>
 6    1  0.1588846E-005  0.1734743E+04  0.7818608E-02  0.8741794E-01
         -1   -1    0    0    0  501 -0.00000000000E+00  0.00000000000E+00  0.33172482612E+03  0.33172482612E+03  0.00000000000E+00 0.  1.
          1   -1    0    0  501    0  0.00000000000E+00 -0.00000000000E+00 -0.22679438509E+04  0.22679438509E+04  0.00000000000E+00 0. -1.
         23    2    1    2    0    0 -0.13993764508E+03  0.92198571552E+02 -0.22425984059E+04  0.22504532044E+04  0.84905205272E+02 0.  0.
         13    1    3    3    0    0  0.86207246811E+01  0.10574807016E+00 -0.26661682669E+03  0.26675618147E+03  0.00000000000E+00 0. -1.
        -13    1    3    3    0    0 -0.14855836976E+03  0.92092823482E+02 -0.19759815792E+04  0.19836970229E+04  0.00000000000E+00 0.  1.
         22    1    1    2    0    0  0.13993764508E+03 -0.92198571552E+02  0.30637938115E+03  0.34921547260E+03  0.00000000000E+00 0.  1.
<mgrwt>
<rscale>  0 0.17347430E+04</rscale>
<asrwt>0</asrwt>
<pdfrwt beam="1">  1        1 0.34891445E+00 0.17347430E+04</pdfrwt>
<pdfrwt beam="2">  1       -1 0.51034587E-01 0.17347430E+04</pdfrwt>
<totfact> 0.71747948E+00</totfact>
</mgrwt>
</event>
<event>
 6    1  0.1588846E-005  0.1533882E+04  0.7818608E-02  0.8862229E-01
         -2   -1    0    0    0  501 -0.00000000000E+00  0.00000000000E+00  0.45872999024E+03  0.45872999024E+03  0.00000000000E+00 0.  1.
          2   -1    0    0  501    0  0.00000000000E+00 -0.00000000000E+00 -0.12822330176E+04  0.12822330176E+04  0.00000000000E+00 0. -1.
         23    2    1    2    0    0 -0.54071053455E+03  0.41588244796E+03 -0.18788429015E+02  0.68602619575E+03  0.70376441270E+02 0.  0.
         11    1    3    3    0    0 -0.33065982848E+03  0.28226342230E+03 -0.37562396860E+02  0.43637082327E+03  0.00000000000E+00 0. -1.
        -11    1    3    3    0    0 -0.21005070607E+03  0.13361902567E+03  0.18773967845E+02  0.24965537248E+03  0.00000000000E+00 0.  1.
         22    1    1    2    0    0  0.54071053455E+03 -0.41588244796E+03 -0.80471459833E+03  0.10549368121E+04  0.00000000000E+00 0. -1.
<mgrwt>
<rscale>  0 0.15338823E+04</rscale>
<asrwt>0</asrwt>
<pdfrwt beam="1">  1        2 0.19726662E+00 0.15338823E+04</pdfrwt>
<pdfrwt beam="2">  1       -2 0.70573845E-01 0.15338823E+04</pdfrwt>
<totfact> 0.29797624E+01</totfact>
</mgrwt>
</event>
<event>
 6    1  0.1588846E-005  0.2814592E+04  0.7818608E-02  0.8298752E-01
         -2   -1    0    0    0  501 -0.00000000000E+00  0.00000000000E+00  0.10626054945E+04  0.10626054945E+04  0.00000000000E+00 0.  1.
          2   -1    0    0  501    0  0.00000000000E+00 -0.00000000000E+00 -0.18637982323E+04  0.18637982323E+04  0.00000000000E+00 0. -1.
         23    2    1    2    0    0 -0.92799107217E+03 -0.31573429460E+03  0.64673152312E+03  0.11778785653E+04  0.90998224336E+02 0.  0.
         13    1    3    3    0    0 -0.37824862168E+03 -0.14704695399E+03  0.21855104761E+03  0.46093316966E+03  0.00000000000E+00 0. -1.
        -13    1    3    3    0    0 -0.54974245049E+03 -0.16868734061E+03  0.42818047551E+03  0.71694539566E+03  0.00000000000E+00 0.  1.
         22    1    1    2    0    0  0.92799107217E+03  0.31573429460E+03 -0.14479242609E+04  0.17485251614E+04  0.00000000000E+00 0. -1.
<mgrwt>
<rscale>  0 0.28145921E+04</rscale>
<asrwt>0</asrwt>
<pdfrwt beam="1">  1        2 0.28673819E+00 0.28145921E+04</pdfrwt>
<pdfrwt beam="2">  1       -2 0.16347777E+00 0.28145921E+04</pdfrwt>
<totfact> 0.16418391E+00</totfact>
</mgrwt>
</event>
<event>
 6    1  0.1588846E-005  0.2686237E+04  0.7818608E-02  0.8339484E-01
          1   -1    0    0  501    0  0.00000000000E+00  0.00000000000E+00  0.11183694418E+04  0.11183694418E+04  0.00000000000E+00 0. -1.
         -1   -1    0    0    0  501 -0.00000000000E+00 -0.00000000000E+00 -0.16130331544E+04  0.16130331544E+04  0.00000000000E+00 0.  1.
         23    2    1    2    0    0 -0.91997764397E+03  0.88687338989E+03  0.16734165364E+03  0.12922520204E+04  0.94914593471E+02 0.  0.
         11    1    3    3    0    0 -0.39083863832E+03  0.31288974364E+03  0.70785749560E+02  0.50563371646E+03  0.00000000000E+00 0. -1.
        -11    1    3    3    0    0 -0.52913900565E+03  0.57398364625E+03  0.96555904084E+02  0.78661830393E+03  0.00000000000E+00 0.  1.
         22    1    1    2    0    0  0.91997764397E+03 -0.88687338989E+03 -0.66200536617E+03  0.14391505758E+04  0.00000000000E+00 0. -1.
<mgrwt>
<rscale>  0 0.26862368E+04</rscale>
<asrwt>0</asrwt>
<pdfrwt beam="1">  1        1 0.17205684E+00 0.26862368E+04</pdfrwt>
<pdfrwt beam="2">  1       -1 0.24815895E+00 0.26862368E+04</pdfrwt>
<totfact> 0.76955820E-01</totfact>
</mgrwt>
</event>
<event>
 6    1  0.1588846E-005  0.1941461E+04  0.7818608E-02  0.8634489E-01
         -1   -1    0    0    0  501 -0.00000000000E+00  0.00000000000E+00  0.20557382921E+03  0.20557382921E+03  0.00000000000E+00 0.  1.
          1   -1    0    0  501    0  0.00000000000E+00 -0.00000000000E+00 -0.45838417609E+04  0.45838417609E+04  0.00000000000E+00 0. -1.
         23    2    1    2    0    0 -0.89257003278E+03 -0.24253019568E+03 -0.14852841132E+04  0.17521705336E+04  0.92360828582E+02 0.  0.
         13    1    3    3    0    0 -0.71572090155E+03 -0.19506928387E+03 -0.12563795447E+04  0.14590400936E+04  0.00000000000E+00 0.  1.
        -13    1    3    3    0    0 -0.17684913122E+03 -0.47460911813E+02 -0.22890456847E+03  0.29313043996E+03  0.00000000000E+00 0. -1.
         22    1    1    2    0    0  0.89257003278E+03  0.24253019568E+03 -0.28929838185E+04  0.30372450565E+04  0.00000000000E+00 0. -1.
<mgrwt>
<rscale>  0 0.19414612E+04</rscale>
<asrwt>0</asrwt>
<pdfrwt beam="1">  1        1 0.70520641E+00 0.19414612E+04</pdfrwt>
<pdfrwt beam="2">  1       -1 0.31626744E-01 0.19414612E+04</pdfrwt>
<totfact> 0.23198802E-01</totfact>
</mgrwt>
</event>
<event>
 6    1  0.1588846E-005  0.4006997E+04  0.7818608E-02  0.8003136E-01
          1   -1    0    0  501    0  0.00000000000E+00  0.00000000000E+00  0.11805188021E+04  0.11805188021E+04  0.00000000000E+00 0. -1.
         -1   -1    0    0    0  501 -0.00000000000E+00 -0.00000000000E+00 -0.34002060447E+04  0.34002060447E+04  0.00000000000E+00 0.  1.
         23    2    1    2    0    0  0.11671101347E+04  0.75823717897E+03 -0.27563493584E+04  0.30890560121E+04  0.87952113255E+02 0.  0.
         11    1    3    3    0    0  0.90848843181E+03  0.55154630160E+03 -0.20596206887E+04  0.23176695051E+04  0.00000000000E+00 0. -1.
        -11    1    3    3    0    0  0.25862170285E+03  0.20669087737E+03 -0.69672866973E+03  0.77138650701E+03  0.00000000000E+00 0.  1.
         22    1    1    2    0    0 -0.11671101347E+04 -0.75823717897E+03  0.53666211583E+03  0.14916688347E+04  0.00000000000E+00 0. -1.
<mgrwt>
<rscale>  0 0.40069975E+04</rscale>
<asrwt>0</asrwt>
<pdfrwt beam="1">  1        1 0.18161828E+00 0.40069975E+04</pdfrwt>
<pdfrwt beam="2">  1       -1 0.52310861E+00 0.40069975E+04</pdfrwt>
<totfact> 0.92407683E-03</totfact>
</mgrwt>
</event>
<event>
 6    1  0.1588846E-005  0.1554984E+04  0.7818608E-02  0.8848691E-01
         -1   -1    0    0    0  501 -0.00000000000E+00  0.00000000000E+00  0.11143358213E+04  0.11143358213E+04  0.00000000000E+00 0.  1.
          1   -1    0    0  501    0  0.00000000000E+00 -0.00000000000E+00 -0.54246991172E+03  0.54246991172E+03  0.00000000000E+00 0. -1.
         23    2    1    2    0    0 -0.55969703784E+03 -0.21989907473E+03  0.80724358364E+03  0.10110356294E+04  0.94522290550E+02 0.  0.
         13    1    3    3    0    0 -0.41880811064E+03 -0.12567849788E+03  0.54401265216E+03  0.69795779534E+03  0.00000000000E+00 0.  1.
        -13    1    3    3    0    0 -0.14088892721E+03 -0.94220576846E+02  0.26323093148E+03  0.31307783409E+03  0.00000000000E+00 0. -1.
         22    1    1    2    0    0  0.55969703784E+03  0.21989907473E+03 -0.23537767406E+03  0.64577010358E+03  0.00000000000E+00 0. -1.
<mgrwt>
<rscale>  0 0.15549838E+04</rscale>
<asrwt>0</asrwt>
<pdfrwt beam="1">  1        1 0.83456910E-01 0.15549838E+04</pdfrwt>
<pdfrwt beam="2">  1       -1 0.17143628E+00 0.15549838E+04</pdfrwt>
<totfact> 0.91473718E+00</totfact>
</mgrwt>
</event>
<event>
 6    1  0.1588846E-005  0.1905441E+04  0.7818608E-02  0.8652153E-01
          2   -1    0    0  501    0  0.00000000000E+00  0.00000000000E+00  0.10756128381E+04  0.10756128381E+04  0.00000000000E+00 0.  1.
         -2   -1    0    0    0  501 -0.00000000000E+00 -0.00000000000E+00 -0.84386888487E+03  0.84386888487E+03  0.00000000000E+00 0. -1.
         23    2    1    2    0    0  0.38166661301E+03 -0.78478377329E+03  0.49580631267E+03  0.10077340035E+04  0.90271522310E+02 0.  0.
         13    1    3    3    0    0  0.13765723585E+03 -0.38360699453E+03  0.24145672839E+03  0.47371425197E+03  0.00000000000E+00 0.  1.
        -13    1    3    3    0    0  0.24400937717E+03 -0.40117677877E+03  0.25434958428E+03  0.53401975150E+03  0.00000000000E+00 0. -1.
         22    1    1    2    0    0 -0.38166661301E+03  0.78478377329E+03 -0.26406235945E+03  0.91174771949E+03  0.00000000000E+00 0. -1.
<mgrwt>
<rscale>  0 0.19054408E+04</rscale>
<asrwt>0</asrwt>
<pdfrwt beam="1">  1        2 0.16547890E+00 0.19054408E+04</pdfrwt>
<pdfrwt beam="2">  1       -2 0.12982598E+00 0.19054408E+04</pdfrwt>
<totfact> 0.92036975E+00</totfact>
</mgrwt>
</event>
<event>
 6    1  0.1588846E-005  0.2553744E+03  0.7818608E-02  0.1109955E+00
         -1   -1    0    0    0  501 -0.00000000000E+00  0.00000000000E+00  0.11126267428E+02  0.11126267428E+02  0.00000000000E+00 0.  1.
          1   -1    0    0  501    0  0.00000000000E+00 -0.00000000000E+00 -0.14653626090E+04  0.14653626090E+04  0.00000000000E+00 0. -1.
         23    2    1    2    0    0 -0.21584774375E+02 -0.36567248570E+02 -0.14148796082E+04  0.14185922564E+04  0.93362829641E+02 0.  0.
         13    1    3    3    0    0 -0.48714833372E+02 -0.64081326771E+01 -0.41639081774E+03  0.41927975417E+03  0.00000000000E+00 0.  1.
        -13    1    3    3    0    0  0.27130058998E+02 -0.30159115893E+02 -0.99848879050E+03  0.99931250224E+03  0.00000000000E+00 0. -1.
         22    1    1    2    0    0  0.21584774375E+02  0.36567248570E+02 -0.39356733359E+02  0.57896620052E+02  0.00000000000E+00 0.  1.
<mgrwt>
<rscale>  0 0.25537436E+03</rscale>
<asrwt>0</asrwt>
<pdfrwt beam="1">  1        1 0.22544022E+00 0.25537436E+03</pdfrwt>
<pdfrwt beam="2">  1       -1 0.17117349E-02 0.25537436E+03</pdfrwt>
<totfact> 0.64874549E+03</totfact>
</mgrwt>
</event>
<event>
 6    1  0.1588846E-005  0.1130911E+04  0.7818608E-02  0.9175577E-01
         -1   -1    0    0    0  501 -0.00000000000E+00  0.00000000000E+00  0.10709243892E+03  0.10709243892E+03  0.00000000000E+00 0.  1.
          1   -1    0    0  501    0  0.00000000000E+00 -0.00000000000E+00 -0.29856447574E+04  0.29856447574E+04  0.00000000000E+00 0. -1.
         23    2    1    2    0    0  0.37477218895E+03 -0.41681116620E+03 -0.15496797076E+04  0.16504861233E+04  0.91714257238E+02 0.  0.
         11    1    3    3    0    0  0.24346248472E+03 -0.21964520911E+03 -0.81212079558E+03  0.87581858051E+03  0.00000000000E+00 0.  1.
        -11    1    3    3    0    0  0.13130970423E+03 -0.19716595709E+03 -0.73755891204E+03  0.77466754275E+03  0.00000000000E+00 0. -1.
         22    1    1    2    0    0 -0.37477218895E+03  0.41681116620E+03 -0.13288726108E+04  0.14422510730E+04  0.00000000000E+00 0.  1.
<mgrwt>
<rscale>  0 0.11309111E+04</rscale>
<asrwt>0</asrwt>
<pdfrwt beam="1">  1        1 0.45932987E+00 0.11309111E+04</pdfrwt>
<pdfrwt beam="2">  1       -1 0.16475763E-01 0.11309111E+04</pdfrwt>
<totfact> 0.17454225E+01</totfact>
</mgrwt>
</event>
<event>
 6    1  0.1588846E-005  0.1573358E+04  0.7818608E-02  0.8837085E-01
          3   -1    0    0  501    0  0.00000000000E+00  0.00000000000E+00  0.26818878885E+03  0.26818878885E+03  0.00000000000E+00 0. -1.
         -3   -1    0    0    0  501 -0.00000000000E+00 -0.00000000000E+00 -0.23075667128E+04  0.23075667128E+04  0.00000000000E+00 0.  1.
         23    2    1    2    0    0 -0.31224070634E+03 -0.10533992678E+01 -0.22005251164E+04  0.22243813621E+04  0.89812513004E+02 0.  0.
         11    1    3    3    0    0 -0.21640814885E+02 -0.24046586260E+02 -0.27918661777E+03  0.28105467568E+03  0.00000000000E+00 0. -1.
        -11    1    3    3    0    0 -0.29059989146E+03  0.22993186992E+02 -0.19213384987E+04  0.19433266864E+04  0.00000000000E+00 0.  1.
         22    1    1    2    0    0  0.31224070634E+03  0.10533992678E+01  0.16114719247E+03  0.35137413961E+03  0.00000000000E+00 0. -1.
<mgrwt>
<rscale>  0 0.15733576E+04</rscale>
<asrwt>0</asrwt>
<pdfrwt beam="1">  1        3 0.41259814E-01 0.15733576E+04</pdfrwt>
<pdfrwt beam="2">  1       -3 0.35501026E+00 0.15733576E+04</pdfrwt>
<totfact> 0.27795832E-01</totfact>
</mgrwt>
</event>
<event>
 6    1  0.1588846E-005  0.1599559E+04  0.7818608E-02  0.8820819E-01
         -2   -1    0    0    0  501 -0.00000000000E+00  0.00000000000E+00  0.66142782800E+03  0.66142782800E+03  0.00000000000E+00 0. -1.
          2   -1    0    0  501    0  0.00000000000E+00 -0.00000000000E+00 -0.96707082454E+03  0.96707082454E+03  0.00000000000E+00 0.  1.
         23    2    1    2    0    0 -0.66780423395E+03  0.15080771097E+03 -0.56915514707E+03  0.89491558701E+03  0.90724119593E+02 0.  0.
         11    1    3    3    0    0 -0.16531014787E+03  0.16112156295E+01 -0.11525203314E+03  0.20152685217E+03  0.00000000000E+00 0.  1.
        -11    1    3    3    0    0 -0.50249408608E+03  0.14919649534E+03 -0.45390311393E+03  0.69338873484E+03  0.00000000000E+00 0. -1.
         22    1    1    2    0    0  0.66780423395E+03 -0.15080771097E+03  0.26351215053E+03  0.73358306554E+03  0.00000000000E+00 0. -1.
<mgrwt>
<rscale>  0 0.15995594E+04</rscale>
<asrwt>0</asrwt>
<pdfrwt beam="1">  1        2 0.14878013E+00 0.15995594E+04</pdfrwt>
<pdfrwt beam="2">  1       -2 0.10175813E+00 0.15995594E+04</pdfrwt>
<totfact> 0.20109410E+01</totfact>
</mgrwt>
</event>
<event>
 6    1  0.1767948E-005  0.2734371E+04  0.7818608E-02  0.8323938E-01
          2   -1    0    0  501    0  0.00000000000E+00  0.00000000000E+00  0.23420626332E+04  0.23420626332E+04  0.00000000000E+00 0. -1.
         -2   -1    0    0    0  501 -0.00000000000E+00 -0.00000000000E+00 -0.79809823914E+03  0.79809823914E+03  0.00000000000E+00 0.  1.
         23    2    1    2    0    0 -0.11002197236E+04 -0.50841448465E+03  0.14957397917E+04  0.19271916474E+04  0.88664497177E+02 0.  0.
         13    1    3    3    0    0 -0.67157777569E+03 -0.30414528158E+03  0.84087295472E+03  0.11182970925E+04  0.00000000000E+00 0.  1.
        -13    1    3    3    0    0 -0.42864194791E+03 -0.20426920306E+03  0.65486683693E+03  0.80889455490E+03  0.00000000000E+00 0. -1.
         22    1    1    2    0    0  0.11002197236E+04  0.50841448465E+03  0.48224602414E+02  0.12129692250E+04  0.00000000000E+00 0.  1.
<mgrwt>
<rscale>  0 0.27343709E+04</rscale>
<asrwt>0</asrwt>
<pdfrwt beam="1">  1        2 0.36031732E+00 0.27343709E+04</pdfrwt>
<pdfrwt beam="2">  1       -2 0.12278435E+00 0.27343709E+04</pdfrwt>
<totfact> 0.18820015E+00</totfact>
</mgrwt>
</event>
<event>
 6    1  0.1588846E-005  0.1643798E+04  0.7818608E-02  0.8794084E-01
          2   -1    0    0  501    0  0.00000000000E+00  0.00000000000E+00  0.15153076144E+04  0.15153076144E+04  0.00000000000E+00 0. -1.
         -2   -1    0    0    0  501 -0.00000000000E+00 -0.00000000000E+00 -0.44579607530E+03  0.44579607530E+03  0.00000000000E+00 0.  1.
         23    2    1    2    0    0  0.52398761478E+03 -0.38945515799E+02  0.12866396061E+04  0.13925754396E+04  0.88006280179E+02 0.  0.
         11    1    3    3    0    0  0.34757310629E+03 -0.60672817009E+02  0.91324726322E+03  0.97903463612E+03  0.00000000000E+00 0.  1.
        -11    1    3    3    0    0  0.17641450848E+03  0.21727301210E+02  0.37339234285E+03  0.41354080346E+03  0.00000000000E+00 0. -1.
         22    1    1    2    0    0 -0.52398761478E+03  0.38945515799E+02 -0.21712806702E+03  0.56852825007E+03  0.00000000000E+00 0.  1.
<mgrwt>
<rscale>  0 0.16437983E+04</rscale>
<asrwt>0</asrwt>
<pdfrwt beam="1">  1        2 0.23312425E+00 0.16437983E+04</pdfrwt>
<pdfrwt beam="2">  1       -2 0.68584012E-01 0.16437983E+04</pdfrwt>
<totfact> 0.23113472E+01</totfact>
</mgrwt>
</event>
<event>
 6    1  0.1588846E-005  0.1195300E+04  0.7818608E-02  0.9116981E-01
          2   -1    0    0  501    0  0.00000000000E+00  0.00000000000E+00  0.24361715628E+04  0.24361715628E+04  0.00000000000E+00 0. -1.
         -2   -1    0    0    0  501 -0.00000000000E+00 -0.00000000000E+00 -0.14661745279E+03  0.14661745279E+03  0.00000000000E+00 0.  1.
         23    2    1    2    0    0 -0.52117009666E+03 -0.19453061216E+03  0.70131988193E+03  0.89994963170E+03  0.92732594521E+02 0.  0.
         11    1    3    3    0    0 -0.28369972625E+03 -0.86157006875E+02  0.44014880437E+03  0.53069721546E+03  0.00000000000E+00 0. -1.
        -11    1    3    3    0    0 -0.23747037041E+03 -0.10837360529E+03  0.26117107755E+03  0.36925241623E+03  0.00000000000E+00 0.  1.
         22    1    1    2    0    0  0.52117009666E+03  0.19453061216E+03  0.15882342281E+04  0.16828393839E+04  0.00000000000E+00 0. -1.
<mgrwt>
<rscale>  0 0.11952996E+04</rscale>
<asrwt>0</asrwt>
<pdfrwt beam="1">  1        2 0.37479560E+00 0.11952996E+04</pdfrwt>
<pdfrwt beam="2">  1       -2 0.22556533E-01 0.11952996E+04</pdfrwt>
<totfact> 0.64959123E+01</totfact>
</mgrwt>
</event>
<event>
 6    1  0.1588846E-005  0.4564244E+03  0.7818608E-02  0.1025823E+00
          2   -1    0    0  501    0  0.00000000000E+00  0.00000000000E+00  0.17389194672E+04  0.17389194672E+04  0.00000000000E+00 0. -1.
         -2   -1    0    0    0  501 -0.00000000000E+00 -0.00000000000E+00 -0.29950098397E+02  0.29950098397E+02  0.00000000000E+00 0.  1.
         23    2    1    2    0    0 -0.69962838352E+02 -0.83829082961E+02  0.16249519647E+04  0.16310978773E+04  0.89940446331E+02 0.  0.
         13    1    3    3    0    0 -0.75985455611E+02 -0.32437055252E+02  0.12298613894E+04  0.12326333555E+04  0.00000000000E+00 0. -1.
        -13    1    3    3    0    0  0.60226172587E+01 -0.51392027709E+02  0.39509057527E+03  0.39846452175E+03  0.00000000000E+00 0.  1.
         22    1    1    2    0    0  0.69962838352E+02  0.83829082961E+02  0.84017404098E+02  0.13777168828E+03  0.00000000000E+00 0. -1.
<mgrwt>
<rscale>  0 0.45642440E+03</rscale>
<asrwt>0</asrwt>
<pdfrwt beam="1">  1        2 0.26752599E+00 0.45642440E+03</pdfrwt>
<pdfrwt beam="2">  1       -2 0.46077088E-02 0.45642440E+03</pdfrwt>
<totfact> 0.22454082E+03</totfact>
</mgrwt>
</event>
<event>
 6    1  0.1588846E-005  0.2901118E+04  0.7818608E-02  0.8272545E-01
          2   -1    0    0  501    0  0.00000000000E+00  0.00000000000E+00  0.10651641435E+04  0.10651641435E+04  0.00000000000E+00 0. -1.
         -2   -1    0    0    0  501 -0.00000000000E+00 -0.00000000000E+00 -0.19753959481E+04  0.19753959481E+04  0.00000000000E+00 0.  1.
         23    2    1    2    0    0  0.12106082763E+04  0.73838649169E+03 -0.14170306885E+03  0.14276672163E+04  0.85830712104E+02 0.  0.
         11    1    3    3    0    0  0.58841539888E+03  0.40572626297E+03 -0.55645349924E+02  0.71689810090E+03  0.00000000000E+00 0.  1.
        -11    1    3    3    0    0  0.62219287737E+03  0.33266022871E+03 -0.86057718922E+02  0.71076911540E+03  0.00000000000E+00 0. -1.
         22    1    1    2    0    0 -0.12106082763E+04 -0.73838649169E+03 -0.76852873570E+03  0.16128928753E+04  0.00000000000E+00 0. -1.
<mgrwt>
<rscale>  0 0.29011177E+04</rscale>
<asrwt>0</asrwt>
<pdfrwt beam="1">  1        2 0.16387141E+00 0.29011177E+04</pdfrwt>
<pdfrwt beam="2">  1       -2 0.30390707E+00 0.29011177E+04</pdfrwt>
<totfact> 0.59441273E-01</totfact>
</mgrwt>
</event>
<event>
 6    1  0.1588846E-005  0.6700936E+04  0.7818608E-02  0.7609090E-01
          2   -1    0    0  501    0  0.00000000000E+00  0.00000000000E+00  0.30681295880E+04  0.30681295880E+04  0.00000000000E+00 0.  1.
         -2   -1    0    0    0  501 -0.00000000000E+00 -0.00000000000E+00 -0.36587879824E+04  0.36587879824E+04  0.00000000000E+00 0. -1.
         23    2    1    2    0    0  0.11586864513E+04 -0.30908626348E+04 -0.86810886261E+03  0.34143709848E+04  0.91269410831E+02 0.  0.
         13    1    3    3    0    0  0.41106096958E+03 -0.98457826888E+03 -0.26329802324E+03  0.10989501068E+04  0.00000000000E+00 0. -1.
        -13    1    3    3    0    0  0.74762548169E+03 -0.21062843659E+04 -0.60481083937E+03  0.23154208780E+04  0.00000000000E+00 0.  1.
         22    1    1    2    0    0 -0.11586864513E+04  0.30908626348E+04  0.27745046825E+03  0.33125465856E+04  0.00000000000E+00 0.  1.
<mgrwt>
<rscale>  0 0.67009360E+04</rscale>
<asrwt>0</asrwt>
<pdfrwt beam="1">  1        2 0.47201994E+00 0.67009360E+04</pdfrwt>
<pdfrwt beam="2">  1       -2 0.56289046E+00 0.67009360E+04</pdfrwt>
<totfact> 0.75851649E-04</totfact>
</mgrwt>
</event>
<event>
 6    1  0.1588846E-005  0.1433673E+04  0.7818608E-02  0.8929799E-01
          2   -1    0    0  501    0  0.00000000000E+00  0.00000000000E+00  0.16939420445E+04  0.16939420445E+04  0.00000000000E+00 0. -1.
         -2   -1    0    0    0  501 -0.00000000000E+00 -0.00000000000E+00 -0.30334824554E+03  0.30334824554E+03  0.00000000000E+00 0.  1.
         23    2    1    2    0    0 -0.34143922952E+03  0.16296820581E+03 -0.14522208971E+03  0.41556027913E+03  0.91986448405E+02 0.  0.
         11    1    3    3    0    0 -0.14884441122E+03  0.12151211553E+03 -0.78498158854E+02  0.20756159065E+03  0.00000000000E+00 0.  1.
        -11    1    3    3    0    0 -0.19259481830E+03  0.41456090277E+02 -0.66723930854E+02  0.20799868847E+03  0.00000000000E+00 0. -1.
         22    1    1    2    0    0  0.34143922952E+03 -0.16296820581E+03  0.15358158887E+04  0.15817300109E+04  0.00000000000E+00 0. -1.
<mgrwt>
<rscale>  0 0.14336727E+04</rscale>
<asrwt>0</asrwt>
<pdfrwt beam="1">  1        2 0.26060646E+00 0.14336727E+04</pdfrwt>
<pdfrwt beam="2">  1       -2 0.46668962E-01 0.14336727E+04</pdfrwt>
<totfact> 0.41763417E+01</totfact>
</mgrwt>
</event>
<event>
 6    1  0.1588846E-005  0.1580513E+04  0.7818608E-02  0.8832610E-01
         -2   -1    0    0    0  501 -0.00000000000E+00  0.00000000000E+00  0.30082297515E+03  0.30082297515E+03  0.00000000000E+00 0.  1.
          2   -1    0    0  501    0  0.00000000000E+00 -0.00000000000E+00 -0.20759908056E+04  0.20759908056E+04  0.00000000000E+00 0. -1.
         23    2    1    2    0    0  0.36261740306E+03 -0.12126591717E+03 -0.19265890498E+04  0.19655654503E+04  0.74198174945E+02 0.  0.
         11    1    3    3    0    0  0.33198074950E+03 -0.12767884881E+03 -0.16988590879E+04  0.17356944740E+04  0.00000000000E+00 0.  1.
        -11    1    3    3    0    0  0.30636653560E+02  0.64129316369E+01 -0.22772996187E+03  0.22987097634E+03  0.00000000000E+00 0. -1.
         22    1    1    2    0    0 -0.36261740306E+03  0.12126591717E+03  0.15142121926E+03  0.41124833047E+03  0.00000000000E+00 0.  1.
<mgrwt>
<rscale>  0 0.15805135E+04</rscale>
<asrwt>0</asrwt>
<pdfrwt beam="1">  1        2 0.31938320E+00 0.15805135E+04</pdfrwt>
<pdfrwt beam="2">  1       -2 0.46280458E-01 0.15805135E+04</pdfrwt>
<totfact> 0.25774005E+01</totfact>
</mgrwt>
</event>
<event>
 6    1  0.1588846E-005  0.2030013E+04  0.7818608E-02  0.8592716E-01
         -2   -1    0    0    0  501 -0.00000000000E+00  0.00000000000E+00  0.39193569940E+03  0.39193569940E+03  0.00000000000E+00 0.  1.
          2   -1    0    0  501    0  0.00000000000E+00 -0.00000000000E+00 -0.26285905597E+04  0.26285905597E+04  0.00000000000E+00 0. -1.
         23    2    1    2    0    0 -0.51914401811E+03  0.27418074998E+03 -0.23487754717E+04  0.24228167756E+04  0.92786401530E+02 0.  0.
         13    1    3    3    0    0 -0.27893375732E+03  0.12062167916E+03 -0.10485042471E+04  0.10916568997E+04  0.00000000000E+00 0.  1.
        -13    1    3    3    0    0 -0.24021026079E+03  0.15355907082E+03 -0.13002712246E+04  0.13311598759E+04  0.00000000000E+00 0. -1.
         22    1    1    2    0    0  0.51914401811E+03 -0.27418074998E+03  0.11212061141E+03  0.59770948353E+03  0.00000000000E+00 0.  1.
<mgrwt>
<rscale>  0 0.20300133E+04</rscale>
<asrwt>0</asrwt>
<pdfrwt beam="1">  1        2 0.40439855E+00 0.20300133E+04</pdfrwt>
<pdfrwt beam="2">  1       -2 0.60297799E-01 0.20300133E+04</pdfrwt>
<totfact> 0.69594191E+00</totfact>
</mgrwt>
</event>
<event>
 6    1  0.1588846E-005  0.3239524E+04  0.7818608E-02  0.8178456E-01
         -2   -1    0    0    0  501 -0.00000000000E+00  0.00000000000E+00  0.15304093905E+04  0.15304093905E+04  0.00000000000E+00 0.  1.
          2   -1    0    0  501    0  0.00000000000E+00 -0.00000000000E+00 -0.17143316953E+04  0.17143316953E+04  0.00000000000E+00 0. -1.
         23    2    1    2    0    0  0.45729152257E+03  0.79168451994E+03 -0.14296863836E+04  0.16994876905E+04  0.91516877785E+02 0.  0.
         11    1    3    3    0    0  0.24789484852E+03  0.34890981655E+03 -0.70704952110E+03  0.82650404797E+03  0.00000000000E+00 0. -1.
        -11    1    3    3    0    0  0.20939667404E+03  0.44277470339E+03 -0.72263686252E+03  0.87298364254E+03  0.00000000000E+00 0.  1.
         22    1    1    2    0    0 -0.45729152257E+03 -0.79168451994E+03  0.12457640788E+04  0.15452533953E+04  0.00000000000E+00 0.  1.
<mgrwt>
<rscale>  0 0.32395242E+04</rscale>
<asrwt>0</asrwt>
<pdfrwt beam="1">  1        2 0.26374334E+00 0.32395242E+04</pdfrwt>
<pdfrwt beam="2">  1       -2 0.23544760E+00 0.32395242E+04</pdfrwt>
<totfact> 0.63893971E-01</totfact>
</mgrwt>
</event>
<event>
 6    1  0.1588846E-005  0.1578244E+04  0.7818608E-02  0.8834026E-01
         -2   -1    0    0    0  501 -0.00000000000E+00  0.00000000000E+00  0.20086041439E+03  0.20086041439E+03  0.00000000000E+00 0.  1.
          2   -1    0    0  501    0  0.00000000000E+00 -0.00000000000E+00 -0.31002289352E+04  0.31002289352E+04  0.00000000000E+00 0. -1.
         23    2    1    2    0    0 -0.32454903461E+03  0.29106611920E+03 -0.28237654390E+04  0.28586332641E+04  0.89896175560E+02 0.  0.
         13    1    3    3    0    0 -0.11520465209E+03  0.15870931425E+03 -0.13585324507E+04  0.13726147231E+04  0.00000000000E+00 0.  1.
        -13    1    3    3    0    0 -0.20934438252E+03  0.13235680495E+03 -0.14652329883E+04  0.14860185410E+04  0.00000000000E+00 0. -1.
         22    1    1    2    0    0  0.32454903461E+03 -0.29106611920E+03 -0.75603081783E+02  0.44245608549E+03  0.00000000000E+00 0.  1.
<mgrwt>
<rscale>  0 0.15782437E+04</rscale>
<asrwt>0</asrwt>
<pdfrwt beam="1">  1        2 0.47695830E+00 0.15782437E+04</pdfrwt>
<pdfrwt beam="2">  1       -2 0.30901602E-01 0.15782437E+04</pdfrwt>
<totfact> 0.14120509E+01</totfact>
</mgrwt>
</event>
<event>
 6    1  0.1588846E-005  0.2945005E+04  0.7818608E-02  0.8259612E-01
         -2   -1    0    0    0  501 -0.00000000000E+00  0.00000000000E+00  0.11179280652E+04  0.11179280652E+04  0.00000000000E+00 0.  1.
          2   -1    0    0  501    0  0.00000000000E+00 -0.00000000000E+00 -0.19395372313E+04  0.19395372313E+04  0.00000000000E+00 0. -1.
         23    2    1    2    0    0 -0.75349086041E+03  0.11402597548E+04  0.15422270777E+03  0.13781235710E+04  0.86597623068E+02 0.  0.
         11    1    3    3    0    0 -0.61894049098E+03  0.89636089695E+03  0.95641252809E+02  0.10934795097E+04  0.00000000000E+00 0.  1.
        -11    1    3    3    0    0 -0.13455036943E+03  0.24389885784E+03  0.58581454958E+02  0.28464406130E+03  0.00000000000E+00 0. -1.
         22    1    1    2    0    0  0.75349086041E+03 -0.11402597548E+04 -0.97583187381E+03  0.16793417255E+04  0.00000000000E+00 0. -1.
<mgrwt>
<rscale>  0 0.29450047E+04</rscale>
<asrwt>0</asrwt>
<pdfrwt beam="1">  1        2 0.29839034E+00 0.29450047E+04</pdfrwt>
<pdfrwt beam="2">  1       -2 0.17198893E+00 0.29450047E+04</pdfrwt>
<totfact> 0.12808656E+00</totfact>
</mgrwt>
</event>
<event>
 6    1  0.1588846E-005  0.4107372E+04  0.7818608E-02  0.7983230E-01
          2   -1    0    0  501    0  0.00000000000E+00  0.00000000000E+00  0.16356145100E+04  0.16356145100E+04  0.00000000000E+00 0. -1.
         -2   -1    0    0    0  501 -0.00000000000E+00 -0.00000000000E+00 -0.25786189060E+04  0.25786189060E+04  0.00000000000E+00 0.  1.
         23    2    1    2    0    0 -0.13302608371E+04 -0.16824682137E+02 -0.20752166639E+04  0.24672985047E+04  0.10564442435E+03 0.  0.
         13    1    3    3    0    0 -0.11547427380E+04  0.20265094469E+02 -0.17799534045E+04  0.21218095077E+04  0.00000000000E+00 0. -1.
        -13    1    3    3    0    0 -0.17551809912E+03 -0.37089776606E+02 -0.29526325945E+03  0.34548899697E+03  0.00000000000E+00 0.  1.
         22    1    1    2    0    0  0.13302608371E+04  0.16824682137E+02  0.11322122679E+04  0.17469349113E+04  0.00000000000E+00 0. -1.
<mgrwt>
<rscale>  0 0.41073722E+04</rscale>
<asrwt>0</asrwt>
<pdfrwt beam="1">  1        2 0.25163300E+00 0.41073722E+04</pdfrwt>
<pdfrwt beam="2">  1       -2 0.39671060E+00 0.41073722E+04</pdfrwt>
<totfact> 0.64948906E-02</totfact>
</mgrwt>
</event>
<event>
 6    1  0.1588846E-005  0.2070407E+04  0.7818608E-02  0.8574393E-01
         -1   -1    0    0    0  501 -0.00000000000E+00  0.00000000000E+00  0.66181898331E+03  0.66181898331E+03  0.00000000000E+00 0.  1.
          1   -1    0    0  501    0  0.00000000000E+00 -0.00000000000E+00 -0.16192438549E+04  0.16192438549E+04  0.00000000000E+00 0. -1.
         23    2    1    2    0    0 -0.81532430485E+03 -0.27412056678E+03  0.15100279470E+03  0.87802766451E+03  0.90746506442E+02 0.  0.
         13    1    3    3    0    0 -0.69640146874E+03 -0.21672670846E+03  0.98680689453E+02  0.73599140640E+03  0.00000000000E+00 0.  1.
        -13    1    3    3    0    0 -0.11892283611E+03 -0.57393858316E+02  0.52322105248E+02  0.14203625811E+03  0.00000000000E+00 0. -1.
         22    1    1    2    0    0  0.81532430485E+03  0.27412056678E+03 -0.11084276663E+04  0.14030351737E+04  0.00000000000E+00 0. -1.
<mgrwt>
<rscale>  0 0.20704070E+04</rscale>
<asrwt>0</asrwt>
<pdfrwt beam="1">  1        1 0.24911444E+00 0.20704070E+04</pdfrwt>
<pdfrwt beam="2">  1       -1 0.10181831E+00 0.20704070E+04</pdfrwt>
<totfact> 0.45632592E+00</totfact>
</mgrwt>
</event>
<event>
 6    1  0.1588846E-005  0.1280755E+04  0.7818608E-02  0.9044967E-01
         -2   -1    0    0    0  501 -0.00000000000E+00  0.00000000000E+00  0.50239671885E+03  0.50239671885E+03  0.00000000000E+00 0.  1.
          2   -1    0    0  501    0  0.00000000000E+00 -0.00000000000E+00 -0.81625446191E+03  0.81625446191E+03  0.00000000000E+00 0. -1.
         23    2    1    2    0    0 -0.46517720440E+03  0.38159965938E+03 -0.37323141877E+03  0.71405762729E+03  0.92566039162E+02 0.  0.
         11    1    3    3    0    0 -0.31227518533E+03  0.30204833847E+03 -0.24100648133E+03  0.49682302099E+03  0.00000000000E+00 0. -1.
        -11    1    3    3    0    0 -0.15290201906E+03  0.79551320913E+02 -0.13222493744E+03  0.21723460630E+03  0.00000000000E+00 0.  1.
         22    1    1    2    0    0  0.46517720440E+03 -0.38159965938E+03  0.59373675706E+02  0.60459355347E+03  0.00000000000E+00 0.  1.
<mgrwt>
<rscale>  0 0.12807553E+04</rscale>
<asrwt>0</asrwt>
<pdfrwt beam="1">  1        2 0.12557761E+00 0.12807553E+04</pdfrwt>
<pdfrwt beam="2">  1       -2 0.77291803E-01 0.12807553E+04</pdfrwt>
<totfact> 0.49163902E+01</totfact>
</mgrwt>
</event>
<event>
 6    1  0.1588846E-005  0.1196101E+04  0.7818608E-02  0.9116276E-01
         -2   -1    0    0    0  501 -0.00000000000E+00  0.00000000000E+00  0.65863584295E+03  0.65863584295E+03  0.00000000000E+00 0.  1.
          2   -1    0    0  501    0  0.00000000000E+00 -0.00000000000E+00 -0.54303849635E+03  0.54303849635E+03  0.00000000000E+00 0. -1.
         23    2    1    2    0    0  0.29038607293E+03 -0.34421554504E+03 -0.33166061245E+03  0.56697118449E+03  0.93000803173E+02 0.  0.
         13    1    3    3    0    0  0.13793651928E+03 -0.15448795208E+03 -0.96309748509E+02  0.22840441840E+03  0.00000000000E+00 0.  1.
        -13    1    3    3    0    0  0.15244955364E+03 -0.18972759296E+03 -0.23535086394E+03  0.33856676608E+03  0.00000000000E+00 0. -1.
         22    1    1    2    0    0 -0.29038607293E+03  0.34421554504E+03  0.44725795905E+03  0.63470315481E+03  0.00000000000E+00 0.  1.
<mgrwt>
<rscale>  0 0.11961014E+04</rscale>
<asrwt>0</asrwt>
<pdfrwt beam="1">  1        2 0.83544384E-01 0.11961014E+04</pdfrwt>
<pdfrwt beam="2">  1       -2 0.10132859E+00 0.11961014E+04</pdfrwt>
<totfact> 0.44164382E+01</totfact>
</mgrwt>
</event>
<event>
 6    1  0.1588846E-005  0.2468601E+04  0.7818608E-02  0.8414258E-01
         -2   -1    0    0    0  501 -0.00000000000E+00  0.00000000000E+00  0.16207032847E+04  0.16207032847E+04  0.00000000000E+00 0.  1.
          2   -1    0    0  501    0  0.00000000000E+00 -0.00000000000E+00 -0.94002294302E+03  0.94002294302E+03  0.00000000000E+00 0. -1.
         23    2    1    2    0    0 -0.95306544079E+03 -0.33585886198E+03 -0.39137301909E+03  0.10874871711E+04  0.91217310021E+02 0.  0.
         11    1    3    3    0    0 -0.12322000240E+03 -0.12521175870E+02 -0.54026460083E+02  0.13512515393E+03  0.00000000000E+00 0. -1.
        -11    1    3    3    0    0 -0.82984543839E+03 -0.32333768612E+03 -0.33734655901E+03  0.95236201717E+03  0.00000000000E+00 0.  1.
         22    1    1    2    0    0  0.95306544079E+03  0.33585886198E+03  0.10720533607E+04  0.14732390566E+04  0.00000000000E+00 0.  1.
<mgrwt>
<rscale>  0 0.24686014E+04</rscale>
<asrwt>0</asrwt>
<pdfrwt beam="1">  1        2 0.14461891E+00 0.24686014E+04</pdfrwt>
<pdfrwt beam="2">  1       -2 0.24933897E+00 0.24686014E+04</pdfrwt>
<totfact> 0.15986586E+00</totfact>
</mgrwt>
</event>
<event>
 6    1  0.1588846E-005  0.2420371E+04  0.7818608E-02  0.8431916E-01
          1   -1    0    0  501    0  0.00000000000E+00  0.00000000000E+00  0.10366821413E+04  0.10366821413E+04  0.00000000000E+00 0. -1.
         -1   -1    0    0    0  501 -0.00000000000E+00 -0.00000000000E+00 -0.14127273124E+04  0.14127273124E+04  0.00000000000E+00 0.  1.
         23    2    1    2    0    0 -0.38562226792E+03  0.93815146209E+03  0.47654368754E+03  0.11243658842E+04  0.90950844209E+02 0.  0.
         11    1    3    3    0    0 -0.20665124095E+03  0.54243527248E+03  0.22553590230E+03  0.62274168276E+03  0.00000000000E+00 0. -1.
        -11    1    3    3    0    0 -0.17897102698E+03  0.39571618961E+03  0.25100778524E+03  0.50162420144E+03  0.00000000000E+00 0.  1.
         22    1    1    2    0    0  0.38562226792E+03 -0.93815146209E+03 -0.85258885866E+03  0.13250435696E+04  0.00000000000E+00 0.  1.
<mgrwt>
<rscale>  0 0.24203712E+04</rscale>
<asrwt>0</asrwt>
<pdfrwt beam="1">  1        1 0.15948956E+00 0.24203712E+04</pdfrwt>
<pdfrwt beam="2">  1       -1 0.21734266E+00 0.24203712E+04</pdfrwt>
<totfact> 0.14534138E+00</totfact>
</mgrwt>
</event>
<event>
 6    1  0.1588846E-005  0.4017022E+04  0.7818608E-02  0.8001122E-01
          2   -1    0    0  501    0  0.00000000000E+00  0.00000000000E+00  0.26887853230E+04  0.26887853230E+04  0.00000000000E+00 0. -1.
         -2   -1    0    0    0  501 -0.00000000000E+00 -0.00000000000E+00 -0.15003487303E+04  0.15003487303E+04  0.00000000000E+00 0.  1.
         23    2    1    2    0    0 -0.18187609551E+04  0.68987657940E+01 -0.29123560030E+03  0.18444872136E+04  0.96829239051E+02 0.  0.
         11    1    3    3    0    0 -0.15423383447E+04  0.21735592662E+02 -0.21533339992E+03  0.15574493503E+04  0.00000000000E+00 0.  1.
        -11    1    3    3    0    0 -0.27642261034E+03 -0.14836826868E+02 -0.75902200384E+02  0.28703786329E+03  0.00000000000E+00 0. -1.
         22    1    1    2    0    0  0.18187609551E+04 -0.68987657940E+01  0.14796721930E+04  0.23446468398E+04  0.00000000000E+00 0. -1.
<mgrwt>
<rscale>  0 0.40170216E+04</rscale>
<asrwt>0</asrwt>
<pdfrwt beam="1">  1        2 0.41365928E+00 0.40170216E+04</pdfrwt>
<pdfrwt beam="2">  1       -2 0.23082288E+00 0.40170216E+04</pdfrwt>
<totfact> 0.17946888E-01</totfact>
</mgrwt>
</event>
<event>
 6    1  0.1588846E-005  0.2292936E+04  0.7818608E-02  0.8480711E-01
          1   -1    0    0  501    0  0.00000000000E+00  0.00000000000E+00  0.19694451036E+04  0.19694451036E+04  0.00000000000E+00 0. -1.
         -1   -1    0    0    0  501 -0.00000000000E+00 -0.00000000000E+00 -0.66739054884E+03  0.66739054884E+03  0.00000000000E+00 0.  1.
         23    2    1    2    0    0 -0.12462382771E+03 -0.16429067891E+03  0.19469190074E+04  0.19598033873E+04  0.88392137199E+02 0.  0.
         13    1    3    3    0    0 -0.10366307473E+03 -0.15761662041E+03  0.14265648696E+04  0.14389844889E+04  0.00000000000E+00 0.  1.
        -13    1    3    3    0    0 -0.20960752980E+02 -0.66740584976E+01  0.52035413784E+03  0.52081889846E+03  0.00000000000E+00 0. -1.
         22    1    1    2    0    0  0.12462382771E+03  0.16429067891E+03 -0.64486445270E+03  0.67703226508E+03  0.00000000000E+00 0.  1.
<mgrwt>
<rscale>  0 0.22929362E+04</rscale>
<asrwt>0</asrwt>
<pdfrwt beam="1">  1        1 0.30299155E+00 0.22929362E+04</pdfrwt>
<pdfrwt beam="2">  1       -1 0.10267547E+00 0.22929362E+04</pdfrwt>
<totfact> 0.25349450E+00</totfact>
</mgrwt>
</event>
<event>
 6    1  0.1588846E-005  0.1119017E+04  0.7818608E-02  0.9186852E-01
         -1   -1    0    0    0  501 -0.00000000000E+00  0.00000000000E+00  0.32675686754E+03  0.32675686754E+03  0.00000000000E+00 0.  1.
          1   -1    0    0  501    0  0.00000000000E+00 -0.00000000000E+00 -0.95805124910E+03  0.95805124910E+03  0.00000000000E+00 0. -1.
         23    2    1    2    0    0  0.45493223063E+02  0.20723426598E+03  0.27157037323E+03  0.35734898558E+03  0.94510081673E+02 0.  0.
         13    1    3    3    0    0  0.23679919226E+01  0.17575889341E+03  0.23111261690E+03  0.29036156373E+03  0.00000000000E+00 0. -1.
        -13    1    3    3    0    0  0.43125231141E+02  0.31475372566E+02  0.40457756326E+02  0.66987421850E+02  0.00000000000E+00 0.  1.
         22    1    1    2    0    0 -0.45493223063E+02 -0.20723426598E+03 -0.90286475479E+03  0.92745913106E+03  0.00000000000E+00 0. -1.
<mgrwt>
<rscale>  0 0.11190171E+04</rscale>
<asrwt>0</asrwt>
<pdfrwt beam="1">  1        1 0.14739250E+00 0.11190171E+04</pdfrwt>
<pdfrwt beam="2">  1       -1 0.50270287E-01 0.11190171E+04</pdfrwt>
<totfact> 0.64550030E+01</totfact>
</mgrwt>
</event>
<event>
 6    1  0.1624338E-005  0.2896291E+04  0.7818608E-02  0.8273982E-01
         -1   -1    0    0    0  501 -0.00000000000E+00  0.00000000000E+00  0.83426803496E+03  0.83426803496E+03  0.00000000000E+00 0.  1.
          1   -1    0    0  501    0  0.00000000000E+00 -0.00000000000E+00 -0.25137317617E+04  0.25137317617E+04  0.00000000000E+00 0. -1.
         23    2    1    2    0    0 -0.15336469410E+03  0.51725063754E+03  0.71135229842E+03  0.89706727666E+03  0.87399399087E+02 0.  0.
         11    1    3    3    0    0 -0.13080950357E+03  0.30058775271E+03  0.45220508059E+03  0.55852802814E+03  0.00000000000E+00 0. -1.
        -11    1    3    3    0    0 -0.22555190522E+02  0.21666288483E+03  0.25914721783E+03  0.33853924852E+03  0.00000000000E+00 0.  1.
         22    1    1    2    0    0  0.15336469410E+03 -0.51725063754E+03 -0.23908160252E+04  0.24509325200E+04  0.00000000000E+00 0. -1.
<mgrwt>
<rscale>  0 0.28962915E+04</rscale>
<asrwt>0</asrwt>
<pdfrwt beam="1">  1        1 0.38672796E+00 0.28962915E+04</pdfrwt>
<pdfrwt beam="2">  1       -1 0.12834893E+00 0.28962915E+04</pdfrwt>
<totfact> 0.59576433E-01</totfact>
</mgrwt>
</event>
<event>
 6    1  0.1588846E-005  0.1605978E+04  0.7818608E-02  0.8816884E-01
         -1   -1    0    0    0  501 -0.00000000000E+00  0.00000000000E+00  0.30991050439E+03  0.30991050439E+03  0.00000000000E+00 0.  1.
          1   -1    0    0  501    0  0.00000000000E+00 -0.00000000000E+00 -0.20805733454E+04  0.20805733454E+04  0.00000000000E+00 0. -1.
         23    2    1    2    0    0 -0.48882190746E+03 -0.56815214921E+01 -0.18315065454E+04  0.18978571217E+04  0.92012454442E+02 0.  0.
         11    1    3    3    0    0 -0.27686462611E+03 -0.44468768214E+02 -0.96074125951E+03  0.10008272879E+04  0.00000000000E+00 0.  1.
        -11    1    3    3    0    0 -0.21195728135E+03  0.38787246722E+02 -0.87076528586E+03  0.89702983378E+03  0.00000000000E+00 0. -1.
         22    1    1    2    0    0  0.48882190746E+03  0.56815214921E+01  0.60843704317E+02  0.49262672812E+03  0.00000000000E+00 0.  1.
<mgrwt>
<rscale>  0 0.16059783E+04</rscale>
<asrwt>0</asrwt>
<pdfrwt beam="1">  1        1 0.32008821E+00 0.16059783E+04</pdfrwt>
<pdfrwt beam="2">  1       -1 0.47678539E-01 0.16059783E+04</pdfrwt>
<totfact> 0.11075129E+01</totfact>
</mgrwt>
</event>
<event>
 6    1  0.1588846E-005  0.1584593E+04  0.7818608E-02  0.8830069E-01
         -2   -1    0    0    0  501 -0.00000000000E+00  0.00000000000E+00  0.10341900118E+04  0.10341900118E+04  0.00000000000E+00 0.  1.
          2   -1    0    0  501    0  0.00000000000E+00 -0.00000000000E+00 -0.60698111599E+03  0.60698111599E+03  0.00000000000E+00 0. -1.
         23    2    1    2    0    0 -0.50873841412E+03 -0.98797385915E+02 -0.40256880527E+03  0.66285281013E+03  0.93469286148E+02 0.  0.
         11    1    3    3    0    0 -0.46985444838E+03 -0.64593863819E+02 -0.37159684253E+03  0.60251123084E+03  0.00000000000E+00 0.  1.
        -11    1    3    3    0    0 -0.38883965745E+02 -0.34203522096E+02 -0.30971962732E+02  0.60341579290E+02  0.00000000000E+00 0. -1.
         22    1    1    2    0    0  0.50873841412E+03  0.98797385915E+02  0.82977770106E+03  0.97831831765E+03  0.00000000000E+00 0.  1.
<mgrwt>
<rscale>  0 0.15845931E+04</rscale>
<asrwt>0</asrwt>
<pdfrwt beam="1">  1        2 0.93381710E-01 0.15845931E+04</pdfrwt>
<pdfrwt beam="2">  1       -2 0.15910616E+00 0.15845931E+04</pdfrwt>
<totfact> 0.11998720E+01</totfact>
</mgrwt>
</event>
<event>
 6    1  0.1588846E-005  0.1736366E+04  0.7818608E-02  0.8740891E-01
          2   -1    0    0  501    0  0.00000000000E+00  0.00000000000E+00  0.27788180940E+04  0.27788180940E+04  0.00000000000E+00 0. -1.
         -2   -1    0    0    0  501 -0.00000000000E+00 -0.00000000000E+00 -0.27124553078E+03  0.27124553078E+03  0.00000000000E+00 0.  1.
         23    2    1    2    0    0  0.19061962406E+03  0.70722783981E+03  0.20681759203E+04  0.21959111394E+04  0.90371655969E+02 0.  0.
         11    1    3    3    0    0  0.58922758561E+02  0.31143978770E+03  0.10066337068E+04  0.10553568365E+04  0.00000000000E+00 0.  1.
        -11    1    3    3    0    0  0.13169686550E+03  0.39578805211E+03  0.10615422136E+04  0.11405543029E+04  0.00000000000E+00 0. -1.
         22    1    1    2    0    0 -0.19061962406E+03 -0.70722783981E+03  0.43939664286E+03  0.85415248535E+03  0.00000000000E+00 0.  1.
<mgrwt>
<rscale>  0 0.17363663E+04</rscale>
<asrwt>0</asrwt>
<pdfrwt beam="1">  1        2 0.42751046E+00 0.17363663E+04</pdfrwt>
<pdfrwt beam="2">  1       -2 0.41730084E-01 0.17363663E+04</pdfrwt>
<totfact> 0.12332439E+01</totfact>
</mgrwt>
</event>
<event>
 6    1  0.1588846E-005  0.1690459E+04  0.7818608E-02  0.8766825E-01
         -1   -1    0    0    0  501 -0.00000000000E+00  0.00000000000E+00  0.73947954428E+03  0.73947954428E+03  0.00000000000E+00 0.  1.
          1   -1    0    0  501    0  0.00000000000E+00 -0.00000000000E+00 -0.96610181131E+03  0.96610181131E+03  0.00000000000E+00 0. -1.
         23    2    1    2    0    0  0.12250855266E+02 -0.58433182969E+03 -0.72651102103E+03  0.93650233688E+03  0.87318913501E+02 0.  0.
         13    1    3    3    0    0 -0.26050236076E+02 -0.45380047438E+03 -0.57278239982E+03  0.73122716231E+03  0.00000000000E+00 0.  1.
        -13    1    3    3    0    0  0.38301091342E+02 -0.13053135531E+03 -0.15372862120E+03  0.20527517457E+03  0.00000000000E+00 0. -1.
         22    1    1    2    0    0 -0.12250855266E+02  0.58433182969E+03  0.49988875400E+03  0.76907901871E+03  0.00000000000E+00 0.  1.
<mgrwt>
<rscale>  0 0.16904585E+04</rscale>
<asrwt>0</asrwt>
<pdfrwt beam="1">  1        1 0.14863105E+00 0.16904585E+04</pdfrwt>
<pdfrwt beam="2">  1       -1 0.11376608E+00 0.16904585E+04</pdfrwt>
<totfact> 0.10797421E+01</totfact>
</mgrwt>
</event>
<event>
 6    1  0.1588846E-005  0.3383914E+04  0.7818608E-02  0.8141866E-01
          2   -1    0    0  501    0  0.00000000000E+00  0.00000000000E+00  0.69795158674E+03  0.69795158674E+03  0.00000000000E+00 0. -1.
         -2   -1    0    0    0  501 -0.00000000000E+00 -0.00000000000E+00 -0.41015997886E+04  0.41015997886E+04  0.00000000000E+00 0.  1.
         23    2    1    2    0    0  0.12251080782E+04 -0.53744266088E+03 -0.23709506927E+03  0.13619950982E+04  0.95300360499E+02 0.  0.
         11    1    3    3    0    0  0.38807537382E+03 -0.16572084848E+03 -0.30211610593E+02  0.42305866827E+03  0.00000000000E+00 0. -1.
        -11    1    3    3    0    0  0.83703270435E+03 -0.37172181241E+03 -0.20688345867E+03  0.93893642992E+03  0.00000000000E+00 0.  1.
         22    1    1    2    0    0 -0.12251080782E+04  0.53744266088E+03 -0.31665531326E+04  0.34375562771E+04  0.00000000000E+00 0.  1.
<mgrwt>
<rscale>  0 0.33839138E+04</rscale>
<asrwt>0</asrwt>
<pdfrwt beam="1">  1        2 0.10737716E+00 0.33839138E+04</pdfrwt>
<pdfrwt beam="2">  1       -2 0.63101537E+00 0.33839138E+04</pdfrwt>
<totfact> 0.13189108E-02</totfact>
</mgrwt>
</event>
<event>
 6    1  0.1588846E-005  0.2788883E+04  0.7818608E-02  0.8306728E-01
          1   -1    0    0  501    0  0.00000000000E+00  0.00000000000E+00  0.71005321136E+03  0.71005321136E+03  0.00000000000E+00 0. -1.
         -1   -1    0    0    0  501 -0.00000000000E+00 -0.00000000000E+00 -0.27384808054E+04  0.27384808054E+04  0.00000000000E+00 0.  1.
         23    2    1    2    0    0  0.11293959611E+04 -0.78448236305E+03 -0.12901866233E+04  0.18877817797E+04  0.90502541049E+02 0.  0.
         11    1    3    3    0    0  0.85646201840E+03 -0.61203414386E+03 -0.93717426188E+03  0.14094000778E+04  0.00000000000E+00 0. -1.
        -11    1    3    3    0    0  0.27293394265E+03 -0.17244821918E+03 -0.35301236145E+03  0.47838170188E+03  0.00000000000E+00 0.  1.
         22    1    1    2    0    0 -0.11293959611E+04  0.78448236305E+03 -0.73824097074E+03  0.15607522371E+04  0.00000000000E+00 0. -1.
<mgrwt>
<rscale>  0 0.27888830E+04</rscale>
<asrwt>0</asrwt>
<pdfrwt beam="1">  1        1 0.10923895E+00 0.27888830E+04</pdfrwt>
<pdfrwt beam="2">  1       -1 0.42130475E+00 0.27888830E+04</pdfrwt>
<totfact> 0.11788450E-01</totfact>
</mgrwt>
</event>
<event>
 6    1  0.1588846E-005  0.1480067E+04  0.7818608E-02  0.8897817E-01
         -2   -1    0    0    0  501 -0.00000000000E+00  0.00000000000E+00  0.16861368940E+03  0.16861368940E+03  0.00000000000E+00 0.  1.
          2   -1    0    0  501    0  0.00000000000E+00 -0.00000000000E+00 -0.32479545237E+04  0.32479545237E+04  0.00000000000E+00 0. -1.
         23    2    1    2    0    0  0.14595454915E+02  0.21736602705E+03 -0.31714286320E+04  0.31800493354E+04  0.85400179417E+02 0.  0.
         13    1    3    3    0    0 -0.30285597505E+02  0.58735341221E+02 -0.11572520922E+04  0.11591373786E+04  0.00000000000E+00 0. -1.
        -13    1    3    3    0    0  0.44881052420E+02  0.15863068582E+03 -0.20141765399E+04  0.20209119568E+04  0.00000000000E+00 0.  1.
         22    1    1    2    0    0 -0.14595454915E+02 -0.21736602705E+03  0.92087797710E+02  0.23651887769E+03  0.00000000000E+00 0.  1.
<mgrwt>
<rscale>  0 0.14800670E+04</rscale>
<asrwt>0</asrwt>
<pdfrwt beam="1">  1        2 0.49968531E+00 0.14800670E+04</pdfrwt>
<pdfrwt beam="2">  1       -2 0.25940568E-01 0.14800670E+04</pdfrwt>
<totfact> 0.15824899E+01</totfact>
</mgrwt>
</event>
<event>
 6    1  0.1588846E-005  0.5777837E+04  0.7818608E-02  0.7718574E-01
          1   -1    0    0  501    0  0.00000000000E+00  0.00000000000E+00  0.42251619189E+04  0.42251619189E+04  0.00000000000E+00 0. -1.
         -1   -1    0    0    0  501 -0.00000000000E+00 -0.00000000000E+00 -0.19752733143E+04  0.19752733143E+04  0.00000000000E+00 0.  1.
         23    2    1    2    0    0 -0.12298251787E+04 -0.43452380257E+02  0.39292329052E+04  0.41184757333E+04  0.92806589859E+02 0.  0.
         11    1    3    3    0    0 -0.23461524322E+03  0.24749993374E+02  0.80435015325E+03  0.83823388357E+03  0.00000000000E+00 0.  1.
        -11    1    3    3    0    0 -0.99520993547E+03 -0.68202373631E+02  0.31248827519E+04  0.32802418497E+04  0.00000000000E+00 0. -1.
         22    1    1    2    0    0  0.12298251787E+04  0.43452380257E+02 -0.16793443005E+04  0.20819594999E+04  0.00000000000E+00 0.  1.
<mgrwt>
<rscale>  0 0.57778368E+04</rscale>
<asrwt>0</asrwt>
<pdfrwt beam="1">  1        1 0.65002491E+00 0.57778368E+04</pdfrwt>
<pdfrwt beam="2">  1       -1 0.30388820E+00 0.57778368E+04</pdfrwt>
<totfact> 0.12614283E-03</totfact>
</mgrwt>
</event>
<event>
 6    1  0.1588846E-005  0.1273162E+04  0.7818608E-02  0.9051123E-01
         -2   -1    0    0    0  501 -0.00000000000E+00  0.00000000000E+00  0.14172378643E+03  0.14172378643E+03  0.00000000000E+00 0.  1.
          2   -1    0    0  501    0  0.00000000000E+00 -0.00000000000E+00 -0.28593327506E+04  0.28593327506E+04  0.00000000000E+00 0. -1.
         23    2    1    2    0    0 -0.33080090077E+03  0.40563136058E+03 -0.52451315532E+03  0.74636470366E+03  0.89331876384E+02 0.  0.
         11    1    3    3    0    0 -0.31000017114E+02  0.61457843655E+02 -0.35558645052E+02  0.77475704873E+02  0.00000000000E+00 0. -1.
        -11    1    3    3    0    0 -0.29980088366E+03  0.34417351692E+03 -0.48895451027E+03  0.66888899879E+03  0.00000000000E+00 0.  1.
         22    1    1    2    0    0  0.33080090077E+03 -0.40563136058E+03 -0.21930958089E+04  0.22546918334E+04  0.00000000000E+00 0. -1.
<mgrwt>
<rscale>  0 0.12731621E+04</rscale>
<asrwt>0</asrwt>
<pdfrwt beam="1">  1        2 0.43989735E+00 0.12731621E+04</pdfrwt>
<pdfrwt beam="2">  1       -2 0.21803659E-01 0.12731621E+04</pdfrwt>
<totfact> 0.38715916E+01</totfact>
</mgrwt>
</event>
<event>
 6    1  0.1588846E-005  0.3981210E+03  0.7818608E-02  0.1044432E+00
          2   -1    0    0  501    0  0.00000000000E+00  0.00000000000E+00  0.35003177341E+03  0.35003177341E+03  0.00000000000E+00 0. -1.
         -2   -1    0    0    0  501 -0.00000000000E+00 -0.00000000000E+00 -0.11320423115E+03  0.11320423115E+03  0.00000000000E+00 0.  1.
         23    2    1    2    0    0  0.23745623374E+02 -0.79058489754E+02  0.32132405565E+03  0.34510996930E+03  0.95066517426E+02 0.  0.
         11    1    3    3    0    0  0.29846078613E+02 -0.46243916960E+01  0.20267367925E+03  0.20491167284E+03  0.00000000000E+00 0.  1.
        -11    1    3    3    0    0 -0.61004552394E+01 -0.74434098058E+02  0.11865037640E+03  0.14019829646E+03  0.00000000000E+00 0. -1.
         22    1    1    2    0    0 -0.23745623374E+02  0.79058489754E+02 -0.84496513392E+02  0.11812603526E+03  0.00000000000E+00 0.  1.
<mgrwt>
<rscale>  0 0.39812098E+03</rscale>
<asrwt>0</asrwt>
<pdfrwt beam="1">  1        2 0.53851042E-01 0.39812098E+03</pdfrwt>
<pdfrwt beam="2">  1       -2 0.17416036E-01 0.39812098E+03</pdfrwt>
<totfact> 0.24763406E+03</totfact>
</mgrwt>
</event>
<event>
 6    1  0.1588846E-005  0.3513169E+04  0.7818608E-02  0.8110676E-01
          2   -1    0    0  501    0  0.00000000000E+00  0.00000000000E+00  0.16768693394E+04  0.16768693394E+04  0.00000000000E+00 0.  1.
         -2   -1    0    0    0  501 -0.00000000000E+00 -0.00000000000E+00 -0.18400892663E+04  0.18400892663E+04  0.00000000000E+00 0. -1.
         23    2    1    2    0    0  0.71888482853E+03 -0.13743161868E+04  0.74134118618E+03  0.17214722690E+04  0.91321633702E+02 0.  0.
         13    1    3    3    0    0  0.87475895606E+02 -0.21238708491E+03  0.13769335403E+03  0.26780546278E+03  0.00000000000E+00 0. -1.
        -13    1    3    3    0    0  0.63140893292E+03 -0.11619291019E+04  0.60364783214E+03  0.14536668062E+04  0.00000000000E+00 0.  1.
         22    1    1    2    0    0 -0.71888482853E+03  0.13743161868E+04 -0.90456111304E+03  0.17954863367E+04  0.00000000000E+00 0. -1.
<mgrwt>
<rscale>  0 0.35131691E+04</rscale>
<asrwt>0</asrwt>
<pdfrwt beam="1">  1        2 0.25797990E+00 0.35131691E+04</pdfrwt>
<pdfrwt beam="2">  1       -2 0.28309066E+00 0.35131691E+04</pdfrwt>
<totfact> 0.33436240E-01</totfact>
</mgrwt>
</event>
<event>
 6    1  0.1588846E-005  0.5315086E+03  0.7818608E-02  0.1005867E+00
         -2   -1    0    0    0  501 -0.00000000000E+00  0.00000000000E+00  0.15643289653E+03  0.15643289653E+03  0.00000000000E+00 0.  1.
          2   -1    0    0  501    0  0.00000000000E+00 -0.00000000000E+00 -0.45147367870E+03  0.45147367870E+03  0.00000000000E+00 0. -1.
         23    2    1    2    0    0  0.14447202581E+03  0.14521990133E+03 -0.33035096785E+03  0.40004172684E+03  0.94554932544E+02 0.  0.
         11    1    3    3    0    0  0.58615932266E+02  0.12325818497E+03 -0.18703652916E+03  0.23154064636E+03  0.00000000000E+00 0. -1.
        -11    1    3    3    0    0  0.85856093547E+02  0.21961716355E+02 -0.14331443869E+03  0.16850108047E+03  0.00000000000E+00 0.  1.
         22    1    1    2    0    0 -0.14447202581E+03 -0.14521990133E+03  0.35310185677E+02  0.20786484839E+03  0.00000000000E+00 0.  1.
<mgrwt>
<rscale>  0 0.53150855E+03</rscale>
<asrwt>0</asrwt>
<pdfrwt beam="1">  1        2 0.69457488E-01 0.53150855E+03</pdfrwt>
<pdfrwt beam="2">  1       -2 0.24066600E-01 0.53150855E+03</pdfrwt>
<totfact> 0.10659100E+03</totfact>
</mgrwt>
</event>
<event>
 6    1  0.1588846E-005  0.1763770E+04  0.7818608E-02  0.8725807E-01
         -1   -1    0    0    0  501 -0.00000000000E+00  0.00000000000E+00  0.32610861605E+03  0.32610861605E+03  0.00000000000E+00 0.  1.
          1   -1    0    0  501    0  0.00000000000E+00 -0.00000000000E+00 -0.23848522044E+04  0.23848522044E+04  0.00000000000E+00 0. -1.
         23    2    1    2    0    0  0.46715250383E+03  0.40018880717E+03 -0.19987348867E+04  0.20929126124E+04  0.83423692081E+02 0.  0.
         13    1    3    3    0    0  0.10043869519E+03  0.92420854671E+02 -0.33708789827E+03  0.36367265092E+03  0.00000000000E+00 0.  1.
        -13    1    3    3    0    0  0.36671380864E+03  0.30776795250E+03 -0.16616469885E+04  0.17292399615E+04  0.00000000000E+00 0. -1.
         22    1    1    2    0    0 -0.46715250383E+03 -0.40018880717E+03 -0.60008701613E+02  0.61804820806E+03  0.00000000000E+00 0.  1.
<mgrwt>
<rscale>  0 0.17637697E+04</rscale>
<asrwt>0</asrwt>
<pdfrwt beam="1">  1        1 0.36690034E+00 0.17637697E+04</pdfrwt>
<pdfrwt beam="2">  1       -1 0.50170556E-01 0.17637697E+04</pdfrwt>
<totfact> 0.61481989E+00</totfact>
</mgrwt>
</event>
<event>
 6    1  0.1588846E-005  0.1781608E+04  0.7818608E-02  0.8716142E-01
         -2   -1    0    0    0  501 -0.00000000000E+00  0.00000000000E+00  0.81559586601E+03  0.81559586601E+03  0.00000000000E+00 0. -1.
          2   -1    0    0  501    0  0.00000000000E+00 -0.00000000000E+00 -0.97294764526E+03  0.97294764526E+03  0.00000000000E+00 0.  1.
         23    2    1    2    0    0 -0.12366223751E+03  0.85191467315E+03  0.14185479795E+03  0.87718434215E+03  0.90986961170E+02 0.  0.
         11    1    3    3    0    0 -0.48905618988E+02  0.23252212690E+03  0.77775432518E+02  0.25001463351E+03  0.00000000000E+00 0.  1.
        -11    1    3    3    0    0 -0.74756618521E+02  0.61939254625E+03  0.64079365433E+02  0.62716970864E+03  0.00000000000E+00 0. -1.
         22    1    1    2    0    0  0.12366223751E+03 -0.85191467315E+03 -0.29920657720E+03  0.91135916913E+03  0.00000000000E+00 0.  1.
<mgrwt>
<rscale>  0 0.17816083E+04</rscale>
<asrwt>0</asrwt>
<pdfrwt beam="1">  1        2 0.14968425E+00 0.17816083E+04</pdfrwt>
<pdfrwt beam="2">  1       -2 0.12547629E+00 0.17816083E+04</pdfrwt>
<totfact> 0.11775749E+01</totfact>
</mgrwt>
</event>
<event>
 6    1  0.1588846E-005  0.3128813E+03  0.7818608E-02  0.1078973E+00
         -1   -1    0    0    0  501 -0.00000000000E+00  0.00000000000E+00  0.12419783852E+02  0.12419783852E+02  0.00000000000E+00 0.  1.
          1   -1    0    0  501    0  0.00000000000E+00 -0.00000000000E+00 -0.19705395588E+04  0.19705395588E+04  0.00000000000E+00 0. -1.
         23    2    1    2    0    0 -0.35184667624E+02 -0.11333898006E+03 -0.15707750965E+04  0.15778425877E+04  0.90383308608E+02 0.  0.
         11    1    3    3    0    0 -0.11458297799E+02  0.14242658529E+02 -0.26708626505E+03  0.26771107352E+03  0.00000000000E+00 0.  1.
        -11    1    3    3    0    0 -0.23726369824E+02 -0.12758163859E+03 -0.13036888314E+04  0.13101315141E+04  0.00000000000E+00 0. -1.
         22    1    1    2    0    0  0.35184667624E+02  0.11333898006E+03 -0.38734467843E+03  0.40511675496E+03  0.00000000000E+00 0.  1.
<mgrwt>
<rscale>  0 0.31288129E+03</rscale>
<asrwt>0</asrwt>
<pdfrwt beam="1">  1        1 0.30315979E+00 0.31288129E+03</pdfrwt>
<pdfrwt beam="2">  1       -1 0.19107369E-02 0.31288129E+03</pdfrwt>
<totfact> 0.25814699E+03</totfact>
</mgrwt>
</event>
<event>
 6    1  0.1588846E-005  0.2549715E+04  0.7818608E-02  0.8385485E-01
         -2   -1    0    0    0  501 -0.00000000000E+00  0.00000000000E+00  0.56446058154E+03  0.56446058154E+03  0.00000000000E+00 0.  1.
          2   -1    0    0  501    0  0.00000000000E+00 -0.00000000000E+00 -0.28793187438E+04  0.28793187438E+04  0.00000000000E+00 0. -1.
         23    2    1    2    0    0  0.57536561744E+03  0.10256535657E+04 -0.50610882036E+03  0.12863305977E+04  0.12445657043E+03 0.  0.
         11    1    3    3    0    0  0.48873364830E+03  0.89585533843E+03 -0.39282385104E+03  0.10934934587E+04  0.00000000000E+00 0. -1.
        -11    1    3    3    0    0  0.86631969140E+02  0.12979822728E+03 -0.11328496932E+03  0.19283713894E+03  0.00000000000E+00 0.  1.
         22    1    1    2    0    0 -0.57536561744E+03 -0.10256535657E+04 -0.18087493419E+04  0.21574487276E+04  0.00000000000E+00 0. -1.
<mgrwt>
<rscale>  0 0.25497152E+04</rscale>
<asrwt>0</asrwt>
<pdfrwt beam="1">  1        2 0.44297212E+00 0.25497152E+04</pdfrwt>
<pdfrwt beam="2">  1       -2 0.86840088E-01 0.25497152E+04</pdfrwt>
<totfact> 0.21081711E+00</totfact>
</mgrwt>
</event>
<event>
 6    1  0.1588846E-005  0.1762395E+04  0.7818608E-02  0.8726557E-01
         -1   -1    0    0    0  501 -0.00000000000E+00  0.00000000000E+00  0.52105613543E+03  0.52105613543E+03  0.00000000000E+00 0.  1.
          1   -1    0    0  501    0  0.00000000000E+00 -0.00000000000E+00 -0.14902593422E+04  0.14902593422E+04  0.00000000000E+00 0. -1.
         23    2    1    2    0    0 -0.12528582734E+03  0.76925173665E+03 -0.22646661147E+02  0.78517761143E+03  0.92445861788E+02 0.  0.
         11    1    3    3    0    0 -0.62552288968E+02  0.38035715181E+03  0.35033443086E+02  0.38705515618E+03  0.00000000000E+00 0.  1.
        -11    1    3    3    0    0 -0.62733538376E+02  0.38889458484E+03 -0.57680104233E+02  0.39812245525E+03  0.00000000000E+00 0. -1.
         22    1    1    2    0    0  0.12528582734E+03 -0.76925173665E+03 -0.94655654561E+03  0.12261378662E+04  0.00000000000E+00 0. -1.
<mgrwt>
<rscale>  0 0.17623947E+04</rscale>
<asrwt>0</asrwt>
<pdfrwt beam="1">  1        1 0.22927067E+00 0.17623947E+04</pdfrwt>
<pdfrwt beam="2">  1       -1 0.80162483E-01 0.17623947E+04</pdfrwt>
<totfact> 0.97685288E+00</totfact>
</mgrwt>
</event>
<event>
 6    1  0.1588846E-005  0.2151911E+04  0.7818608E-02  0.8538715E-01
         -2   -1    0    0    0  501 -0.00000000000E+00  0.00000000000E+00  0.83760745964E+03  0.83760745964E+03  0.00000000000E+00 0.  1.
          2   -1    0    0  501    0  0.00000000000E+00 -0.00000000000E+00 -0.13821268231E+04  0.13821268231E+04  0.00000000000E+00 0. -1.
         23    2    1    2    0    0 -0.64028636368E+03  0.70821825352E+02  0.61380696346E+03  0.89432784014E+03  0.89894042025E+02 0.  0.
         11    1    3    3    0    0 -0.35454512138E+03  0.83825815479E+02  0.35063311425E+03  0.50564077293E+03  0.00000000000E+00 0. -1.
        -11    1    3    3    0    0 -0.28574124229E+03 -0.13003990128E+02  0.26317384921E+03  0.38868706721E+03  0.00000000000E+00 0.  1.
         22    1    1    2    0    0  0.64028636368E+03 -0.70821825352E+02 -0.11583263269E+04  0.13254064426E+04  0.00000000000E+00 0. -1.
<mgrwt>
<rscale>  0 0.21519105E+04</rscale>
<asrwt>0</asrwt>
<pdfrwt beam="1">  1        2 0.21263490E+00 0.21519105E+04</pdfrwt>
<pdfrwt beam="2">  1       -2 0.12886269E+00 0.21519105E+04</pdfrwt>
<totfact> 0.60388622E+00</totfact>
</mgrwt>
</event>
<event>
 6    1  0.1588846E-005  0.1696860E+04  0.7818608E-02  0.8763157E-01
         -2   -1    0    0    0  501 -0.00000000000E+00  0.00000000000E+00  0.27992273245E+03  0.27992273245E+03  0.00000000000E+00 0.  1.
          2   -1    0    0  501    0  0.00000000000E+00 -0.00000000000E+00 -0.25715439710E+04  0.25715439710E+04  0.00000000000E+00 0. -1.
         23    2    1    2    0    0 -0.31753489457E+03 -0.66803922981E+03 -0.46117878190E+03  0.87722649290E+03  0.98669291792E+02 0.  0.
         13    1    3    3    0    0 -0.27223826150E+02 -0.14862949360E+03 -0.98585586429E+02  0.18041890403E+03  0.00000000000E+00 0. -1.
        -13    1    3    3    0    0 -0.29031106842E+03 -0.51940973621E+03 -0.36259319547E+03  0.69680758887E+03  0.00000000000E+00 0.  1.
         22    1    1    2    0    0  0.31753489457E+03  0.66803922981E+03 -0.18304424567E+04  0.19742402106E+04  0.00000000000E+00 0. -1.
<mgrwt>
<rscale>  0 0.16968602E+04</rscale>
<asrwt>0</asrwt>
<pdfrwt beam="1">  1        2 0.39562213E+00 0.16968602E+04</pdfrwt>
<pdfrwt beam="2">  1       -2 0.43065037E-01 0.16968602E+04</pdfrwt>
<totfact> 0.15418884E+01</totfact>
</mgrwt>
</event>
<event>
 6    1  0.1588846E-005  0.2356661E+04  0.7818608E-02  0.8455910E-01
         -2   -1    0    0    0  501 -0.00000000000E+00  0.00000000000E+00  0.11795037659E+04  0.11795037659E+04  0.00000000000E+00 0. -1.
          2   -1    0    0  501    0  0.00000000000E+00 -0.00000000000E+00 -0.11771580745E+04  0.11771580745E+04  0.00000000000E+00 0.  1.
         23    2    1    2    0    0 -0.47489366292E+03 -0.10615852717E+04  0.17946162627E+03  0.11802871829E+04  0.91564613897E+02 0.  0.
         11    1    3    3    0    0 -0.32458064694E+03 -0.65787639005E+03  0.78072319465E+02  0.73773249083E+03  0.00000000000E+00 0.  1.
        -11    1    3    3    0    0 -0.15031301599E+03 -0.40370888169E+03  0.10138930681E+03  0.44255469206E+03  0.00000000000E+00 0. -1.
         22    1    1    2    0    0  0.47489366292E+03  0.10615852717E+04 -0.17711593489E+03  0.11763746574E+04  0.00000000000E+00 0.  1.
<mgrwt>
<rscale>  0 0.23566607E+04</rscale>
<asrwt>0</asrwt>
<pdfrwt beam="1">  1        2 0.18110124E+00 0.23566607E+04</pdfrwt>
<pdfrwt beam="2">  1       -2 0.18146212E+00 0.23566607E+04</pdfrwt>
<totfact> 0.31253246E+00</totfact>
</mgrwt>
</event>
<event>
 6    1  0.1588846E-005  0.1445079E+04  0.7818608E-02  0.8921820E-01
         -1   -1    0    0    0  501 -0.00000000000E+00  0.00000000000E+00  0.47535957713E+03  0.47535957713E+03  0.00000000000E+00 0.  1.
          1   -1    0    0  501    0  0.00000000000E+00 -0.00000000000E+00 -0.10982487198E+04  0.10982487198E+04  0.00000000000E+00 0. -1.
         23    2    1    2    0    0  0.25823975514E+03  0.20881351509E+03  0.38253166607E+03  0.51475898854E+03  0.91408344897E+02 0.  0.
         13    1    3    3    0    0  0.11426349877E+03  0.39679852304E+02  0.15730437614E+03  0.19843211580E+03  0.00000000000E+00 0.  1.
        -13    1    3    3    0    0  0.14397625637E+03  0.16913366278E+03  0.22522728994E+03  0.31632687274E+03  0.00000000000E+00 0. -1.
         22    1    1    2    0    0 -0.25823975514E+03 -0.20881351509E+03 -0.10054208088E+04  0.10588493084E+04  0.00000000000E+00 0. -1.
<mgrwt>
<rscale>  0 0.14450786E+04</rscale>
<asrwt>0</asrwt>
<pdfrwt beam="1">  1        1 0.16896134E+00 0.14450786E+04</pdfrwt>
<pdfrwt beam="2">  1       -1 0.73132243E-01 0.14450786E+04</pdfrwt>
<totfact> 0.23289396E+01</totfact>
</mgrwt>
</event>
<event>
 6    1  0.1588846E-005  0.3140561E+04  0.7818608E-02  0.8204694E-01
          1   -1    0    0  501    0  0.00000000000E+00  0.00000000000E+00  0.27452989340E+04  0.27452989340E+04  0.00000000000E+00 0. -1.
         -1   -1    0    0    0  501 -0.00000000000E+00 -0.00000000000E+00 -0.89818325053E+03  0.89818325053E+03  0.00000000000E+00 0.  1.
         23    2    1    2    0    0  0.76140558787E+03 -0.11017452486E+04 -0.23684679364E+02  0.13427268608E+04  0.93666412408E+02 0.  0.
         11    1    3    3    0    0  0.50534144323E+02 -0.12119426643E+03 -0.68674549371E+01  0.13148730697E+03  0.00000000000E+00 0. -1.
        -11    1    3    3    0    0  0.71087144354E+03 -0.98055098213E+03 -0.16817224427E+02  0.12112395539E+04  0.00000000000E+00 0.  1.
         22    1    1    2    0    0 -0.76140558787E+03  0.11017452486E+04  0.18708003628E+04  0.23007553237E+04  0.00000000000E+00 0. -1.
<mgrwt>
<rscale>  0 0.31405614E+04</rscale>
<asrwt>0</asrwt>
<pdfrwt beam="1">  1        1 0.42235368E+00 0.31405614E+04</pdfrwt>
<pdfrwt beam="2">  1       -1 0.13818204E+00 0.31405614E+04</pdfrwt>
<totfact> 0.33225577E-01</totfact>
</mgrwt>
</event>
<event>
 6    1  0.1588846E-005  0.1440962E+04  0.7818608E-02  0.8924691E-01
         -1   -1    0    0    0  501 -0.00000000000E+00  0.00000000000E+00  0.44390954349E+03  0.44390954349E+03  0.00000000000E+00 0.  1.
          1   -1    0    0  501    0  0.00000000000E+00 -0.00000000000E+00 -0.11693658498E+04  0.11693658498E+04  0.00000000000E+00 0. -1.
         23    2    1    2    0    0  0.57580449828E+03 -0.20459179891E+03 -0.78474345671E+03  0.99933436136E+03  0.97150648559E+02 0.  0.
         11    1    3    3    0    0  0.39737428884E+03 -0.94196057263E+02 -0.53794354051E+03  0.67539801259E+03  0.00000000000E+00 0.  1.
        -11    1    3    3    0    0  0.17843020944E+03 -0.11039574165E+03 -0.24679991620E+03  0.32393634877E+03  0.00000000000E+00 0. -1.
         22    1    1    2    0    0 -0.57580449828E+03  0.20459179891E+03  0.59287150448E+02  0.61394103189E+03  0.00000000000E+00 0.  1.
<mgrwt>
<rscale>  0 0.14409617E+04</rscale>
<asrwt>0</asrwt>
<pdfrwt beam="1">  1        1 0.17990244E+00 0.14409617E+04</pdfrwt>
<pdfrwt beam="2">  1       -1 0.68293775E-01 0.14409617E+04</pdfrwt>
<totfact> 0.23741798E+01</totfact>
</mgrwt>
</event>
<event>
 6    1  0.1588846E-005  0.3210046E+04  0.7818608E-02  0.8186169E-01
         -4   -1    0    0    0  501 -0.00000000000E+00  0.00000000000E+00  0.20069391257E+04  0.20069391257E+04  0.00000000000E+00 0.  1.
          4   -1    0    0  501    0  0.00000000000E+00 -0.00000000000E+00 -0.12835958096E+04  0.12835958096E+04  0.00000000000E+00 0. -1.
         23    2    1    2    0    0 -0.47895863124E+03 -0.35863027775E+03  0.18872041176E+04  0.19818756933E+04  0.90966123329E+02 0.  0.
         13    1    3    3    0    0 -0.17109173466E+03 -0.15120043385E+03  0.85433945294E+03  0.88432451833E+03  0.00000000000E+00 0.  1.
        -13    1    3    3    0    0 -0.30786689657E+03 -0.20742984390E+03  0.10328646646E+04  0.10975511749E+04  0.00000000000E+00 0. -1.
         22    1    1    2    0    0  0.47895863124E+03  0.35863027775E+03 -0.11638608015E+04  0.13086592420E+04  0.00000000000E+00 0. -1.
<mgrwt>
<rscale>  0 0.32100459E+04</rscale>
<asrwt>0</asrwt>
<pdfrwt beam="1">  1        4 0.19747628E+00 0.32100459E+04</pdfrwt>
<pdfrwt beam="2">  1       -4 0.30875986E+00 0.32100459E+04</pdfrwt>
<totfact> 0.61993356E-03</totfact>
</mgrwt>
</event>
<event>
 6    1  0.1588846E-005  0.1731960E+04  0.7818608E-02  0.8743343E-01
          2   -1    0    0  501    0  0.00000000000E+00  0.00000000000E+00  0.46564207509E+04  0.46564207509E+04  0.00000000000E+00 0. -1.
         -2   -1    0    0    0  501 -0.00000000000E+00 -0.00000000000E+00 -0.16105105155E+03  0.16105105155E+03  0.00000000000E+00 0.  1.
         23    2    1    2    0    0 -0.16743445473E+03 -0.66641544473E+03  0.79995863451E+03  0.10587211084E+04  0.93876125465E+02 0.  0.
         11    1    3    3    0    0 -0.43612845464E+02 -0.25864991405E+03  0.36818177916E+03  0.45206158965E+03  0.00000000000E+00 0. -1.
        -11    1    3    3    0    0 -0.12382160927E+03 -0.40776553068E+03  0.43177685535E+03  0.60665951879E+03  0.00000000000E+00 0.  1.
         22    1    1    2    0    0  0.16743445473E+03  0.66641544473E+03  0.36954110648E+04  0.37587506940E+04  0.00000000000E+00 0. -1.
<mgrwt>
<rscale>  0 0.17319601E+04</rscale>
<asrwt>0</asrwt>
<pdfrwt beam="1">  1        2 0.71637232E+00 0.17319601E+04</pdfrwt>
<pdfrwt beam="2">  1       -2 0.24777088E-01 0.17319601E+04</pdfrwt>
<totfact> 0.12159705E+00</totfact>
</mgrwt>
</event>
<event>
 6    1  0.1588846E-005  0.1827799E+04  0.7818608E-02  0.8691655E-01
         -2   -1    0    0    0  501 -0.00000000000E+00  0.00000000000E+00  0.23452284381E+03  0.23452284381E+03  0.00000000000E+00 0. -1.
          2   -1    0    0  501    0  0.00000000000E+00 -0.00000000000E+00 -0.35613244867E+04  0.35613244867E+04  0.00000000000E+00 0.  1.
         23    2    1    2    0    0 -0.86230612992E+03 -0.14867270902E+03 -0.11382915692E+04  0.14388891683E+04  0.94967919914E+02 0.  0.
         11    1    3    3    0    0 -0.63669707498E+03 -0.79905670871E+02 -0.78157932190E+03  0.10112538346E+04  0.00000000000E+00 0. -1.
        -11    1    3    3    0    0 -0.22560905494E+03 -0.68767038152E+02 -0.35671224734E+03  0.42763533368E+03  0.00000000000E+00 0.  1.
         22    1    1    2    0    0  0.86230612992E+03  0.14867270902E+03 -0.21885100737E+04  0.23569581623E+04  0.00000000000E+00 0.  1.
<mgrwt>
<rscale>  0 0.18277986E+04</rscale>
<asrwt>0</asrwt>
<pdfrwt beam="1">  1        2 0.54789607E+00 0.18277986E+04</pdfrwt>
<pdfrwt beam="2">  1       -2 0.36080438E-01 0.18277986E+04</pdfrwt>
<totfact> 0.50512458E+00</totfact>
</mgrwt>
</event>
<event>
 6    1  0.1588846E-005  0.1575872E+04  0.7818608E-02  0.8835510E-01
          1   -1    0    0  501    0  0.00000000000E+00  0.00000000000E+00  0.82938607200E+03  0.82938607200E+03  0.00000000000E+00 0. -1.
         -1   -1    0    0    0  501 -0.00000000000E+00 -0.00000000000E+00 -0.74855703305E+03  0.74855703305E+03  0.00000000000E+00 0.  1.
         23    2    1    2    0    0 -0.64925608006E+03 -0.32052438700E+03 -0.26361607732E+03  0.77612530887E+03  0.92777792055E+02 0.  0.
         13    1    3    3    0    0 -0.59205074648E+03 -0.30537128399E+03 -0.21644017560E+03  0.70044418558E+03  0.00000000000E+00 0. -1.
        -13    1    3    3    0    0 -0.57205333575E+02 -0.15153103008E+02 -0.47175901716E+02  0.75681123293E+02  0.00000000000E+00 0.  1.
         22    1    1    2    0    0  0.64925608006E+03  0.32052438700E+03  0.34444511626E+03  0.80181779618E+03  0.00000000000E+00 0. -1.
<mgrwt>
<rscale>  0 0.15758715E+04</rscale>
<asrwt>0</asrwt>
<pdfrwt beam="1">  1        1 0.12759786E+00 0.15758715E+04</pdfrwt>
<pdfrwt beam="2">  1       -1 0.11516262E+00 0.15758715E+04</pdfrwt>
<totfact> 0.13718713E+01</totfact>
</mgrwt>
</event>
<event>
 6    1  0.1588846E-005  0.1582031E+04  0.7818608E-02  0.8831664E-01
          1   -1    0    0  501    0  0.00000000000E+00  0.00000000000E+00  0.17318205438E+04  0.17318205438E+04  0.00000000000E+00 0. -1.
         -1   -1    0    0    0  501 -0.00000000000E+00 -0.00000000000E+00 -0.36129909839E+03  0.36129909839E+03  0.00000000000E+00 0.  1.
         23    2    1    2    0    0 -0.47973404527E+03 -0.38249811988E+02  0.15137752916E+04  0.15909946908E+04  0.90225664394E+02 0.  0.
         11    1    3    3    0    0 -0.26820038258E+03  0.22605061436E+02  0.80159209752E+03  0.84557218783E+03  0.00000000000E+00 0. -1.
        -11    1    3    3    0    0 -0.21153366270E+03 -0.60854873424E+02  0.71218319404E+03  0.74542250298E+03  0.00000000000E+00 0.  1.
         22    1    1    2    0    0  0.47973404527E+03  0.38249811988E+02 -0.14325384619E+03  0.50212495134E+03  0.00000000000E+00 0.  1.
<mgrwt>
<rscale>  0 0.15820306E+04</rscale>
<asrwt>0</asrwt>
<pdfrwt beam="1">  1        1 0.26643392E+00 0.15820306E+04</pdfrwt>
<pdfrwt beam="2">  1       -1 0.55584478E-01 0.15820306E+04</pdfrwt>
<totfact> 0.14259959E+01</totfact>
</mgrwt>
</event>
<event>
 6    1  0.1588846E-005  0.2509822E+04  0.7818608E-02  0.8399495E-01
         -1   -1    0    0    0  501 -0.00000000000E+00  0.00000000000E+00  0.69156791442E+03  0.69156791442E+03  0.00000000000E+00 0.  1.
          1   -1    0    0  501    0  0.00000000000E+00 -0.00000000000E+00 -0.22771469524E+04  0.22771469524E+04  0.00000000000E+00 0. -1.
         23    2    1    2    0    0 -0.44252948891E+03  0.89876380536E+03 -0.16841421093E+04  0.19620752066E+04  0.98973460271E+02 0.  0.
         13    1    3    3    0    0 -0.24546539612E+03  0.41857770845E+03 -0.88134087581E+03  0.10060925892E+04  0.00000000000E+00 0. -1.
        -13    1    3    3    0    0 -0.19706409279E+03  0.48018609692E+03 -0.80280123348E+03  0.95598261742E+03  0.00000000000E+00 0.  1.
         22    1    1    2    0    0  0.44252948891E+03 -0.89876380536E+03  0.98563071321E+02  0.10066396602E+04  0.00000000000E+00 0.  1.
<mgrwt>
<rscale>  0 0.25098221E+04</rscale>
<asrwt>0</asrwt>
<pdfrwt beam="1">  1        1 0.35033030E+00 0.25098221E+04</pdfrwt>
<pdfrwt beam="2">  1       -1 0.10639506E+00 0.25098221E+04</pdfrwt>
<totfact> 0.14133925E+00</totfact>
</mgrwt>
</event>
<event>
 6    1  0.1588846E-005  0.8526672E+03  0.7818608E-02  0.9486764E-01
         -2   -1    0    0    0  501 -0.00000000000E+00  0.00000000000E+00  0.35208887726E+03  0.35208887726E+03  0.00000000000E+00 0.  1.
          2   -1    0    0  501    0  0.00000000000E+00 -0.00000000000E+00 -0.51623425453E+03  0.51623425453E+03  0.00000000000E+00 0. -1.
         23    2    1    2    0    0 -0.34215556163E+03  0.22727518762E+03  0.12312580847E+02  0.42126401910E+03  0.92667874034E+02 0.  0.
         11    1    3    3    0    0 -0.25839167461E+03  0.21378359772E+03  0.20723460056E+02  0.33600468145E+03  0.00000000000E+00 0. -1.
        -11    1    3    3    0    0 -0.83763887017E+02  0.13491589899E+02 -0.84108792095E+01  0.85259337643E+02  0.00000000000E+00 0.  1.
         22    1    1    2    0    0  0.34215556163E+03 -0.22727518762E+03 -0.17645795812E+03  0.44705911270E+03  0.00000000000E+00 0. -1.
<mgrwt>
<rscale>  0 0.85266720E+03</rscale>
<asrwt>0</asrwt>
<pdfrwt beam="1">  1        2 0.79420654E-01 0.85266720E+03</pdfrwt>
<pdfrwt beam="2">  1       -2 0.54167520E-01 0.85266720E+03</pdfrwt>
<totfact> 0.19143373E+02</totfact>
</mgrwt>
</event>
<event>
 6    1  0.1588846E-005  0.1426266E+04  0.7818608E-02  0.8935022E-01
          2   -1    0    0  501    0  0.00000000000E+00  0.00000000000E+00  0.16595622268E+04  0.16595622268E+04  0.00000000000E+00 0. -1.
         -2   -1    0    0    0  501 -0.00000000000E+00 -0.00000000000E+00 -0.30644151302E+03  0.30644151302E+03  0.00000000000E+00 0.  1.
         23    2    1    2    0    0  0.55450603715E+03 -0.39603748794E+03  0.40373629231E+03  0.79739199213E+03  0.92240762628E+02 0.  0.
         11    1    3    3    0    0  0.49264912257E+03 -0.32487941043E+03  0.37343215759E+03  0.69835618821E+03  0.00000000000E+00 0. -1.
        -11    1    3    3    0    0  0.61856914589E+02 -0.71158077512E+02  0.30304134723E+02  0.99035803924E+02  0.00000000000E+00 0.  1.
         22    1    1    2    0    0 -0.55450603715E+03  0.39603748794E+03  0.94938442143E+03  0.11686117477E+04  0.00000000000E+00 0. -1.
<mgrwt>
<rscale>  0 0.14262661E+04</rscale>
<asrwt>0</asrwt>
<pdfrwt beam="1">  1        2 0.25531726E+00 0.14262661E+04</pdfrwt>
<pdfrwt beam="2">  1       -2 0.47144849E-01 0.14262661E+04</pdfrwt>
<totfact> 0.42784161E+01</totfact>
</mgrwt>
</event>
<event>
 6    1  0.1588846E-005  0.2422325E+04  0.7818608E-02  0.8431192E-01
          2   -1    0    0  501    0  0.00000000000E+00  0.00000000000E+00  0.15949292039E+04  0.15949292039E+04  0.00000000000E+00 0. -1.
         -2   -1    0    0    0  501 -0.00000000000E+00 -0.00000000000E+00 -0.91973638875E+03  0.91973638875E+03  0.00000000000E+00 0.  1.
         23    2    1    2    0    0 -0.47841927456E+02 -0.63566107327E+03 -0.72895873870E+03  0.97259055029E+03  0.90541071835E+02 0.  0.
         11    1    3    3    0    0 -0.39995182887E+02 -0.17510222317E+03 -0.25262164598E+03  0.30996467417E+03  0.00000000000E+00 0.  1.
        -11    1    3    3    0    0 -0.78467445681E+01 -0.46055885010E+03 -0.47633709272E+03  0.66262587612E+03  0.00000000000E+00 0. -1.
         22    1    1    2    0    0  0.47841927456E+02  0.63566107327E+03  0.14041515539E+04  0.15420750424E+04  0.00000000000E+00 0. -1.
<mgrwt>
<rscale>  0 0.24223249E+04</rscale>
<asrwt>0</asrwt>
<pdfrwt beam="1">  1        2 0.24537372E+00 0.24223249E+04</pdfrwt>
<pdfrwt beam="2">  1       -2 0.14149791E+00 0.24223249E+04</pdfrwt>
<totfact> 0.35203570E+00</totfact>
</mgrwt>
</event>
<event>
 6    1  0.1588846E-005  0.1551289E+04  0.7818608E-02  0.8851045E-01
          2   -1    0    0  501    0  0.00000000000E+00  0.00000000000E+00  0.15591994036E+04  0.15591994036E+04  0.00000000000E+00 0.  1.
         -2   -1    0    0    0  501 -0.00000000000E+00 -0.00000000000E+00 -0.38585472235E+03  0.38585472235E+03  0.00000000000E+00 0. -1.
         23    2    1    2    0    0  0.27538757300E+03  0.70811241012E+03  0.41054496031E+03  0.86842748919E+03  0.91420122614E+02 0.  0.
         13    1    3    3    0    0  0.88964245920E+02  0.28976839352E+03  0.20811402862E+03  0.36768438619E+03  0.00000000000E+00 0.  1.
        -13    1    3    3    0    0  0.18642332708E+03  0.41834401660E+03  0.20243093169E+03  0.50074310300E+03  0.00000000000E+00 0. -1.
         22    1    1    2    0    0 -0.27538757300E+03 -0.70811241012E+03  0.76279972092E+03  0.10766266368E+04  0.00000000000E+00 0. -1.
<mgrwt>
<rscale>  0 0.15512891E+04</rscale>
<asrwt>0</asrwt>
<pdfrwt beam="1">  1        2 0.23987683E+00 0.15512891E+04</pdfrwt>
<pdfrwt beam="2">  1       -2 0.59362266E-01 0.15512891E+04</pdfrwt>
<totfact> 0.29968855E+01</totfact>
</mgrwt>
</event>
<event>
 6    1  0.1588846E-005  0.6926268E+03  0.7818608E-02  0.9729925E-01
         -2   -1    0    0    0  501 -0.00000000000E+00  0.00000000000E+00  0.80092575173E+02  0.80092575173E+02  0.00000000000E+00 0.  1.
          2   -1    0    0  501    0  0.00000000000E+00 -0.00000000000E+00 -0.14974292756E+04  0.14974292756E+04  0.00000000000E+00 0. -1.
         23    2    1    2    0    0  0.29277471871E+03 -0.14412086203E+03 -0.50400236989E+03  0.60764172513E+03  0.93392818097E+02 0.  0.
         11    1    3    3    0    0  0.11562849219E+03 -0.82455129655E+02 -0.14720320657E+03  0.20454236881E+03  0.00000000000E+00 0. -1.
        -11    1    3    3    0    0  0.17714622652E+03 -0.61665732371E+02 -0.35679916332E+03  0.40309935632E+03  0.00000000000E+00 0.  1.
         22    1    1    2    0    0 -0.29277471871E+03  0.14412086203E+03 -0.91333433053E+03  0.96988012564E+03  0.00000000000E+00 0. -1.
<mgrwt>
<rscale>  0 0.69262679E+03</rscale>
<asrwt>0</asrwt>
<pdfrwt beam="1">  1        2 0.23037371E+00 0.69262679E+03</pdfrwt>
<pdfrwt beam="2">  1       -2 0.12321936E-01 0.69262679E+03</pdfrwt>
<totfact> 0.62982918E+02</totfact>
</mgrwt>
</event>
<event>
 6    1  0.1588846E-005  0.1204743E+04  0.7818608E-02  0.9108715E-01
         -2   -1    0    0    0  501 -0.00000000000E+00  0.00000000000E+00  0.27060299467E+03  0.27060299467E+03  0.00000000000E+00 0.  1.
          2   -1    0    0  501    0  0.00000000000E+00 -0.00000000000E+00 -0.13409004581E+04  0.13409004581E+04  0.00000000000E+00 0. -1.
         23    2    1    2    0    0  0.88758378858E+02 -0.16853887947E+03 -0.12975391752E+04  0.13149866753E+04  0.96429461957E+02 0.  0.
         11    1    3    3    0    0 -0.43434187614E+01 -0.23277668059E+02 -0.41882572368E+03  0.41949457914E+03  0.00000000000E+00 0. -1.
        -11    1    3    3    0    0  0.93101797620E+02 -0.14526121141E+03 -0.87871345156E+03  0.89549209612E+03  0.00000000000E+00 0.  1.
         22    1    1    2    0    0 -0.88758378858E+02  0.16853887947E+03  0.22724171185E+03  0.29651677746E+03  0.00000000000E+00 0.  1.
<mgrwt>
<rscale>  0 0.12047434E+04</rscale>
<asrwt>0</asrwt>
<pdfrwt beam="1">  1        2 0.20629238E+00 0.12047434E+04</pdfrwt>
<pdfrwt beam="2">  1       -2 0.41631230E-01 0.12047434E+04</pdfrwt>
<totfact> 0.84351788E+01</totfact>
</mgrwt>
</event>
<event>
 6    1  0.1588846E-005  0.3915690E+03  0.7818608E-02  0.1046739E+00
          1   -1    0    0  501    0  0.00000000000E+00  0.00000000000E+00  0.96376396719E+03  0.96376396719E+03  0.00000000000E+00 0. -1.
         -1   -1    0    0    0  501 -0.00000000000E+00 -0.00000000000E+00 -0.39772769010E+02  0.39772769010E+02  0.00000000000E+00 0.  1.
         23    2    1    2    0    0 -0.12862123933E+02 -0.18276088764E+03  0.53099230427E+03  0.56992964805E+03  0.96436508887E+02 0.  0.
         13    1    3    3    0    0 -0.17772577741E+02 -0.12173505039E+03  0.46008186294E+03  0.47624637281E+03  0.00000000000E+00 0. -1.
        -13    1    3    3    0    0  0.49104538079E+01 -0.61025837251E+02  0.70910441334E+02  0.93683275237E+02  0.00000000000E+00 0.  1.
         22    1    1    2    0    0  0.12862123933E+02  0.18276088764E+03  0.39299889390E+03  0.43360708815E+03  0.00000000000E+00 0.  1.
<mgrwt>
<rscale>  0 0.39156896E+03</rscale>
<asrwt>0</asrwt>
<pdfrwt beam="1">  1        1 0.14827136E+00 0.39156896E+03</pdfrwt>
<pdfrwt beam="2">  1       -1 0.61188882E-02 0.39156896E+03</pdfrwt>
<totfact> 0.22135542E+03</totfact>
</mgrwt>
</event>
<event>
 6    1  0.1636943E-005  0.3787823E+04  0.7818608E-02  0.8048773E-01
         -1   -1    0    0    0  501 -0.00000000000E+00  0.00000000000E+00  0.17888398745E+04  0.17888398745E+04  0.00000000000E+00 0.  1.
          1   -1    0    0  501    0  0.00000000000E+00 -0.00000000000E+00 -0.20051548238E+04  0.20051548238E+04  0.00000000000E+00 0. -1.
         23    2    1    2    0    0  0.18015689641E+04 -0.50533869419E+03 -0.39394986623E+03  0.19144809069E+04  0.94987985420E+02 0.  0.
         13    1    3    3    0    0  0.88765233489E+03 -0.24738153173E+03 -0.14551825766E+03  0.93289862964E+03  0.00000000000E+00 0.  1.
        -13    1    3    3    0    0  0.91391662922E+03 -0.25795716246E+03 -0.24843160857E+03  0.98158227723E+03  0.00000000000E+00 0. -1.
         22    1    1    2    0    0 -0.18015689641E+04  0.50533869419E+03  0.17763491691E+03  0.18795137914E+04  0.00000000000E+00 0. -1.
<mgrwt>
<rscale>  0 0.37878231E+04</rscale>
<asrwt>0</asrwt>
<pdfrwt beam="1">  1        1 0.30848536E+00 0.37878231E+04</pdfrwt>
<pdfrwt beam="2">  1       -1 0.27520613E+00 0.37878231E+04</pdfrwt>
<totfact> 0.11255986E-01</totfact>
</mgrwt>
</event>
<event>
 6    1  0.1588846E-005  0.6171569E+04  0.7818608E-02  0.7669486E-01
          1   -1    0    0  501    0  0.00000000000E+00  0.00000000000E+00  0.33498456896E+04  0.33498456896E+04  0.00000000000E+00 0. -1.
         -1   -1    0    0    0  501 -0.00000000000E+00 -0.00000000000E+00 -0.28425388644E+04  0.28425388644E+04  0.00000000000E+00 0.  1.
         23    2    1    2    0    0  0.60666151063E+03  0.70321225825E+03  0.32056785062E+04  0.33386579733E+04  0.87844800621E+02 0.  0.
         11    1    3    3    0    0  0.29064594836E+03  0.29859037809E+03  0.15653098589E+04  0.16198229025E+04  0.00000000000E+00 0.  1.
        -11    1    3    3    0    0  0.31601556227E+03  0.40462188016E+03  0.16403686473E+04  0.17188350708E+04  0.00000000000E+00 0. -1.
         22    1    1    2    0    0 -0.60666151063E+03 -0.70321225825E+03 -0.26983716810E+04  0.28537265807E+04  0.00000000000E+00 0.  1.
<mgrwt>
<rscale>  0 0.61715692E+04</rscale>
<asrwt>0</asrwt>
<pdfrwt beam="1">  1        1 0.51536087E+00 0.61715692E+04</pdfrwt>
<pdfrwt beam="2">  1       -1 0.43731368E+00 0.61715692E+04</pdfrwt>
<totfact> 0.85598965E-04</totfact>
</mgrwt>
</event>
<event>
 6    1  0.1588846E-005  0.2459069E+04  0.7818608E-02  0.8417714E-01
          2   -1    0    0  501    0  0.00000000000E+00  0.00000000000E+00  0.12005178937E+04  0.12005178937E+04  0.00000000000E+00 0. -1.
         -2   -1    0    0    0  501 -0.00000000000E+00 -0.00000000000E+00 -0.12592527541E+04  0.12592527541E+04  0.00000000000E+00 0.  1.
         23    2    1    2    0    0 -0.33475585500E+03  0.69530044524E+03 -0.98478584979E+03  0.12543351968E+04  0.89718583864E+02 0.  0.
         11    1    3    3    0    0 -0.17682008903E+03  0.27291002538E+03 -0.38555988234E+03  0.50438244290E+03  0.00000000000E+00 0. -1.
        -11    1    3    3    0    0 -0.15793576597E+03  0.42239041986E+03 -0.59922596745E+03  0.74995275387E+03  0.00000000000E+00 0.  1.
         22    1    1    2    0    0  0.33475585500E+03 -0.69530044524E+03  0.92605098944E+03  0.12054354511E+04  0.00000000000E+00 0. -1.
<mgrwt>
<rscale>  0 0.24590693E+04</rscale>
<asrwt>0</asrwt>
<pdfrwt beam="1">  1        2 0.18469506E+00 0.24590693E+04</pdfrwt>
<pdfrwt beam="2">  1       -2 0.19373119E+00 0.24590693E+04</pdfrwt>
<totfact> 0.24785915E+00</totfact>
</mgrwt>
</event>
<event>
 6    1  0.1588846E-005  0.3121397E+04  0.7818608E-02  0.8209890E-01
          2   -1    0    0  501    0  0.00000000000E+00  0.00000000000E+00  0.20368388112E+04  0.20368388112E+04  0.00000000000E+00 0.  1.
         -2   -1    0    0    0  501 -0.00000000000E+00 -0.00000000000E+00 -0.11958626033E+04  0.11958626033E+04  0.00000000000E+00 0. -1.
         23    2    1    2    0    0  0.53274171294E+03  0.13637162270E+04 -0.13485240964E+03  0.14732193397E+04  0.93028866766E+02 0.  0.
         13    1    3    3    0    0  0.34268552576E+03  0.98556043842E+03 -0.11085636129E+03  0.10493101925E+04  0.00000000000E+00 0. -1.
        -13    1    3    3    0    0  0.19005618718E+03  0.37815578861E+03 -0.23996048350E+02  0.42390914720E+03  0.00000000000E+00 0.  1.
         22    1    1    2    0    0 -0.53274171294E+03 -0.13637162270E+04  0.97582861752E+03  0.17594820747E+04  0.00000000000E+00 0.  1.
<mgrwt>
<rscale>  0 0.31213967E+04</rscale>
<asrwt>0</asrwt>
<pdfrwt beam="1">  1        2 0.31335982E+00 0.31213967E+04</pdfrwt>
<pdfrwt beam="2">  1       -2 0.18397886E+00 0.31213967E+04</pdfrwt>
<totfact> 0.91967329E-01</totfact>
</mgrwt>
</event>
<event>
 6    1  0.1588846E-005  0.1852023E+04  0.7818608E-02  0.8679113E-01
         -2   -1    0    0    0  501 -0.00000000000E+00  0.00000000000E+00  0.60697453247E+03  0.60697453247E+03  0.00000000000E+00 0.  1.
          2   -1    0    0  501    0  0.00000000000E+00 -0.00000000000E+00 -0.14127396745E+04  0.14127396745E+04  0.00000000000E+00 0. -1.
         23    2    1    2    0    0 -0.26463126995E+03  0.62718153743E+03  0.27714313303E+03  0.74062205935E+03  0.91248718805E+02 0.  0.
         13    1    3    3    0    0 -0.37634581569E+02  0.19021480606E+03  0.65645852471E+02  0.20471299939E+03  0.00000000000E+00 0. -1.
        -13    1    3    3    0    0 -0.22699668838E+03  0.43696673137E+03  0.21149728055E+03  0.53590905996E+03  0.00000000000E+00 0.  1.
         22    1    1    2    0    0  0.26463126995E+03 -0.62718153743E+03 -0.10829082750E+04  0.12790921476E+04  0.00000000000E+00 0. -1.
<mgrwt>
<rscale>  0 0.18520227E+04</rscale>
<asrwt>0</asrwt>
<pdfrwt beam="1">  1        2 0.21734456E+00 0.18520227E+04</pdfrwt>
<pdfrwt beam="2">  1       -2 0.93380699E-01 0.18520227E+04</pdfrwt>
<totfact> 0.12980351E+01</totfact>
</mgrwt>
</event>
<event>
 6    1  0.1588846E-005  0.8349160E+03  0.7818608E-02  0.9510809E-01
         -2   -1    0    0    0  501 -0.00000000000E+00  0.00000000000E+00  0.21738443471E+03  0.21738443471E+03  0.00000000000E+00 0.  1.
          2   -1    0    0  501    0  0.00000000000E+00 -0.00000000000E+00 -0.80167281891E+03  0.80167281891E+03  0.00000000000E+00 0. -1.
         23    2    1    2    0    0  0.13199054109E+02  0.35917094796E+03 -0.48218443333E+02  0.37365120594E+03  0.90067866269E+02 0.  0.
         11    1    3    3    0    0  0.18121580133E+02  0.20013287911E+03  0.17043542954E+02  0.20167311006E+03  0.00000000000E+00 0. -1.
        -11    1    3    3    0    0 -0.49225260237E+01  0.15903806885E+03 -0.65261986287E+02  0.17197809588E+03  0.00000000000E+00 0.  1.
         22    1    1    2    0    0 -0.13199054109E+02 -0.35917094796E+03 -0.53606994087E+03  0.64540604769E+03  0.00000000000E+00 0. -1.
<mgrwt>
<rscale>  0 0.83491603E+03</rscale>
<asrwt>0</asrwt>
<pdfrwt beam="1">  1        2 0.12333428E+00 0.83491603E+03</pdfrwt>
<pdfrwt beam="2">  1       -2 0.33443758E-01 0.83491603E+03</pdfrwt>
<totfact> 0.28810871E+02</totfact>
</mgrwt>
</event>
<event>
 6    1  0.1588846E-005  0.2309415E+04  0.7818608E-02  0.8474218E-01
         -2   -1    0    0    0  501 -0.00000000000E+00  0.00000000000E+00  0.11399502495E+04  0.11399502495E+04  0.00000000000E+00 0.  1.
          2   -1    0    0  501    0  0.00000000000E+00 -0.00000000000E+00 -0.11696554642E+04  0.11696554642E+04  0.00000000000E+00 0. -1.
         23    2    1    2    0    0  0.77140563593E+03 -0.16870632037E+03  0.82506431334E+03  0.11459221554E+04  0.94223072451E+02 0.  0.
         11    1    3    3    0    0  0.38511072329E+03 -0.12896643778E+03  0.44703803452E+03  0.60397484680E+03  0.00000000000E+00 0. -1.
        -11    1    3    3    0    0  0.38629491264E+03 -0.39739882588E+02  0.37802627882E+03  0.54194730858E+03  0.00000000000E+00 0.  1.
         22    1    1    2    0    0 -0.77140563593E+03  0.16870632037E+03 -0.85476952809E+03  0.11636835583E+04  0.00000000000E+00 0. -1.
<mgrwt>
<rscale>  0 0.23094147E+04</rscale>
<asrwt>0</asrwt>
<pdfrwt beam="1">  1        2 0.17994699E+00 0.23094147E+04</pdfrwt>
<pdfrwt beam="2">  1       -2 0.17537696E+00 0.23094147E+04</pdfrwt>
<totfact> 0.34945680E+00</totfact>
</mgrwt>
</event>
<event>
 6    1  0.1588846E-005  0.2583622E+04  0.7818608E-02  0.8373786E-01
         -2   -1    0    0    0  501 -0.00000000000E+00  0.00000000000E+00  0.70980403233E+03  0.70980403233E+03  0.00000000000E+00 0.  1.
          2   -1    0    0  501    0  0.00000000000E+00 -0.00000000000E+00 -0.23510374577E+04  0.23510374577E+04  0.00000000000E+00 0. -1.
         23    2    1    2    0    0  0.43723175101E+03  0.10608756868E+04 -0.15204654531E+04  0.19070591318E+04  0.91817815643E+02 0.  0.
         13    1    3    3    0    0  0.32643519982E+03  0.68129465242E+03 -0.97987565009E+03  0.12372868029E+04  0.00000000000E+00 0.  1.
        -13    1    3    3    0    0  0.11079655119E+03  0.37958103435E+03 -0.54058980304E+03  0.66977232889E+03  0.00000000000E+00 0. -1.
         22    1    1    2    0    0 -0.43723175101E+03 -0.10608756868E+04 -0.12076797218E+03  0.11537823582E+04  0.00000000000E+00 0.  1.
<mgrwt>
<rscale>  0 0.25836222E+04</rscale>
<asrwt>0</asrwt>
<pdfrwt beam="1">  1        2 0.36169807E+00 0.25836222E+04</pdfrwt>
<pdfrwt beam="2">  1       -2 0.10920062E+00 0.25836222E+04</pdfrwt>
<totfact> 0.25112243E+00</totfact>
</mgrwt>
</event>
<event>
 6    1  0.1588846E-005  0.4012532E+04  0.7818608E-02  0.8002023E-01
         -1   -1    0    0    0  501 -0.00000000000E+00  0.00000000000E+00  0.95600406327E+03  0.95600406327E+03  0.00000000000E+00 0.  1.
          1   -1    0    0  501    0  0.00000000000E+00 -0.00000000000E+00 -0.42103401339E+04  0.42103401339E+04  0.00000000000E+00 0. -1.
         23    2    1    2    0    0  0.43565328513E+03 -0.19405744262E+03 -0.41357812041E+04  0.41641478097E+04  0.89379736595E+02 0.  0.
         11    1    3    3    0    0  0.23651997461E+03 -0.10614514392E+03 -0.26240874661E+04  0.26368624386E+04  0.00000000000E+00 0.  1.
        -11    1    3    3    0    0  0.19913331052E+03 -0.87912298698E+02 -0.15116937379E+04  0.15272853712E+04  0.00000000000E+00 0. -1.
         22    1    1    2    0    0 -0.43565328513E+03  0.19405744262E+03  0.88144513341E+03  0.10021963875E+04  0.00000000000E+00 0.  1.
<mgrwt>
<rscale>  0 0.40125315E+04</rscale>
<asrwt>0</asrwt>
<pdfrwt beam="1">  1        1 0.64774463E+00 0.40125315E+04</pdfrwt>
<pdfrwt beam="2">  1       -1 0.14707755E+00 0.40125315E+04</pdfrwt>
<totfact> 0.17714728E-02</totfact>
</mgrwt>
</event>
<event>
 6    1  0.1588846E-005  0.2000657E+04  0.7818608E-02  0.8606313E-01
         -1   -1    0    0    0  501 -0.00000000000E+00  0.00000000000E+00  0.20797790541E+04  0.20797790541E+04  0.00000000000E+00 0.  1.
          1   -1    0    0  501    0  0.00000000000E+00 -0.00000000000E+00 -0.48113643521E+03  0.48113643521E+03  0.00000000000E+00 0. -1.
         23    2    1    2    0    0 -0.24570982206E+03 -0.51914272441E+03 -0.24401462085E+03  0.63082010615E+03  0.92240913733E+02 0.  0.
         11    1    3    3    0    0 -0.60109863448E+02 -0.94759647021E+02 -0.12263356668E+02  0.11288479217E+03  0.00000000000E+00 0.  1.
        -11    1    3    3    0    0 -0.18559995861E+03 -0.42438307739E+03 -0.23175126418E+03  0.51793531397E+03  0.00000000000E+00 0. -1.
         22    1    1    2    0    0  0.24570982206E+03  0.51914272441E+03  0.18426572398E+04  0.19300953832E+04  0.00000000000E+00 0.  1.
<mgrwt>
<rscale>  0 0.20006574E+04</rscale>
<asrwt>0</asrwt>
<pdfrwt beam="1">  1        1 0.74020991E-01 0.20006574E+04</pdfrwt>
<pdfrwt beam="2">  1       -1 0.31996600E+00 0.20006574E+04</pdfrwt>
<totfact> 0.10626987E+00</totfact>
</mgrwt>
</event>
<event>
 6    1  0.1588846E-005  0.3100889E+04  0.7818608E-02  0.8215494E-01
          2   -1    0    0  501    0  0.00000000000E+00  0.00000000000E+00  0.10130015587E+04  0.10130015587E+04  0.00000000000E+00 0. -1.
         -2   -1    0    0    0  501 -0.00000000000E+00 -0.00000000000E+00 -0.23730246731E+04  0.23730246731E+04  0.00000000000E+00 0.  1.
         23    2    1    2    0    0  0.14813788223E+04  0.38005727391E+03 -0.95010087526E+03  0.18026870424E+04  0.89789493074E+02 0.  0.
         13    1    3    3    0    0  0.53954216243E+03  0.14020261695E+03 -0.39757639415E+03  0.68471125887E+03  0.00000000000E+00 0.  1.
        -13    1    3    3    0    0  0.94183665983E+03  0.23985465696E+03 -0.55252448111E+03  0.11179757835E+04  0.00000000000E+00 0. -1.
         22    1    1    2    0    0 -0.14813788223E+04 -0.38005727391E+03 -0.40992223914E+03  0.15833391894E+04  0.00000000000E+00 0. -1.
<mgrwt>
<rscale>  0 0.31008887E+04</rscale>
<asrwt>0</asrwt>
<pdfrwt beam="1">  1        2 0.15584639E+00 0.31008887E+04</pdfrwt>
<pdfrwt beam="2">  1       -2 0.36508072E+00 0.31008887E+04</pdfrwt>
<totfact> 0.26171199E-01</totfact>
</mgrwt>
</event>
<event>
 6    1  0.1588846E-005  0.3427796E+04  0.7818608E-02  0.8131118E-01
         -2   -1    0    0    0  501 -0.00000000000E+00  0.00000000000E+00  0.30406433722E+04  0.30406433722E+04  0.00000000000E+00 0.  1.
          2   -1    0    0  501    0  0.00000000000E+00 -0.00000000000E+00 -0.96606077098E+03  0.96606077098E+03  0.00000000000E+00 0. -1.
         23    2    1    2    0    0  0.65574674883E+02 -0.16546467409E+04  0.15483661585E+04  0.22691600086E+04  0.97434638760E+02 0.  0.
         11    1    3    3    0    0  0.57537076933E+02 -0.48642758417E+03  0.48870522576E+03  0.69192131601E+03  0.00000000000E+00 0. -1.
        -11    1    3    3    0    0  0.80375979503E+01 -0.11682191567E+04  0.10596609328E+04  0.15772386926E+04  0.00000000000E+00 0.  1.
         22    1    1    2    0    0 -0.65574674883E+02  0.16546467409E+04  0.52621644274E+03  0.17375441346E+04  0.00000000000E+00 0. -1.
<mgrwt>
<rscale>  0 0.34277960E+04</rscale>
<asrwt>0</asrwt>
<pdfrwt beam="1">  1        2 0.14862474E+00 0.34277960E+04</pdfrwt>
<pdfrwt beam="2">  1       -2 0.46779128E+00 0.34277960E+04</pdfrwt>
<totfact> 0.57981871E-02</totfact>
</mgrwt>
</event>
<event>
 6    1  0.1588846E-005  0.3544759E+04  0.7818608E-02  0.8103264E-01
          2   -1    0    0  501    0  0.00000000000E+00  0.00000000000E+00  0.30539153874E+04  0.30539153874E+04  0.00000000000E+00 0. -1.
         -2   -1    0    0    0  501 -0.00000000000E+00 -0.00000000000E+00 -0.10286234982E+04  0.10286234982E+04  0.00000000000E+00 0.  1.
         23    2    1    2    0    0 -0.54868632370E+03  0.16819318022E+04  0.11110781085E+04  0.20911227800E+04  0.91370941181E+02 0.  0.
         11    1    3    3    0    0 -0.18400967805E+03  0.45108097456E+03  0.28116238869E+03  0.56248190730E+03  0.00000000000E+00 0. -1.
        -11    1    3    3    0    0 -0.36467664565E+03  0.12308508276E+04  0.82991571976E+03  0.15286408727E+04  0.00000000000E+00 0.  1.
         22    1    1    2    0    0  0.54868632370E+03 -0.16819318022E+04  0.91421378073E+03  0.19914161056E+04  0.00000000000E+00 0. -1.
<mgrwt>
<rscale>  0 0.35447590E+04</rscale>
<asrwt>0</asrwt>
<pdfrwt beam="1">  1        2 0.46983313E+00 0.35447590E+04</pdfrwt>
<pdfrwt beam="2">  1       -2 0.15824977E+00 0.35447590E+04</pdfrwt>
<totfact> 0.34185183E-01</totfact>
</mgrwt>
</event>
<event>
 6    1  0.1588846E-005  0.1195061E+04  0.7818608E-02  0.9117191E-01
          2   -1    0    0  501    0  0.00000000000E+00  0.00000000000E+00  0.12065872968E+04  0.12065872968E+04  0.00000000000E+00 0. -1.
         -2   -1    0    0    0  501 -0.00000000000E+00 -0.00000000000E+00 -0.29591112158E+03  0.29591112158E+03  0.00000000000E+00 0.  1.
         23    2    1    2    0    0 -0.20424336487E+03  0.87831978839E+02  0.11506260020E+04  0.11753811183E+04  0.90281604114E+02 0.  0.
         11    1    3    3    0    0 -0.43647430692E+02  0.25737486447E+02  0.49266464547E+03  0.49526353521E+03  0.00000000000E+00 0. -1.
        -11    1    3    3    0    0 -0.16059593418E+03  0.62094492392E+02  0.65796135655E+03  0.68011758305E+03  0.00000000000E+00 0.  1.
         22    1    1    2    0    0  0.20424336487E+03 -0.87831978839E+02 -0.23994982685E+03  0.32711730007E+03  0.00000000000E+00 0.  1.
<mgrwt>
<rscale>  0 0.11950608E+04</rscale>
<asrwt>0</asrwt>
<pdfrwt beam="1">  1        2 0.18562881E+00 0.11950608E+04</pdfrwt>
<pdfrwt beam="2">  1       -2 0.45524789E-01 0.11950608E+04</pdfrwt>
<totfact> 0.84732852E+01</totfact>
</mgrwt>
</event>
<event>
 6    1  0.1588846E-005  0.1391543E+04  0.7818608E-02  0.8959963E-01
         -2   -1    0    0    0  501 -0.00000000000E+00  0.00000000000E+00  0.35803676287E+03  0.35803676287E+03  0.00000000000E+00 0.  1.
          2   -1    0    0  501    0  0.00000000000E+00 -0.00000000000E+00 -0.13520893768E+04  0.13520893768E+04  0.00000000000E+00 0. -1.
         23    2    1    2    0    0 -0.37783914807E+03 -0.17280985017E+03  0.18202358832E+03  0.46281667542E+03  0.91875035851E+02 0.  0.
         11    1    3    3    0    0 -0.11689833991E+03 -0.10190187880E+03  0.63381251434E+02  0.16753028923E+03  0.00000000000E+00 0.  1.
        -11    1    3    3    0    0 -0.26094080816E+03 -0.70907971371E+02  0.11864233689E+03  0.29528638619E+03  0.00000000000E+00 0. -1.
         22    1    1    2    0    0  0.37783914807E+03  0.17280985017E+03 -0.11760762023E+04  0.12473094643E+04  0.00000000000E+00 0. -1.
<mgrwt>
<rscale>  0 0.13915426E+04</rscale>
<asrwt>0</asrwt>
<pdfrwt beam="1">  1        2 0.20801375E+00 0.13915426E+04</pdfrwt>
<pdfrwt beam="2">  1       -2 0.55082579E-01 0.13915426E+04</pdfrwt>
<totfact> 0.46533159E+01</totfact>
</mgrwt>
</event>
<event>
 6    1  0.1588846E-005  0.2997344E+04  0.7818608E-02  0.8244490E-01
         -2   -1    0    0    0  501 -0.00000000000E+00  0.00000000000E+00  0.70579767455E+03  0.70579767455E+03  0.00000000000E+00 0.  1.
          2   -1    0    0  501    0  0.00000000000E+00 -0.00000000000E+00 -0.31822411512E+04  0.31822411512E+04  0.00000000000E+00 0. -1.
         23    2    1    2    0    0 -0.10235953693E+04 -0.95664495164E+03 -0.19244688441E+04  0.23821858985E+04  0.91171704345E+02 0.  0.
         11    1    3    3    0    0 -0.79099325823E+03 -0.75920192551E+03 -0.15624704582E+04  0.19087618581E+04  0.00000000000E+00 0. -1.
        -11    1    3    3    0    0 -0.23260211105E+03 -0.19744302613E+03 -0.36199838589E+03  0.47342404039E+03  0.00000000000E+00 0.  1.
         22    1    1    2    0    0  0.10235953693E+04  0.95664495164E+03 -0.55197463257E+03  0.15058529272E+04  0.00000000000E+00 0.  1.
<mgrwt>
<rscale>  0 0.29973444E+04</rscale>
<asrwt>0</asrwt>
<pdfrwt beam="1">  1        2 0.48957556E+00 0.29973444E+04</pdfrwt>
<pdfrwt beam="2">  1       -2 0.10858426E+00 0.29973444E+04</pdfrwt>
<totfact> 0.77250947E-01</totfact>
</mgrwt>
</event>
<event>
 6    1  0.1588846E-005  0.1472629E+04  0.7818608E-02  0.8902861E-01
          4   -1    0    0  501    0  0.00000000000E+00  0.00000000000E+00  0.19804685387E+04  0.19804685387E+04  0.00000000000E+00 0. -1.
         -4   -1    0    0    0  501 -0.00000000000E+00 -0.00000000000E+00 -0.27375299134E+03  0.27375299134E+03  0.00000000000E+00 0.  1.
         23    2    1    2    0    0 -0.26661943513E+03 -0.47273963961E+03  0.10119979947E+03  0.55945030453E+03  0.90413238980E+02 0.  0.
         11    1    3    3    0    0 -0.23097568277E+03 -0.37903232756E+03  0.11428973108E+03  0.45834202731E+03  0.00000000000E+00 0.  1.
        -11    1    3    3    0    0 -0.35643752364E+02 -0.93707312045E+02 -0.13089931614E+02  0.10110827722E+03  0.00000000000E+00 0. -1.
         22    1    1    2    0    0  0.26661943513E+03  0.47273963961E+03  0.16055157479E+04  0.16947712255E+04  0.00000000000E+00 0. -1.
<mgrwt>
<rscale>  0 0.14726292E+04</rscale>
<asrwt>0</asrwt>
<pdfrwt beam="1">  1        4 0.30468746E+00 0.14726292E+04</pdfrwt>
<pdfrwt beam="2">  1       -4 0.42115846E-01 0.14726292E+04</pdfrwt>
<totfact> 0.30939768E-01</totfact>
</mgrwt>
</event>
<event>
 6    1  0.1588846E-005  0.3757132E+04  0.7818608E-02  0.8055417E-01
         -2   -1    0    0    0  501 -0.00000000000E+00  0.00000000000E+00  0.31973259685E+04  0.31973259685E+04  0.00000000000E+00 0.  1.
          2   -1    0    0  501    0  0.00000000000E+00 -0.00000000000E+00 -0.11037378086E+04  0.11037378086E+04  0.00000000000E+00 0. -1.
         23    2    1    2    0    0 -0.11149306622E+04  0.10808397717E+04 -0.16052753582E+03  0.15638530502E+04  0.92640591578E+02 0.  0.
         11    1    3    3    0    0 -0.57573599857E+03  0.49364917310E+03 -0.79089733286E+02  0.76250680788E+03  0.00000000000E+00 0.  1.
        -11    1    3    3    0    0 -0.53919466361E+03  0.58719059859E+03 -0.81437802532E+02  0.80134624228E+03  0.00000000000E+00 0. -1.
         22    1    1    2    0    0  0.11149306622E+04 -0.10808397717E+04  0.22541156958E+04  0.27372107269E+04  0.00000000000E+00 0.  1.
<mgrwt>
<rscale>  0 0.37571316E+04</rscale>
<asrwt>0</asrwt>
<pdfrwt beam="1">  1        2 0.16980582E+00 0.37571316E+04</pdfrwt>
<pdfrwt beam="2">  1       -2 0.49189630E+00 0.37571316E+04</pdfrwt>
<totfact> 0.32323249E-02</totfact>
</mgrwt>
</event>
<event>
 6    1  0.1588846E-005  0.9978987E+03  0.7818608E-02  0.9310852E-01
          1   -1    0    0  501    0  0.00000000000E+00  0.00000000000E+00  0.13715966207E+04  0.13715966207E+04  0.00000000000E+00 0. -1.
         -1   -1    0    0    0  501 -0.00000000000E+00 -0.00000000000E+00 -0.18150414758E+03  0.18150414758E+03  0.00000000000E+00 0.  1.
         23    2    1    2    0    0  0.44794207637E+03  0.20549038057E+03  0.53377552511E+03  0.73235090593E+03  0.92429096766E+02 0.  0.
         11    1    3    3    0    0  0.43370244946E+03  0.18723361444E+03  0.47837657972E+03  0.67230825747E+03  0.00000000000E+00 0.  1.
        -11    1    3    3    0    0  0.14239626912E+02  0.18256766129E+02  0.55398945388E+02  0.60042648461E+02  0.00000000000E+00 0. -1.
         22    1    1    2    0    0 -0.44794207637E+03 -0.20549038057E+03  0.65631694802E+03  0.82074986235E+03  0.00000000000E+00 0.  1.
<mgrwt>
<rscale>  0 0.99789874E+03</rscale>
<asrwt>0</asrwt>
<pdfrwt beam="1">  1        1 0.21101486E+00 0.99789874E+03</pdfrwt>
<pdfrwt beam="2">  1       -1 0.27923716E-01 0.99789874E+03</pdfrwt>
<totfact> 0.93265847E+01</totfact>
</mgrwt>
</event>
<event>
 6    1  0.1588846E-005  0.3225024E+04  0.7818608E-02  0.8182239E-01
          2   -1    0    0  501    0  0.00000000000E+00  0.00000000000E+00  0.37093309511E+04  0.37093309511E+04  0.00000000000E+00 0. -1.
         -2   -1    0    0    0  501 -0.00000000000E+00 -0.00000000000E+00 -0.70098773541E+03  0.70098773541E+03  0.00000000000E+00 0.  1.
         23    2    1    2    0    0 -0.29876178571E+02  0.65637821942E+03  0.35172376655E+04  0.35792359506E+04  0.90797806721E+02 0.  0.
         11    1    3    3    0    0  0.23319466760E+02  0.24417947972E+03  0.11618378430E+04  0.11874487734E+04  0.00000000000E+00 0. -1.
        -11    1    3    3    0    0 -0.53195645331E+02  0.41219873971E+03  0.23553998224E+04  0.23917871772E+04  0.00000000000E+00 0.  1.
         22    1    1    2    0    0  0.29876178571E+02 -0.65637821942E+03 -0.50889444976E+03  0.83108273594E+03  0.00000000000E+00 0.  1.
<mgrwt>
<rscale>  0 0.32250243E+04</rscale>
<asrwt>0</asrwt>
<pdfrwt beam="1">  1        2 0.57066629E+00 0.32250243E+04</pdfrwt>
<pdfrwt beam="2">  1       -2 0.10784427E+00 0.32250243E+04</pdfrwt>
<totfact> 0.33222655E-01</totfact>
</mgrwt>
</event>
<event>
 6    1  0.1588846E-005  0.2560487E+04  0.7818608E-02  0.8381748E-01
          2   -1    0    0  501    0  0.00000000000E+00  0.00000000000E+00  0.27726482451E+04  0.27726482451E+04  0.00000000000E+00 0. -1.
         -2   -1    0    0    0  501 -0.00000000000E+00 -0.00000000000E+00 -0.59113983898E+03  0.59113983898E+03  0.00000000000E+00 0.  1.
         23    2    1    2    0    0  0.95341800196E+03 -0.66147173700E+03  0.38675124257E+03  0.12265693256E+04  0.91351199483E+02 0.  0.
         13    1    3    3    0    0  0.29945546185E+03 -0.16222772537E+03  0.13237413988E+03  0.36539611577E+03  0.00000000000E+00 0.  1.
        -13    1    3    3    0    0  0.65396254011E+03 -0.49924401163E+03  0.25437710269E+03  0.86117320986E+03  0.00000000000E+00 0. -1.
         22    1    1    2    0    0 -0.95341800196E+03  0.66147173700E+03  0.17947571635E+04  0.21372187584E+04  0.00000000000E+00 0. -1.
<mgrwt>
<rscale>  0 0.25604865E+04</rscale>
<asrwt>0</asrwt>
<pdfrwt beam="1">  1        2 0.42656126E+00 0.25604865E+04</pdfrwt>
<pdfrwt beam="2">  1       -2 0.90944592E-01 0.25604865E+04</pdfrwt>
<totfact> 0.21987695E+00</totfact>
</mgrwt>
</event>
<event>
 6    1  0.1588846E-005  0.1197007E+04  0.7818608E-02  0.9115480E-01
         -1   -1    0    0    0  501 -0.00000000000E+00  0.00000000000E+00  0.15518096363E+04  0.15518096363E+04  0.00000000000E+00 0.  1.
          1   -1    0    0  501    0  0.00000000000E+00 -0.00000000000E+00 -0.23083157318E+03  0.23083157318E+03  0.00000000000E+00 0. -1.
         23    2    1    2    0    0  0.13463795490E+03 -0.54424332356E+03  0.96160177045E+03  0.11166986490E+04  0.89497114754E+02 0.  0.
         13    1    3    3    0    0  0.13632470586E+03 -0.38882093993E+03  0.71389812772E+03  0.82426736288E+03  0.00000000000E+00 0. -1.
        -13    1    3    3    0    0 -0.16867509602E+01 -0.15542238363E+03  0.24770364274E+03  0.29243128609E+03  0.00000000000E+00 0.  1.
         22    1    1    2    0    0 -0.13463795490E+03  0.54424332356E+03  0.35937629264E+03  0.66594256047E+03  0.00000000000E+00 0. -1.
<mgrwt>
<rscale>  0 0.11970074E+04</rscale>
<asrwt>0</asrwt>
<pdfrwt beam="1">  1        1 0.35512551E-01 0.11970074E+04</pdfrwt>
<pdfrwt beam="2">  1       -1 0.23873994E+00 0.11970074E+04</pdfrwt>
<totfact> 0.10112916E+01</totfact>
</mgrwt>
</event>
<event>
 6    1  0.1588846E-005  0.2416317E+04  0.7818608E-02  0.8433420E-01
         -2   -1    0    0    0  501 -0.00000000000E+00  0.00000000000E+00  0.17951194538E+04  0.17951194538E+04  0.00000000000E+00 0.  1.
          2   -1    0    0  501    0  0.00000000000E+00 -0.00000000000E+00 -0.81311957257E+03  0.81311957257E+03  0.00000000000E+00 0. -1.
         23    2    1    2    0    0  0.53349236716E+03  0.66332832630E+03  0.14145468511E+04  0.16534011054E+04  0.90409330545E+02 0.  0.
         11    1    3    3    0    0  0.38161093023E+03  0.44236678889E+03  0.10385162979E+04  0.11915667749E+04  0.00000000000E+00 0. -1.
        -11    1    3    3    0    0  0.15188143693E+03  0.22096153740E+03  0.37603055317E+03  0.46183433049E+03  0.00000000000E+00 0.  1.
         22    1    1    2    0    0 -0.53349236716E+03 -0.66332832630E+03 -0.43254696983E+03  0.95483792101E+03  0.00000000000E+00 0. -1.
<mgrwt>
<rscale>  0 0.24163168E+04</rscale>
<asrwt>0</asrwt>
<pdfrwt beam="1">  1        2 0.12509532E+00 0.24163168E+04</pdfrwt>
<pdfrwt beam="2">  1       -2 0.27617222E+00 0.24163168E+04</pdfrwt>
<totfact> 0.13451069E+00</totfact>
</mgrwt>
</event>
<event>
 6    1  0.1588846E-005  0.1644913E+04  0.7818608E-02  0.8793422E-01
          2   -1    0    0  501    0  0.00000000000E+00  0.00000000000E+00  0.23826384849E+04  0.23826384849E+04  0.00000000000E+00 0. -1.
         -2   -1    0    0    0  501 -0.00000000000E+00 -0.00000000000E+00 -0.28390136037E+03  0.28390136037E+03  0.00000000000E+00 0.  1.
         23    2    1    2    0    0  0.56872889128E+03 -0.57173777251E+03  0.81471814390E+03  0.11502808387E+04  0.95098483814E+02 0.  0.
         13    1    3    3    0    0  0.45693296749E+03 -0.43555342467E+03  0.68479657043E+03  0.93136505485E+03  0.00000000000E+00 0.  1.
        -13    1    3    3    0    0  0.11179592379E+03 -0.13618434784E+03  0.12992157347E+03  0.21891578387E+03  0.00000000000E+00 0. -1.
         22    1    1    2    0    0 -0.56872889128E+03  0.57173777251E+03  0.12840189806E+04  0.15162590065E+04  0.00000000000E+00 0. -1.
<mgrwt>
<rscale>  0 0.16449125E+04</rscale>
<asrwt>0</asrwt>
<pdfrwt beam="1">  1        2 0.36655975E+00 0.16449125E+04</pdfrwt>
<pdfrwt beam="2">  1       -2 0.43677134E-01 0.16449125E+04</pdfrwt>
<totfact> 0.19347967E+01</totfact>
</mgrwt>
</event>
<event>
 6    1  0.1588846E-005  0.1910083E+04  0.7818608E-02  0.8649854E-01
          2   -1    0    0  501    0  0.00000000000E+00  0.00000000000E+00  0.18682937809E+04  0.18682937809E+04  0.00000000000E+00 0. -1.
         -2   -1    0    0    0  501 -0.00000000000E+00 -0.00000000000E+00 -0.48820171164E+03  0.48820171164E+03  0.00000000000E+00 0.  1.
         23    2    1    2    0    0 -0.40804539777E+03  0.70003788303E+03  0.71904614934E+02  0.81769449828E+03  0.83065844652E+02 0.  0.
         13    1    3    3    0    0 -0.14017973778E+03  0.27167920182E+03  0.64405833755E+02  0.31242288490E+03  0.00000000000E+00 0. -1.
        -13    1    3    3    0    0 -0.26786565999E+03  0.42835868121E+03  0.74987811791E+01  0.50527161338E+03  0.00000000000E+00 0.  1.
         22    1    1    2    0    0  0.40804539777E+03 -0.70003788303E+03  0.13081874543E+04  0.15388009943E+04  0.00000000000E+00 0. -1.
<mgrwt>
<rscale>  0 0.19100830E+04</rscale>
<asrwt>0</asrwt>
<pdfrwt beam="1">  1        2 0.28742981E+00 0.19100830E+04</pdfrwt>
<pdfrwt beam="2">  1       -2 0.75107957E-01 0.19100830E+04</pdfrwt>
<totfact> 0.11777476E+01</totfact>
</mgrwt>
</event>
<event>
 6    1  0.1588846E-005  0.4869669E+04  0.7818608E-02  0.7848933E-01
         -1   -1    0    0    0  501 -0.00000000000E+00  0.00000000000E+00  0.15668176514E+04  0.15668176514E+04  0.00000000000E+00 0.  1.
          1   -1    0    0  501    0  0.00000000000E+00 -0.00000000000E+00 -0.37837324739E+04  0.37837324739E+04  0.00000000000E+00 0. -1.
         23    2    1    2    0    0  0.77074797689E+03 -0.17957368287E+04 -0.27031827802E+04  0.33368024429E+04  0.91269918847E+02 0.  0.
         13    1    3    3    0    0  0.23733012459E+03 -0.52119303225E+03 -0.72564935754E+03  0.92441049053E+03  0.00000000000E+00 0.  1.
        -13    1    3    3    0    0  0.53341785230E+03 -0.12745437964E+04 -0.19775334227E+04  0.24123919524E+04  0.00000000000E+00 0. -1.
         22    1    1    2    0    0 -0.77074797689E+03  0.17957368287E+04  0.48626795772E+03  0.20137476824E+04  0.00000000000E+00 0.  1.
<mgrwt>
<rscale>  0 0.48696689E+04</rscale>
<asrwt>0</asrwt>
<pdfrwt beam="1">  1        1 0.58211269E+00 0.48696689E+04</pdfrwt>
<pdfrwt beam="2">  1       -1 0.24104887E+00 0.48696689E+04</pdfrwt>
<totfact> 0.85405908E-03</totfact>
</mgrwt>
</event>
<event>
 6    1  0.1588846E-005  0.5115804E+04  0.7818608E-02  0.7810887E-01
          1   -1    0    0  501    0  0.00000000000E+00  0.00000000000E+00  0.34795826833E+04  0.34795826833E+04  0.00000000000E+00 0. -1.
         -1   -1    0    0    0  501 -0.00000000000E+00 -0.00000000000E+00 -0.18803587719E+04  0.18803587719E+04  0.00000000000E+00 0.  1.
         23    2    1    2    0    0  0.42679647119E+03 -0.35845073750E+03  0.34145661168E+04  0.34609655517E+04  0.91534827320E+02 0.  0.
         13    1    3    3    0    0  0.22203917636E+03 -0.21752503824E+03  0.21313281571E+04  0.21538751708E+04  0.00000000000E+00 0.  1.
        -13    1    3    3    0    0  0.20475729482E+03 -0.14092569925E+03  0.12832379597E+04  0.13070903809E+04  0.00000000000E+00 0. -1.
         22    1    1    2    0    0 -0.42679647119E+03  0.35845073750E+03 -0.18153422055E+04  0.18989759035E+04  0.00000000000E+00 0.  1.
<mgrwt>
<rscale>  0 0.51158045E+04</rscale>
<asrwt>0</asrwt>
<pdfrwt beam="1">  1        1 0.53532041E+00 0.51158045E+04</pdfrwt>
<pdfrwt beam="2">  1       -1 0.28928597E+00 0.51158045E+04</pdfrwt>
<totfact> 0.71813842E-03</totfact>
</mgrwt>
</event>
<event>
 6    1  0.1588846E-005  0.4271778E+04  0.7818608E-02  0.7951857E-01
          2   -1    0    0  501    0  0.00000000000E+00  0.00000000000E+00  0.16378600606E+04  0.16378600606E+04  0.00000000000E+00 0. -1.
         -2   -1    0    0    0  501 -0.00000000000E+00 -0.00000000000E+00 -0.27853549267E+04  0.27853549267E+04  0.00000000000E+00 0.  1.
         23    2    1    2    0    0  0.93999481922E+02 -0.21095589625E+04 -0.24846668093E+03  0.21281492809E+04  0.90602161369E+02 0.  0.
         11    1    3    3    0    0  0.36523099448E+02 -0.16537044842E+04 -0.19030635160E+03  0.16650192087E+04  0.00000000000E+00 0.  1.
        -11    1    3    3    0    0  0.57476382474E+02 -0.45585447825E+03 -0.58160329325E+02  0.46313007221E+03  0.00000000000E+00 0. -1.
         22    1    1    2    0    0 -0.93999481922E+02  0.21095589625E+04 -0.89902818523E+03  0.22950657064E+04  0.00000000000E+00 0. -1.
<mgrwt>
<rscale>  0 0.42717779E+04</rscale>
<asrwt>0</asrwt>
<pdfrwt beam="1">  1        2 0.25197847E+00 0.42717779E+04</pdfrwt>
<pdfrwt beam="2">  1       -2 0.42851614E+00 0.42717779E+04</pdfrwt>
<totfact> 0.39486765E-02</totfact>
</mgrwt>
</event>
<event>
 6    1  0.1588846E-005  0.1326273E+04  0.7818608E-02  0.9008986E-01
         -2   -1    0    0    0  501 -0.00000000000E+00  0.00000000000E+00  0.94596271168E+03  0.94596271168E+03  0.00000000000E+00 0. -1.
          2   -1    0    0  501    0  0.00000000000E+00 -0.00000000000E+00 -0.46487064109E+03  0.46487064109E+03  0.00000000000E+00 0.  1.
         23    2    1    2    0    0  0.52836127717E+03  0.74283808425E+02  0.65479627325E+03  0.84971226652E+03  0.92569179578E+02 0.  0.
         13    1    3    3    0    0  0.32323357094E+03  0.19503246932E+02  0.45265517101E+03  0.55655819270E+03  0.00000000000E+00 0. -1.
        -13    1    3    3    0    0  0.20512770624E+03  0.54780561493E+02  0.20214110224E+03  0.29315407382E+03  0.00000000000E+00 0.  1.
         22    1    1    2    0    0 -0.52836127717E+03 -0.74283808425E+02 -0.17370420266E+03  0.56112108625E+03  0.00000000000E+00 0.  1.
<mgrwt>
<rscale>  0 0.13262734E+04</rscale>
<asrwt>0</asrwt>
<pdfrwt beam="1">  1        2 0.71518560E-01 0.13262734E+04</pdfrwt>
<pdfrwt beam="2">  1       -2 0.14553272E+00 0.13262734E+04</pdfrwt>
<totfact> 0.21255098E+01</totfact>
</mgrwt>
</event>
<event>
 6    1  0.1878669E-005  0.2534424E+04  0.7818608E-02  0.8390823E-01
         -2   -1    0    0    0  501 -0.00000000000E+00  0.00000000000E+00  0.71648327247E+03  0.71648327247E+03  0.00000000000E+00 0.  1.
          2   -1    0    0  501    0  0.00000000000E+00 -0.00000000000E+00 -0.22412612079E+04  0.22412612079E+04  0.00000000000E+00 0. -1.
         23    2    1    2    0    0 -0.96357739847E+03  0.38818760744E+03  0.80249441195E+02  0.10458648029E+04  0.90676301907E+02 0.  0.
         11    1    3    3    0    0 -0.47554848499E+03  0.14556723854E+03  0.53491050772E+02  0.50019743605E+03  0.00000000000E+00 0.  1.
        -11    1    3    3    0    0 -0.48802891348E+03  0.24262036889E+03  0.26758390423E+02  0.54566736686E+03  0.00000000000E+00 0. -1.
         22    1    1    2    0    0  0.96357739847E+03 -0.38818760744E+03 -0.16050273766E+04  0.19118796775E+04  0.00000000000E+00 0. -1.
<mgrwt>
<rscale>  0 0.25344239E+04</rscale>
<asrwt>0</asrwt>
<pdfrwt beam="1">  1        2 0.34480941E+00 0.25344239E+04</pdfrwt>
<pdfrwt beam="2">  1       -2 0.11022820E+00 0.25344239E+04</pdfrwt>
<totfact> 0.28452334E+00</totfact>
</mgrwt>
</event>
<event>
 6    1  0.1588846E-005  0.3526446E+04  0.7818608E-02  0.8107551E-01
         -1   -1    0    0    0  501 -0.00000000000E+00  0.00000000000E+00  0.88967998974E+03  0.88967998974E+03  0.00000000000E+00 0.  1.
          1   -1    0    0  501    0  0.00000000000E+00 -0.00000000000E+00 -0.34944652369E+04  0.34944652369E+04  0.00000000000E+00 0. -1.
         23    2    1    2    0    0  0.25483449536E+03 -0.88741739890E+03  0.56244173245E+03  0.10850882401E+04  0.92873712885E+02 0.  0.
         13    1    3    3    0    0  0.84085600106E+02 -0.45552642248E+03  0.29466694466E+03  0.54900211111E+03  0.00000000000E+00 0. -1.
        -13    1    3    3    0    0  0.17074889526E+03 -0.43189097642E+03  0.26777478779E+03  0.53608612901E+03  0.00000000000E+00 0.  1.
         22    1    1    2    0    0 -0.25483449536E+03  0.88741739890E+03 -0.31672269797E+04  0.32990569866E+04  0.00000000000E+00 0. -1.
<mgrwt>
<rscale>  0 0.35264463E+04</rscale>
<asrwt>0</asrwt>
<pdfrwt beam="1">  1        1 0.53761002E+00 0.35264463E+04</pdfrwt>
<pdfrwt beam="2">  1       -1 0.13687385E+00 0.35264463E+04</pdfrwt>
<totfact> 0.91211705E-02</totfact>
</mgrwt>
</event>
<event>
 6    1  0.1588846E-005  0.2659850E+04  0.7818608E-02  0.8348151E-01
         -1   -1    0    0    0  501 -0.00000000000E+00  0.00000000000E+00  0.11556096545E+04  0.11556096545E+04  0.00000000000E+00 0.  1.
          1   -1    0    0  501    0  0.00000000000E+00 -0.00000000000E+00 -0.15305346972E+04  0.15305346972E+04  0.00000000000E+00 0. -1.
         23    2    1    2    0    0  0.23201021436E+03  0.11801096898E+04 -0.75721594194E+03  0.14241483331E+04  0.91295522730E+02 0.  0.
         11    1    3    3    0    0  0.20593431864E+03  0.83455590599E+03 -0.53470958836E+03  0.10123274410E+04  0.00000000000E+00 0.  1.
        -11    1    3    3    0    0  0.26075895713E+02  0.34555378377E+03 -0.22250635357E+03  0.41182089213E+03  0.00000000000E+00 0. -1.
         22    1    1    2    0    0 -0.23201021436E+03 -0.11801096898E+04  0.38229089918E+03  0.12619960186E+04  0.00000000000E+00 0. -1.
<mgrwt>
<rscale>  0 0.26598501E+04</rscale>
<asrwt>0</asrwt>
<pdfrwt beam="1">  1        1 0.23546688E+00 0.26598501E+04</pdfrwt>
<pdfrwt beam="2">  1       -1 0.17778610E+00 0.26598501E+04</pdfrwt>
<totfact> 0.11787117E+00</totfact>
</mgrwt>
</event>
<event>
 6    1  0.1588846E-005  0.2585608E+04  0.7818608E-02  0.8373106E-01
         -2   -1    0    0    0  501 -0.00000000000E+00  0.00000000000E+00  0.87697932247E+03  0.87697932247E+03  0.00000000000E+00 0.  1.
          2   -1    0    0  501    0  0.00000000000E+00 -0.00000000000E+00 -0.19057946772E+04  0.19057946772E+04  0.00000000000E+00 0. -1.
         23    2    1    2    0    0 -0.50114908977E+03 -0.58591150174E+03 -0.16297557250E+04  0.18052403549E+04  0.91358182756E+02 0.  0.
         11    1    3    3    0    0 -0.39371588088E+02 -0.69065550558E+02 -0.22875626951E+03  0.24217680125E+03  0.00000000000E+00 0. -1.
        -11    1    3    3    0    0 -0.46177750168E+03 -0.51684595118E+03 -0.14009994555E+04  0.15630635536E+04  0.00000000000E+00 0.  1.
         22    1    1    2    0    0  0.50114908977E+03  0.58591150174E+03  0.60094037029E+03  0.97753364479E+03  0.00000000000E+00 0.  1.
<mgrwt>
<rscale>  0 0.25856083E+04</rscale>
<asrwt>0</asrwt>
<pdfrwt beam="1">  1        2 0.29319918E+00 0.25856083E+04</pdfrwt>
<pdfrwt beam="2">  1       -2 0.13491990E+00 0.25856083E+04</pdfrwt>
<totfact> 0.26376836E+00</totfact>
</mgrwt>
</event>
<event>
 6    1  0.1588846E-005  0.1217732E+04  0.7818608E-02  0.9097476E-01
          1   -1    0    0  501    0  0.00000000000E+00  0.00000000000E+00  0.87205335832E+03  0.87205335832E+03  0.00000000000E+00 0. -1.
         -1   -1    0    0    0  501 -0.00000000000E+00 -0.00000000000E+00 -0.42510897380E+03  0.42510897380E+03  0.00000000000E+00 0.  1.
         23    2    1    2    0    0 -0.25878810026E+03  0.23457449077E+03 -0.30227549244E+03  0.47052644095E+03  0.89600143657E+02 0.  0.
         11    1    3    3    0    0 -0.17067734617E+03  0.10369141544E+03 -0.13796227682E+03  0.24272671043E+03  0.00000000000E+00 0.  1.
        -11    1    3    3    0    0 -0.88110754088E+02  0.13088307534E+03 -0.16431321562E+03  0.22779973052E+03  0.00000000000E+00 0. -1.
         22    1    1    2    0    0  0.25878810026E+03 -0.23457449077E+03  0.74921987696E+03  0.82663589118E+03  0.00000000000E+00 0. -1.
<mgrwt>
<rscale>  0 0.12177318E+04</rscale>
<asrwt>0</asrwt>
<pdfrwt beam="1">  1        1 0.13416206E+00 0.12177318E+04</pdfrwt>
<pdfrwt beam="2">  1       -1 0.65401381E-01 0.12177318E+04</pdfrwt>
<totfact> 0.44968714E+01</totfact>
</mgrwt>
</event>
<event>
 6    1  0.2038621E-005  0.4001349E+04  0.7818608E-02  0.8004274E-01
          1   -1    0    0  501    0  0.00000000000E+00  0.00000000000E+00  0.23244335662E+04  0.23244335662E+04  0.00000000000E+00 0. -1.
         -1   -1    0    0    0  501 -0.00000000000E+00 -0.00000000000E+00 -0.17220104605E+04  0.17220104605E+04  0.00000000000E+00 0.  1.
         23    2    1    2    0    0  0.17997550129E+04 -0.77888650814E+03  0.69617715297E+03  0.20831376012E+04  0.94959666926E+02 0.  0.
         13    1    3    3    0    0  0.11234570490E+04 -0.48602187263E+03  0.38554433541E+03  0.12833617713E+04  0.00000000000E+00 0.  1.
        -13    1    3    3    0    0  0.67629796390E+03 -0.29286463551E+03  0.31063281756E+03  0.79977582988E+03  0.00000000000E+00 0. -1.
         22    1    1    2    0    0 -0.17997550129E+04  0.77888650814E+03 -0.93754047193E+02  0.19633064255E+04  0.00000000000E+00 0. -1.
<mgrwt>
<rscale>  0 0.40013492E+04</rscale>
<asrwt>0</asrwt>
<pdfrwt beam="1">  1        1 0.35760516E+00 0.40013492E+04</pdfrwt>
<pdfrwt beam="2">  1       -1 0.26492469E+00 0.40013492E+04</pdfrwt>
<totfact> 0.78116772E-02</totfact>
</mgrwt>
</event>
<event>
 6    1  0.1588846E-005  0.1780974E+04  0.7818608E-02  0.8716483E-01
         -4   -1    0    0    0  501 -0.00000000000E+00  0.00000000000E+00  0.65085360070E+03  0.65085360070E+03  0.00000000000E+00 0.  1.
          4   -1    0    0  501    0  0.00000000000E+00 -0.00000000000E+00 -0.12183491660E+04  0.12183491660E+04  0.00000000000E+00 0. -1.
         23    2    1    2    0    0 -0.24642471034E+03 -0.15074500673E+03 -0.11658807809E+04  0.12047375223E+04  0.93087633069E+02 0.  0.
         11    1    3    3    0    0 -0.17405376373E+03 -0.10128972421E+03 -0.62058750789E+03  0.65244400208E+03  0.00000000000E+00 0. -1.
        -11    1    3    3    0    0 -0.72370946607E+02 -0.49455282525E+02 -0.54529327297E+03  0.55229352018E+03  0.00000000000E+00 0.  1.
         22    1    1    2    0    0  0.24642471034E+03  0.15074500673E+03  0.59838521554E+03  0.66446524446E+03  0.00000000000E+00 0.  1.
<mgrwt>
<rscale>  0 0.17809738E+04</rscale>
<asrwt>0</asrwt>
<pdfrwt beam="1">  1        4 0.18743833E+00 0.17809738E+04</pdfrwt>
<pdfrwt beam="2">  1       -4 0.10013132E+00 0.17809738E+04</pdfrwt>
<totfact> 0.24877818E-01</totfact>
</mgrwt>
</event>
<event>
 6    1  0.1588846E-005  0.1900244E+04  0.7818608E-02  0.8654735E-01
         -1   -1    0    0    0  501 -0.00000000000E+00  0.00000000000E+00  0.66021757751E+03  0.66021757751E+03  0.00000000000E+00 0.  1.
          1   -1    0    0  501    0  0.00000000000E+00 -0.00000000000E+00 -0.13673247857E+04  0.13673247857E+04  0.00000000000E+00 0. -1.
         23    2    1    2    0    0 -0.23594940387E+03  0.91449474630E+03 -0.26738682121E+03  0.98575218234E+03  0.90768334990E+02 0.  0.
         11    1    3    3    0    0 -0.33157087548E+02  0.26895622711E+03 -0.54575385348E+02  0.27643320575E+03  0.00000000000E+00 0.  1.
        -11    1    3    3    0    0 -0.20279231632E+03  0.64553851919E+03 -0.21281143587E+03  0.70931897659E+03  0.00000000000E+00 0. -1.
         22    1    1    2    0    0  0.23594940387E+03 -0.91449474630E+03 -0.43972038694E+03  0.10417901808E+04  0.00000000000E+00 0. -1.
<mgrwt>
<rscale>  0 0.19002440E+04</rscale>
<asrwt>0</asrwt>
<pdfrwt beam="1">  1        1 0.21035766E+00 0.19002440E+04</pdfrwt>
<pdfrwt beam="2">  1       -1 0.10157194E+00 0.19002440E+04</pdfrwt>
<totfact> 0.69697844E+00</totfact>
</mgrwt>
</event>
<event>
 6    1  0.1588846E-005  0.1442149E+04  0.7818608E-02  0.8923862E-01
          1   -1    0    0  501    0  0.00000000000E+00  0.00000000000E+00  0.77159191126E+03  0.77159191126E+03  0.00000000000E+00 0. -1.
         -1   -1    0    0    0  501 -0.00000000000E+00 -0.00000000000E+00 -0.67386440015E+03  0.67386440015E+03  0.00000000000E+00 0.  1.
         23    2    1    2    0    0 -0.23903600027E+03  0.66406805781E+03 -0.83232101532E+02  0.71684737910E+03  0.93904139194E+02 0.  0.
         11    1    3    3    0    0 -0.12279630169E+03  0.46919284222E+03 -0.51283710349E+02  0.48769957335E+03  0.00000000000E+00 0.  1.
        -11    1    3    3    0    0 -0.11623969858E+03  0.19487521560E+03 -0.31948391184E+02  0.22914780575E+03  0.00000000000E+00 0. -1.
         22    1    1    2    0    0  0.23903600027E+03 -0.66406805781E+03  0.18095961265E+03  0.72860893231E+03  0.00000000000E+00 0. -1.
<mgrwt>
<rscale>  0 0.14421488E+04</rscale>
<asrwt>0</asrwt>
<pdfrwt beam="1">  1        1 0.11870645E+00 0.14421488E+04</pdfrwt>
<pdfrwt beam="2">  1       -1 0.10367145E+00 0.14421488E+04</pdfrwt>
<totfact> 0.19970950E+01</totfact>
</mgrwt>
</event>
<event>
 6    1  0.1588846E-005  0.2399961E+04  0.7818608E-02  0.8439518E-01
          1   -1    0    0  501    0  0.00000000000E+00  0.00000000000E+00  0.85159761944E+03  0.85159761944E+03  0.00000000000E+00 0. -1.
         -1   -1    0    0    0  501 -0.00000000000E+00 -0.00000000000E+00 -0.16908843457E+04  0.16908843457E+04  0.00000000000E+00 0.  1.
         23    2    1    2    0    0 -0.87588982366E+03 -0.21178685171E+03 -0.12568458866E+04  0.15493091171E+04  0.93061827775E+02 0.  0.
         11    1    3    3    0    0 -0.23686362848E+03 -0.63989907867E+02 -0.27505757047E+03  0.36858615530E+03  0.00000000000E+00 0. -1.
        -11    1    3    3    0    0 -0.63902619518E+03 -0.14779694384E+03 -0.98178831615E+03  0.11807229618E+04  0.00000000000E+00 0.  1.
         22    1    1    2    0    0  0.87588982366E+03  0.21178685171E+03  0.41755916036E+03  0.99317284807E+03  0.00000000000E+00 0. -1.
<mgrwt>
<rscale>  0 0.23999609E+04</rscale>
<asrwt>0</asrwt>
<pdfrwt beam="1">  1        1 0.13101502E+00 0.23999609E+04</pdfrwt>
<pdfrwt beam="2">  1       -1 0.26013605E+00 0.23999609E+04</pdfrwt>
<totfact> 0.10713172E+00</totfact>
</mgrwt>
</event>
<event>
 6    1  0.1588846E-005  0.1645696E+04  0.7818608E-02  0.8792957E-01
          1   -1    0    0  501    0  0.00000000000E+00  0.00000000000E+00  0.10409939565E+04  0.10409939565E+04  0.00000000000E+00 0. -1.
         -1   -1    0    0    0  501 -0.00000000000E+00 -0.00000000000E+00 -0.65041549457E+03  0.65041549457E+03  0.00000000000E+00 0.  1.
         23    2    1    2    0    0 -0.43731129312E+03 -0.13872528359E+03 -0.50319101728E+03  0.68676535818E+03  0.89216511547E+02 0.  0.
         13    1    3    3    0    0 -0.29252957567E+03 -0.48719632075E+02 -0.33211059149E+03  0.44524667340E+03  0.00000000000E+00 0.  1.
        -13    1    3    3    0    0 -0.14478171744E+03 -0.90005651518E+02 -0.17108042580E+03  0.24151868479E+03  0.00000000000E+00 0. -1.
         22    1    1    2    0    0  0.43731129312E+03  0.13872528359E+03  0.89376947919E+03  0.10046440929E+04  0.00000000000E+00 0. -1.
<mgrwt>
<rscale>  0 0.16456957E+04</rscale>
<asrwt>0</asrwt>
<pdfrwt beam="1">  1        1 0.16015292E+00 0.16456957E+04</pdfrwt>
<pdfrwt beam="2">  1       -1 0.10006392E+00 0.16456957E+04</pdfrwt>
<totfact> 0.12795710E+01</totfact>
</mgrwt>
</event>
<event>
 6    1  0.1889570E-005  0.3637848E+04  0.7818608E-02  0.8081877E-01
          2   -1    0    0  501    0  0.00000000000E+00  0.00000000000E+00  0.29297949884E+04  0.29297949884E+04  0.00000000000E+00 0. -1.
         -2   -1    0    0    0  501 -0.00000000000E+00 -0.00000000000E+00 -0.11292548830E+04  0.11292548830E+04  0.00000000000E+00 0.  1.
         23    2    1    2    0    0 -0.11740095537E+03 -0.97335962655E+03 -0.80722922811E+03  0.12730719743E+04  0.88776562545E+02 0.  0.
         13    1    3    3    0    0 -0.11269788730E+03 -0.57447060974E+03 -0.47171893122E+03  0.75182181754E+03  0.00000000000E+00 0.  1.
        -13    1    3    3    0    0 -0.47030680732E+01 -0.39888901681E+03 -0.33551029690E+03  0.52125015674E+03  0.00000000000E+00 0. -1.
         22    1    1    2    0    0  0.11740095537E+03  0.97335962655E+03  0.26077693335E+04  0.27859778972E+04  0.00000000000E+00 0. -1.
<mgrwt>
<rscale>  0 0.36378484E+04</rscale>
<asrwt>0</asrwt>
<pdfrwt beam="1">  1        2 0.45073769E+00 0.36378484E+04</pdfrwt>
<pdfrwt beam="2">  1       -2 0.17373152E+00 0.36378484E+04</pdfrwt>
<totfact> 0.31363419E-01</totfact>
</mgrwt>
</event>
<event>
 6    1  0.1588846E-005  0.3381140E+04  0.7818608E-02  0.8142551E-01
         -1   -1    0    0    0  501 -0.00000000000E+00  0.00000000000E+00  0.13459497570E+04  0.13459497570E+04  0.00000000000E+00 0. -1.
          1   -1    0    0  501    0  0.00000000000E+00 -0.00000000000E+00 -0.21234276371E+04  0.21234276371E+04  0.00000000000E+00 0.  1.
         23    2    1    2    0    0 -0.13866438113E+04  0.86421933573E+03  0.51534769907E+02  0.16371879678E+04  0.89847035853E+02 0.  0.
         13    1    3    3    0    0 -0.25682800818E+03  0.20233521983E+03  0.90009663191E+01  0.32707978287E+03  0.00000000000E+00 0.  1.
        -13    1    3    3    0    0 -0.11298158031E+04  0.66188411590E+03  0.42533803588E+02  0.13101081850E+04  0.00000000000E+00 0. -1.
         22    1    1    2    0    0  0.13866438113E+04 -0.86421933573E+03 -0.82901265003E+03  0.18321894262E+04  0.00000000000E+00 0. -1.
<mgrwt>
<rscale>  0 0.33811400E+04</rscale>
<asrwt>0</asrwt>
<pdfrwt beam="1">  1        1 0.32668117E+00 0.33811400E+04</pdfrwt>
<pdfrwt beam="2">  1       -1 0.20706919E+00 0.33811400E+04</pdfrwt>
<totfact> 0.27247518E-01</totfact>
</mgrwt>
</event>
<event>
 6    1  0.1588846E-005  0.3741676E+04  0.7818608E-02  0.8058788E-01
         -2   -1    0    0    0  501 -0.00000000000E+00  0.00000000000E+00  0.14059661474E+04  0.14059661474E+04  0.00000000000E+00 0.  1.
          2   -1    0    0  501    0  0.00000000000E+00 -0.00000000000E+00 -0.24894158046E+04  0.24894158046E+04  0.00000000000E+00 0. -1.
         23    2    1    2    0    0  0.77645084166E+02 -0.18247485934E+04 -0.95863261343E+03  0.20647221030E+04  0.91458661536E+02 0.  0.
         13    1    3    3    0    0  0.26968086955E+02 -0.10345332296E+04 -0.49553198404E+03  0.11474049974E+04  0.00000000000E+00 0. -1.
        -13    1    3    3    0    0  0.50676997211E+02 -0.79021536381E+03 -0.46310062939E+03  0.91731710558E+03  0.00000000000E+00 0.  1.
         22    1    1    2    0    0 -0.77645084166E+02  0.18247485934E+04 -0.12481704382E+03  0.18306598490E+04  0.00000000000E+00 0.  1.
<mgrwt>
<rscale>  0 0.37416757E+04</rscale>
<asrwt>0</asrwt>
<pdfrwt beam="1">  1        2 0.38298704E+00 0.37416757E+04</pdfrwt>
<pdfrwt beam="2">  1       -2 0.21630249E+00 0.37416757E+04</pdfrwt>
<totfact> 0.29676021E-01</totfact>
</mgrwt>
</event>
<event>
 6    1  0.1588846E-005  0.2228059E+04  0.7818608E-02  0.8506839E-01
          2   -1    0    0  501    0  0.00000000000E+00  0.00000000000E+00  0.62671215108E+03  0.62671215108E+03  0.00000000000E+00 0. -1.
         -2   -1    0    0    0  501 -0.00000000000E+00 -0.00000000000E+00 -0.19802747199E+04  0.19802747199E+04  0.00000000000E+00 0.  1.
         23    2    1    2    0    0 -0.13261206904E+03 -0.16773606726E+03 -0.19549273225E+04  0.19687385525E+04  0.92028814770E+02 0.  0.
         11    1    3    3    0    0 -0.14415027646E+03 -0.14224908374E+03 -0.17943196216E+04  0.18057123272E+04  0.00000000000E+00 0. -1.
        -11    1    3    3    0    0  0.11538207415E+02 -0.25486983522E+02 -0.16060770091E+03  0.16302622535E+03  0.00000000000E+00 0.  1.
         22    1    1    2    0    0  0.13261206904E+03  0.16773606726E+03  0.60136475366E+03  0.63824831849E+03  0.00000000000E+00 0. -1.
<mgrwt>
<rscale>  0 0.22280595E+04</rscale>
<asrwt>0</asrwt>
<pdfrwt beam="1">  1        2 0.96417254E-01 0.22280595E+04</pdfrwt>
<pdfrwt beam="2">  1       -2 0.30465765E+00 0.22280595E+04</pdfrwt>
<totfact> 0.12771962E+00</totfact>
</mgrwt>
</event>
<event>
 6    1  0.1588846E-005  0.2013293E+04  0.7818608E-02  0.8600431E-01
         -2   -1    0    0    0  501 -0.00000000000E+00  0.00000000000E+00  0.56442590702E+03  0.56442590702E+03  0.00000000000E+00 0.  1.
          2   -1    0    0  501    0  0.00000000000E+00 -0.00000000000E+00 -0.17953421068E+04  0.17953421068E+04  0.00000000000E+00 0. -1.
         23    2    1    2    0    0  0.45685287526E+03  0.79360857528E+03 -0.11008855160E+04  0.14348695874E+04  0.91502421713E+02 0.  0.
         11    1    3    3    0    0  0.33236223932E+03  0.62796138732E+03 -0.89546649486E+03  0.11430924746E+04  0.00000000000E+00 0.  1.
        -11    1    3    3    0    0  0.12449063594E+03  0.16564718796E+03 -0.20541902116E+03  0.29177711283E+03  0.00000000000E+00 0. -1.
         22    1    1    2    0    0 -0.45685287526E+03 -0.79360857528E+03 -0.13003068376E+03  0.92489842638E+03  0.00000000000E+00 0.  1.
<mgrwt>
<rscale>  0 0.20132934E+04</rscale>
<asrwt>0</asrwt>
<pdfrwt beam="1">  1        2 0.27620648E+00 0.20132934E+04</pdfrwt>
<pdfrwt beam="2">  1       -2 0.86834756E-01 0.20132934E+04</pdfrwt>
<totfact> 0.92438687E+00</totfact>
</mgrwt>
</event>
<event>
 6    1  0.1588846E-005  0.1216655E+04  0.7818608E-02  0.9098402E-01
          2   -1    0    0  501    0  0.00000000000E+00  0.00000000000E+00  0.27738946925E+04  0.27738946925E+04  0.00000000000E+00 0. -1.
         -2   -1    0    0    0  501 -0.00000000000E+00 -0.00000000000E+00 -0.13340903436E+03  0.13340903436E+03  0.00000000000E+00 0.  1.
         23    2    1    2    0    0 -0.43684368391E+03  0.15520969235E+03  0.22562259664E+04  0.23051592563E+04  0.91000728333E+02 0.  0.
         13    1    3    3    0    0 -0.12191813355E+03  0.81858758548E+02  0.81261948797E+03  0.82578164176E+03  0.00000000000E+00 0. -1.
        -13    1    3    3    0    0 -0.31492555036E+03  0.73350933798E+02  0.14436064784E+04  0.14793776145E+04  0.00000000000E+00 0.  1.
         22    1    1    2    0    0  0.43684368391E+03 -0.15520969235E+03  0.38425969177E+03  0.60214447061E+03  0.00000000000E+00 0.  1.
<mgrwt>
<rscale>  0 0.12166554E+04</rscale>
<asrwt>0</asrwt>
<pdfrwt beam="1">  1        2 0.42675299E+00 0.12166554E+04</pdfrwt>
<pdfrwt beam="2">  1       -2 0.20524469E-01 0.12166554E+04</pdfrwt>
<totfact> 0.48755661E+01</totfact>
</mgrwt>
</event>
<event>
 6    1  0.1588846E-005  0.9579720E+03  0.7818608E-02  0.9355881E-01
         -1   -1    0    0    0  501 -0.00000000000E+00  0.00000000000E+00  0.61100642535E+03  0.61100642535E+03  0.00000000000E+00 0.  1.
          1   -1    0    0  501    0  0.00000000000E+00 -0.00000000000E+00 -0.37549131566E+03  0.37549131566E+03  0.00000000000E+00 0. -1.
         23    2    1    2    0    0  0.11440016216E+03 -0.15445938394E+03  0.56563179917E+03  0.60450019251E+03  0.92390757810E+02 0.  0.
         13    1    3    3    0    0 -0.65555058664E+01 -0.13411399387E+02  0.13058081734E+03  0.13143131343E+03  0.00000000000E+00 0. -1.
        -13    1    3    3    0    0  0.12095566803E+03 -0.14104798455E+03  0.43505098182E+03  0.47306887909E+03  0.00000000000E+00 0.  1.
         22    1    1    2    0    0 -0.11440016216E+03  0.15445938394E+03 -0.33011668948E+03  0.38199754850E+03  0.00000000000E+00 0. -1.
<mgrwt>
<rscale>  0 0.95797204E+03</rscale>
<asrwt>0</asrwt>
<pdfrwt beam="1">  1        1 0.57767895E-01 0.95797204E+03</pdfrwt>
<pdfrwt beam="2">  1       -1 0.94000988E-01 0.95797204E+03</pdfrwt>
<totfact> 0.71957245E+01</totfact>
</mgrwt>
</event>
<event>
 6    1  0.1588846E-005  0.1806513E+04  0.7818608E-02  0.8702844E-01
         -2   -1    0    0    0  501 -0.00000000000E+00  0.00000000000E+00  0.45285278406E+03  0.45285278406E+03  0.00000000000E+00 0.  1.
          2   -1    0    0  501    0  0.00000000000E+00 -0.00000000000E+00 -0.18016271262E+04  0.18016271262E+04  0.00000000000E+00 0. -1.
         23    2    1    2    0    0  0.27811407844E+03 -0.80196629894E+03 -0.29908136231E+03  0.90453445316E+03  0.90749823249E+02 0.  0.
         13    1    3    3    0    0  0.21091833848E+03 -0.50910790977E+03 -0.22378692786E+03  0.59477558657E+03  0.00000000000E+00 0.  1.
        -13    1    3    3    0    0  0.67195739962E+02 -0.29285838916E+03 -0.75294434444E+02  0.30975886659E+03  0.00000000000E+00 0. -1.
         22    1    1    2    0    0 -0.27811407844E+03  0.80196629894E+03 -0.10496929798E+04  0.13499454571E+04  0.00000000000E+00 0. -1.
<mgrwt>
<rscale>  0 0.18065125E+04</rscale>
<asrwt>0</asrwt>
<pdfrwt beam="1">  1        2 0.27717340E+00 0.18065125E+04</pdfrwt>
<pdfrwt beam="2">  1       -2 0.69669659E-01 0.18065125E+04</pdfrwt>
<totfact> 0.15259112E+01</totfact>
</mgrwt>
</event>
<event>
 6    1  0.1588846E-005  0.3589283E+04  0.7818608E-02  0.8092951E-01
         -2   -1    0    0    0  501 -0.00000000000E+00  0.00000000000E+00  0.14997371844E+04  0.14997371844E+04  0.00000000000E+00 0.  1.
          2   -1    0    0  501    0  0.00000000000E+00 -0.00000000000E+00 -0.21475355287E+04  0.21475355287E+04  0.00000000000E+00 0. -1.
         23    2    1    2    0    0 -0.98532236607E+03  0.70564102117E+02 -0.18452003231E+04  0.20949805510E+04  0.91322610210E+02 0.  0.
         11    1    3    3    0    0 -0.44112219585E+03  0.66465462476E+02 -0.76978716162E+03  0.88970709988E+03  0.00000000000E+00 0.  1.
        -11    1    3    3    0    0 -0.54420017023E+03  0.40986396414E+01 -0.10754131615E+04  0.12052734511E+04  0.00000000000E+00 0. -1.
         22    1    1    2    0    0  0.98532236607E+03 -0.70564102117E+02  0.11974019788E+04  0.15522921621E+04  0.00000000000E+00 0.  1.
<mgrwt>
<rscale>  0 0.35892834E+04</rscale>
<asrwt>0</asrwt>
<pdfrwt beam="1">  1        2 0.33039008E+00 0.35892834E+04</pdfrwt>
<pdfrwt beam="2">  1       -2 0.23072880E+00 0.35892834E+04</pdfrwt>
<totfact> 0.38144067E-01</totfact>
</mgrwt>
</event>
<event>
 6    1  0.1588846E-005  0.1823729E+04  0.7818608E-02  0.8693781E-01
          2   -1    0    0  501    0  0.00000000000E+00  0.00000000000E+00  0.16750087601E+04  0.16750087601E+04  0.00000000000E+00 0. -1.
         -2   -1    0    0    0  501 -0.00000000000E+00 -0.00000000000E+00 -0.49641344205E+03  0.49641344205E+03  0.00000000000E+00 0.  1.
         23    2    1    2    0    0  0.84502531424E+03  0.29683326129E+03  0.77889576207E+03  0.11906380762E+04  0.93609046044E+02 0.  0.
         11    1    3    3    0    0  0.64376444421E+03  0.25676421574E+03  0.56471237084E+03  0.89401374928E+03  0.00000000000E+00 0.  1.
        -11    1    3    3    0    0  0.20126087003E+03  0.40069045545E+02  0.21418339124E+03  0.29662432688E+03  0.00000000000E+00 0. -1.
         22    1    1    2    0    0 -0.84502531424E+03 -0.29683326129E+03  0.39969955593E+03  0.98078412596E+03  0.00000000000E+00 0.  1.
<mgrwt>
<rscale>  0 0.18237290E+04</rscale>
<asrwt>0</asrwt>
<pdfrwt beam="1">  1        2 0.25769365E+00 0.18237290E+04</pdfrwt>
<pdfrwt beam="2">  1       -2 0.76371300E-01 0.18237290E+04</pdfrwt>
<totfact> 0.14633611E+01</totfact>
</mgrwt>
</event>
<event>
 6    1  0.1588846E-005  0.2479975E+04  0.7818608E-02  0.8410154E-01
         -1   -1    0    0    0  501 -0.00000000000E+00  0.00000000000E+00  0.93334337265E+03  0.93334337265E+03  0.00000000000E+00 0.  1.
          1   -1    0    0  501    0  0.00000000000E+00 -0.00000000000E+00 -0.16473779036E+04  0.16473779036E+04  0.00000000000E+00 0. -1.
         23    2    1    2    0    0 -0.20910073880E+02 -0.10610439921E+04  0.30654240985E+03  0.11083664017E+04  0.90863893150E+02 0.  0.
         11    1    3    3    0    0 -0.35689548522E+02 -0.98234772937E+03  0.26465285292E+03  0.10179989871E+04  0.00000000000E+00 0.  1.
        -11    1    3    3    0    0  0.14779474642E+02 -0.78696262744E+02  0.41889556930E+02  0.90367414594E+02  0.00000000000E+00 0. -1.
         22    1    1    2    0    0  0.20910073880E+02  0.10610439921E+04 -0.10205769408E+04  0.14723548745E+04  0.00000000000E+00 0. -1.
<mgrwt>
<rscale>  0 0.24799752E+04</rscale>
<asrwt>0</asrwt>
<pdfrwt beam="1">  1        1 0.25344275E+00 0.24799752E+04</pdfrwt>
<pdfrwt beam="2">  1       -1 0.14359129E+00 0.24799752E+04</pdfrwt>
<totfact> 0.18067867E+00</totfact>
</mgrwt>
</event>
<event>
 6    1  0.1588846E-005  0.1870560E+04  0.7818608E-02  0.8669651E-01
          2   -1    0    0  501    0  0.00000000000E+00  0.00000000000E+00  0.23563796996E+04  0.23563796996E+04  0.00000000000E+00 0. -1.
         -2   -1    0    0    0  501 -0.00000000000E+00 -0.00000000000E+00 -0.37122567242E+03  0.37122567242E+03  0.00000000000E+00 0.  1.
         23    2    1    2    0    0  0.26156920595E+03  0.89344833092E+03  0.90314526919E+03  0.13002261926E+04  0.90820730379E+02 0.  0.
         11    1    3    3    0    0  0.22558371339E+03  0.83510166819E+03  0.81431060989E+03  0.11880170779E+04  0.00000000000E+00 0. -1.
        -11    1    3    3    0    0  0.35985492560E+02  0.58346662726E+02  0.88834659299E+02  0.11220911469E+03  0.00000000000E+00 0.  1.
         22    1    1    2    0    0 -0.26156920595E+03 -0.89344833092E+03  0.10820087579E+04  0.14273791794E+04  0.00000000000E+00 0.  1.
<mgrwt>
<rscale>  0 0.18705600E+04</rscale>
<asrwt>0</asrwt>
<pdfrwt beam="1">  1        2 0.36251994E+00 0.18705600E+04</pdfrwt>
<pdfrwt beam="2">  1       -2 0.57111643E-01 0.18705600E+04</pdfrwt>
<totfact> 0.11364571E+01</totfact>
</mgrwt>
</event>
<event>
 6    1  0.1588846E-005  0.2110044E+04  0.7818608E-02  0.8556832E-01
         -2   -1    0    0    0  501 -0.00000000000E+00  0.00000000000E+00  0.67669257675E+03  0.67669257675E+03  0.00000000000E+00 0.  1.
          2   -1    0    0  501    0  0.00000000000E+00 -0.00000000000E+00 -0.16448703833E+04  0.16448703833E+04  0.00000000000E+00 0. -1.
         23    2    1    2    0    0 -0.72327837999E+02 -0.11067460558E+03 -0.16344337744E+04  0.16423154357E+04  0.91356680402E+02 0.  0.
         11    1    3    3    0    0 -0.76924504916E+02 -0.44978306550E+02 -0.11464411122E+04  0.11498989743E+04  0.00000000000E+00 0. -1.
        -11    1    3    3    0    0  0.45966669169E+01 -0.65696299025E+02 -0.48799266226E+03  0.49241646141E+03  0.00000000000E+00 0.  1.
         22    1    1    2    0    0  0.72327837999E+02  0.11067460558E+03  0.66625596790E+03  0.67924752428E+03  0.00000000000E+00 0.  1.
<mgrwt>
<rscale>  0 0.21100441E+04</rscale>
<asrwt>0</asrwt>
<pdfrwt beam="1">  1        2 0.25305698E+00 0.21100441E+04</pdfrwt>
<pdfrwt beam="2">  1       -2 0.10410655E+00 0.21100441E+04</pdfrwt>
<totfact> 0.72728834E+00</totfact>
</mgrwt>
</event>
<event>
 6    1  0.1588846E-005  0.3299040E+04  0.7818608E-02  0.8163140E-01
          1   -1    0    0  501    0  0.00000000000E+00  0.00000000000E+00  0.18388810541E+04  0.18388810541E+04  0.00000000000E+00 0. -1.
         -1   -1    0    0    0  501 -0.00000000000E+00 -0.00000000000E+00 -0.14796588750E+04  0.14796588750E+04  0.00000000000E+00 0.  1.
         23    2    1    2    0    0  0.11791507480E+04 -0.70346751570E+03 -0.73767320011E+03  0.15611434158E+04  0.87999899883E+02 0.  0.
         13    1    3    3    0    0  0.73171103742E+03 -0.38791635161E+03 -0.43204898145E+03  0.93410195402E+03  0.00000000000E+00 0. -1.
        -13    1    3    3    0    0  0.44743971060E+03 -0.31555116408E+03 -0.30562421866E+03  0.62704146179E+03  0.00000000000E+00 0.  1.
         22    1    1    2    0    0 -0.11791507480E+04  0.70346751570E+03  0.10968953791E+04  0.17573965133E+04  0.00000000000E+00 0. -1.
<mgrwt>
<rscale>  0 0.32990403E+04</rscale>
<asrwt>0</asrwt>
<pdfrwt beam="1">  1        1 0.28290478E+00 0.32990403E+04</pdfrwt>
<pdfrwt beam="2">  1       -1 0.22763983E+00 0.32990403E+04</pdfrwt>
<totfact> 0.31127935E-01</totfact>
</mgrwt>
</event>
<event>
 6    1  0.1588846E-005  0.3995970E+04  0.7818608E-02  0.8005360E-01
          2   -1    0    0  501    0  0.00000000000E+00  0.00000000000E+00  0.27565885293E+04  0.27565885293E+04  0.00000000000E+00 0. -1.
         -2   -1    0    0    0  501 -0.00000000000E+00 -0.00000000000E+00 -0.14481463704E+04  0.14481463704E+04  0.00000000000E+00 0.  1.
         23    2    1    2    0    0 -0.23332643897E+03  0.14481286006E+04 -0.77139479585E+03  0.16596927724E+04  0.89512551399E+02 0.  0.
         11    1    3    3    0    0 -0.23709442615E+03  0.13079152775E+04 -0.70128530388E+03  0.15028829687E+04  0.00000000000E+00 0.  1.
        -11    1    3    3    0    0  0.37679871849E+01  0.14021332309E+03 -0.70109491968E+02  0.15680980379E+03  0.00000000000E+00 0. -1.
         22    1    1    2    0    0  0.23332643897E+03 -0.14481286006E+04  0.20798369547E+04  0.25450421272E+04  0.00000000000E+00 0. -1.
<mgrwt>
<rscale>  0 0.39959698E+04</rscale>
<asrwt>0</asrwt>
<pdfrwt beam="1">  1        2 0.42409054E+00 0.39959698E+04</pdfrwt>
<pdfrwt beam="2">  1       -2 0.22279175E+00 0.39959698E+04</pdfrwt>
<totfact> 0.18389488E-01</totfact>
</mgrwt>
</event>
<event>
 6    1  0.1588846E-005  0.1627739E+04  0.7818608E-02  0.8803686E-01
          1   -1    0    0  501    0  0.00000000000E+00  0.00000000000E+00  0.80190443076E+03  0.80190443076E+03  0.00000000000E+00 0. -1.
         -1   -1    0    0    0  501 -0.00000000000E+00 -0.00000000000E+00 -0.82601287218E+03  0.82601287218E+03  0.00000000000E+00 0.  1.
         23    2    1    2    0    0 -0.45585465413E+03 -0.23667231436E+03 -0.64023223578E+03  0.82577904799E+03  0.90534359761E+02 0.  0.
         11    1    3    3    0    0 -0.40464711495E+03 -0.18269250712E+03 -0.51351457600E+03  0.67883212914E+03  0.00000000000E+00 0.  1.
        -11    1    3    3    0    0 -0.51207539175E+02 -0.53979807246E+02 -0.12671765978E+03  0.14694691885E+03  0.00000000000E+00 0. -1.
         22    1    1    2    0    0  0.45585465413E+03  0.23667231436E+03  0.61612379436E+03  0.80213825495E+03  0.00000000000E+00 0. -1.
<mgrwt>
<rscale>  0 0.16277388E+04</rscale>
<asrwt>0</asrwt>
<pdfrwt beam="1">  1        1 0.12336991E+00 0.16277388E+04</pdfrwt>
<pdfrwt beam="2">  1       -1 0.12707890E+00 0.16277388E+04</pdfrwt>
<totfact> 0.11325913E+01</totfact>
</mgrwt>
</event>
<event>
 6    1  0.1588846E-005  0.1805930E+04  0.7818608E-02  0.8703152E-01
          2   -1    0    0  501    0  0.00000000000E+00  0.00000000000E+00  0.12497659153E+04  0.12497659153E+04  0.00000000000E+00 0. -1.
         -2   -1    0    0    0  501 -0.00000000000E+00 -0.00000000000E+00 -0.65239906319E+03  0.65239906319E+03  0.00000000000E+00 0.  1.
         23    2    1    2    0    0  0.67858468345E+03 -0.26444144440E+03  0.85778920058E+03  0.11287141076E+04  0.88242699307E+02 0.  0.
         11    1    3    3    0    0  0.40006689065E+03 -0.13310776600E+03  0.55355761059E+03  0.69584281459E+03  0.00000000000E+00 0. -1.
        -11    1    3    3    0    0  0.27851779280E+03 -0.13133367840E+03  0.30423158998E+03  0.43287129303E+03  0.00000000000E+00 0.  1.
         22    1    1    2    0    0 -0.67858468345E+03  0.26444144440E+03 -0.26042234843E+03  0.77345087090E+03  0.00000000000E+00 0.  1.
<mgrwt>
<rscale>  0 0.18059304E+04</rscale>
<asrwt>0</asrwt>
<pdfrwt beam="1">  1        2 0.19227168E+00 0.18059304E+04</pdfrwt>
<pdfrwt beam="2">  1       -2 0.10036909E+00 0.18059304E+04</pdfrwt>
<totfact> 0.13673025E+01</totfact>
</mgrwt>
</event>
<event>
 6    1  0.1588846E-005  0.1901353E+04  0.7818608E-02  0.8654183E-01
         -2   -1    0    0    0  501 -0.00000000000E+00  0.00000000000E+00  0.30367539531E+03  0.30367539531E+03  0.00000000000E+00 0.  1.
          2   -1    0    0  501    0  0.00000000000E+00 -0.00000000000E+00 -0.29761578175E+04  0.29761578175E+04  0.00000000000E+00 0. -1.
         23    2    1    2    0    0  0.76535902015E+03 -0.39628327473E+03 -0.65622805985E+03  0.10870959925E+04  0.91255503292E+02 0.  0.
         11    1    3    3    0    0  0.26280997618E+03 -0.15366383487E+03 -0.18146884146E+03  0.35441867635E+03  0.00000000000E+00 0. -1.
        -11    1    3    3    0    0  0.50254904397E+03 -0.24261943987E+03 -0.47475921839E+03  0.73267731618E+03  0.00000000000E+00 0.  1.
         22    1    1    2    0    0 -0.76535902015E+03  0.39628327473E+03 -0.20162543623E+04  0.21927372203E+04  0.00000000000E+00 0. -1.
<mgrwt>
<rscale>  0 0.19013531E+04</rscale>
<asrwt>0</asrwt>
<pdfrwt beam="1">  1        2 0.45787040E+00 0.19013531E+04</pdfrwt>
<pdfrwt beam="2">  1       -2 0.46719295E-01 0.19013531E+04</pdfrwt>
<totfact> 0.73507038E+00</totfact>
</mgrwt>
</event>
<event>
 6    1  0.1588846E-005  0.1772206E+04  0.7818608E-02  0.8721221E-01
          1   -1    0    0  501    0  0.00000000000E+00  0.00000000000E+00  0.19357676104E+04  0.19357676104E+04  0.00000000000E+00 0. -1.
         -1   -1    0    0    0  501 -0.00000000000E+00 -0.00000000000E+00 -0.40561602725E+03  0.40561602725E+03  0.00000000000E+00 0.  1.
         23    2    1    2    0    0  0.81920460155E+03  0.26591517301E+03  0.50538001930E+03  0.10027411101E+04  0.90959945013E+02 0.  0.
         11    1    3    3    0    0  0.57478657472E+03  0.19312468787E+03  0.40222889630E+03  0.72764334434E+03  0.00000000000E+00 0.  1.
        -11    1    3    3    0    0  0.24441802682E+03  0.72790485145E+02  0.10315112300E+03  0.27509776578E+03  0.00000000000E+00 0. -1.
         22    1    1    2    0    0 -0.81920460155E+03 -0.26591517301E+03  0.10247715638E+04  0.13386425275E+04  0.00000000000E+00 0. -1.
<mgrwt>
<rscale>  0 0.17722058E+04</rscale>
<asrwt>0</asrwt>
<pdfrwt beam="1">  1        1 0.29781040E+00 0.17722058E+04</pdfrwt>
<pdfrwt beam="2">  1       -1 0.62402467E-01 0.17722058E+04</pdfrwt>
<totfact> 0.81175679E+00</totfact>
</mgrwt>
</event>
<event>
 6    1  0.1588846E-005  0.2262939E+04  0.7818608E-02  0.8492679E-01
          1   -1    0    0  501    0  0.00000000000E+00  0.00000000000E+00  0.26188524939E+04  0.26188524939E+04  0.00000000000E+00 0. -1.
         -1   -1    0    0    0  501 -0.00000000000E+00 -0.00000000000E+00 -0.48884913683E+03  0.48884913683E+03  0.00000000000E+00 0.  1.
         23    2    1    2    0    0 -0.90134162453E+03 -0.18088878950E+03  0.19685342225E+04  0.21743154514E+04  0.85925658184E+02 0.  0.
         13    1    3    3    0    0 -0.38895519300E+03 -0.52126198963E+02  0.91999381004E+03  0.10001959274E+04  0.00000000000E+00 0.  1.
        -13    1    3    3    0    0 -0.51238643153E+03 -0.12876259054E+03  0.10485404125E+04  0.11741195240E+04  0.00000000000E+00 0. -1.
         22    1    1    2    0    0  0.90134162453E+03  0.18088878950E+03  0.16146913451E+03  0.93338617928E+03  0.00000000000E+00 0.  1.
<mgrwt>
<rscale>  0 0.22629395E+04</rscale>
<asrwt>0</asrwt>
<pdfrwt beam="1">  1        1 0.40290038E+00 0.22629395E+04</pdfrwt>
<pdfrwt beam="2">  1       -1 0.75207561E-01 0.22629395E+04</pdfrwt>
<totfact> 0.18042182E+00</totfact>
</mgrwt>
</event>
<event>
 6    1  0.1588846E-005  0.2177327E+04  0.7818608E-02  0.8527925E-01
          1   -1    0    0  501    0  0.00000000000E+00  0.00000000000E+00  0.73046804312E+03  0.73046804312E+03  0.00000000000E+00 0. -1.
         -1   -1    0    0    0  501 -0.00000000000E+00 -0.00000000000E+00 -0.16225050906E+04  0.16225050906E+04  0.00000000000E+00 0.  1.
         23    2    1    2    0    0 -0.84049811326E+03  0.64535023641E+03 -0.18673756013E+03  0.10800389748E+04  0.93269849141E+02 0.  0.
         11    1    3    3    0    0 -0.26650473675E+03  0.19924504768E+03 -0.10266251728E+03  0.34822831044E+03  0.00000000000E+00 0. -1.
        -11    1    3    3    0    0 -0.57399337650E+03  0.44610518873E+03 -0.84075042852E+02  0.73181066439E+03  0.00000000000E+00 0.  1.
         22    1    1    2    0    0  0.84049811326E+03 -0.64535023641E+03 -0.70529948738E+03  0.12729341589E+04  0.00000000000E+00 0. -1.
<mgrwt>
<rscale>  0 0.21773269E+04</rscale>
<asrwt>0</asrwt>
<pdfrwt beam="1">  1        1 0.11237970E+00 0.21773269E+04</pdfrwt>
<pdfrwt beam="2">  1       -1 0.24961616E+00 0.21773269E+04</pdfrwt>
<totfact> 0.16346455E+00</totfact>
</mgrwt>
</event>
<event>
 6    1  0.1588846E-005  0.2312449E+04  0.7818608E-02  0.8473029E-01
          1   -1    0    0  501    0  0.00000000000E+00  0.00000000000E+00  0.11849802577E+04  0.11849802577E+04  0.00000000000E+00 0. -1.
         -1   -1    0    0    0  501 -0.00000000000E+00 -0.00000000000E+00 -0.11281667410E+04  0.11281667410E+04  0.00000000000E+00 0.  1.
         23    2    1    2    0    0 -0.70260866515E+03  0.89101597271E+03 -0.18455960612E+03  0.11530481304E+04  0.88821972194E+02 0.  0.
         13    1    3    3    0    0 -0.52224559324E+03  0.65986937344E+03 -0.17599818169E+03  0.85973449949E+03  0.00000000000E+00 0. -1.
        -13    1    3    3    0    0 -0.18036307192E+03  0.23114659927E+03 -0.85614244345E+01  0.29331363087E+03  0.00000000000E+00 0.  1.
         22    1    1    2    0    0  0.70260866515E+03 -0.89101597271E+03  0.24137312277E+03  0.11600988684E+04  0.00000000000E+00 0.  1.
<mgrwt>
<rscale>  0 0.23124492E+04</rscale>
<asrwt>0</asrwt>
<pdfrwt beam="1">  1        1 0.18230466E+00 0.23124492E+04</pdfrwt>
<pdfrwt beam="2">  1       -1 0.17356411E+00 0.23124492E+04</pdfrwt>
<totfact> 0.22931828E+00</totfact>
</mgrwt>
</event>
<event>
 6    1  0.1588846E-005  0.1800221E+04  0.7818608E-02  0.8706182E-01
          1   -1    0    0  501    0  0.00000000000E+00  0.00000000000E+00  0.16553434929E+04  0.16553434929E+04  0.00000000000E+00 0. -1.
         -1   -1    0    0    0  501 -0.00000000000E+00 -0.00000000000E+00 -0.48944468287E+03  0.48944468287E+03  0.00000000000E+00 0.  1.
         23    2    1    2    0    0 -0.83675232417E+03  0.14711020877E+03  0.93018591928E+03  0.12631099848E+04  0.91679462054E+02 0.  0.
         13    1    3    3    0    0 -0.63659985413E+03  0.98370030882E+02  0.64764125626E+03  0.91344142345E+03  0.00000000000E+00 0.  1.
        -13    1    3    3    0    0 -0.20015247004E+03  0.48740177892E+02  0.28254466302E+03  0.34966856136E+03  0.00000000000E+00 0. -1.
         22    1    1    2    0    0  0.83675232417E+03 -0.14711020877E+03  0.23571289073E+03  0.88167819095E+03  0.00000000000E+00 0. -1.
<mgrwt>
<rscale>  0 0.18002212E+04</rscale>
<asrwt>0</asrwt>
<pdfrwt beam="1">  1        1 0.25466823E+00 0.18002212E+04</pdfrwt>
<pdfrwt beam="2">  1       -1 0.75299183E-01 0.18002212E+04</pdfrwt>
<totfact> 0.85537492E+00</totfact>
</mgrwt>
</event>
<event>
 6    1  0.1588846E-005  0.3966760E+04  0.7818608E-02  0.8011286E-01
         -2   -1    0    0    0  501 -0.00000000000E+00  0.00000000000E+00  0.16662947089E+04  0.16662947089E+04  0.00000000000E+00 0.  1.
          2   -1    0    0  501    0  0.00000000000E+00 -0.00000000000E+00 -0.23608044175E+04  0.23608044175E+04  0.00000000000E+00 0. -1.
         23    2    1    2    0    0  0.75825515989E+03  0.42769345342E+03 -0.21555380021E+04  0.23263709729E+04  0.88234049985E+02 0.  0.
         11    1    3    3    0    0  0.40297551895E+03  0.23205995217E+03 -0.12671074657E+04  0.13497416122E+04  0.00000000000E+00 0. -1.
        -11    1    3    3    0    0  0.35527964095E+03  0.19563350125E+03 -0.88843053640E+03  0.97662936066E+03  0.00000000000E+00 0.  1.
         22    1    1    2    0    0 -0.75825515989E+03 -0.42769345342E+03  0.14610282935E+04  0.17007281535E+04  0.00000000000E+00 0.  1.
<mgrwt>
<rscale>  0 0.39667598E+04</rscale>
<asrwt>0</asrwt>
<pdfrwt beam="1">  1        2 0.36320068E+00 0.39667598E+04</pdfrwt>
<pdfrwt beam="2">  1       -2 0.25635303E+00 0.39667598E+04</pdfrwt>
<totfact> 0.19451064E-01</totfact>
</mgrwt>
</event>
<event>
 6    1  0.1588846E-005  0.1982571E+04  0.7818608E-02  0.8614813E-01
         -1   -1    0    0    0  501 -0.00000000000E+00  0.00000000000E+00  0.30830476871E+03  0.30830476871E+03  0.00000000000E+00 0.  1.
          1   -1    0    0  501    0  0.00000000000E+00 -0.00000000000E+00 -0.31872588634E+04  0.31872588634E+04  0.00000000000E+00 0. -1.
         23    2    1    2    0    0 -0.46496194864E+03 -0.86330727574E+03 -0.12138622782E+04  0.15632024280E+04  0.93011473915E+02 0.  0.
         11    1    3    3    0    0 -0.28097048207E+03 -0.61003074138E+03 -0.81052327857E+03  0.10526299931E+04  0.00000000000E+00 0.  1.
        -11    1    3    3    0    0 -0.18399146657E+03 -0.25327653437E+03 -0.40333899963E+03  0.51057243488E+03  0.00000000000E+00 0. -1.
         22    1    1    2    0    0  0.46496194864E+03  0.86330727574E+03 -0.16650918165E+04  0.19323612042E+04  0.00000000000E+00 0.  1.
<mgrwt>
<rscale>  0 0.19825712E+04</rscale>
<asrwt>0</asrwt>
<pdfrwt beam="1">  1        1 0.49034750E+00 0.19825712E+04</pdfrwt>
<pdfrwt beam="2">  1       -1 0.47431505E-01 0.19825712E+04</pdfrwt>
<totfact> 0.17959886E+00</totfact>
</mgrwt>
</event>
<event>
 6    1  0.1588846E-005  0.3291122E+04  0.7818608E-02  0.8165158E-01
          2   -1    0    0  501    0  0.00000000000E+00  0.00000000000E+00  0.23635295317E+04  0.23635295317E+04  0.00000000000E+00 0. -1.
         -2   -1    0    0    0  501 -0.00000000000E+00 -0.00000000000E+00 -0.11456893795E+04  0.11456893795E+04  0.00000000000E+00 0.  1.
         23    2    1    2    0    0 -0.12004312057E+04  0.11105772419E+04  0.79149807145E+03  0.18191939232E+04  0.92630682690E+02 0.  0.
         13    1    3    3    0    0 -0.51594722108E+03  0.48439688494E+03  0.39332704475E+03  0.80965921301E+03  0.00000000000E+00 0. -1.
        -13    1    3    3    0    0 -0.68448398465E+03  0.62618035693E+03  0.39817102671E+03  0.10095347102E+04  0.00000000000E+00 0.  1.
         22    1    1    2    0    0  0.12004312057E+04 -0.11105772419E+04  0.42634208075E+03  0.16900249879E+04  0.00000000000E+00 0.  1.
<mgrwt>
<rscale>  0 0.32911218E+04</rscale>
<asrwt>0</asrwt>
<pdfrwt beam="1">  1        2 0.36361993E+00 0.32911218E+04</pdfrwt>
<pdfrwt beam="2">  1       -2 0.17625990E+00 0.32911218E+04</pdfrwt>
<totfact> 0.67115610E-01</totfact>
</mgrwt>
</event>
<event>
 6    1  0.1588846E-005  0.2718394E+04  0.7818608E-02  0.8329061E-01
          2   -1    0    0  501    0  0.00000000000E+00  0.00000000000E+00  0.24044768272E+04  0.24044768272E+04  0.00000000000E+00 0. -1.
         -2   -1    0    0    0  501 -0.00000000000E+00 -0.00000000000E+00 -0.76832379411E+03  0.76832379411E+03  0.00000000000E+00 0.  1.
         23    2    1    2    0    0 -0.25709559195E+03  0.94684405640E+03  0.19144272547E+04  0.21529730119E+04  0.87460081673E+02 0.  0.
         11    1    3    3    0    0 -0.17629591043E+03  0.58601632959E+03  0.12770524368E+04  0.14161067449E+04  0.00000000000E+00 0. -1.
        -11    1    3    3    0    0 -0.80799681520E+02  0.36082772680E+03  0.63737481796E+03  0.73686626706E+03  0.00000000000E+00 0.  1.
         22    1    1    2    0    0  0.25709559195E+03 -0.94684405640E+03 -0.27827422161E+03  0.10198276094E+04  0.00000000000E+00 0.  1.
<mgrwt>
<rscale>  0 0.27183942E+04</rscale>
<asrwt>0</asrwt>
<pdfrwt beam="1">  1        2 0.36991951E+00 0.27183942E+04</pdfrwt>
<pdfrwt beam="2">  1       -2 0.11820366E+00 0.27183942E+04</pdfrwt>
<totfact> 0.19080399E+00</totfact>
</mgrwt>
</event>
<event>
 6    1  0.1588846E-005  0.3642310E+04  0.7818608E-02  0.8080868E-01
          1   -1    0    0  501    0  0.00000000000E+00  0.00000000000E+00  0.31675654749E+04  0.31675654749E+04  0.00000000000E+00 0. -1.
         -1   -1    0    0    0  501 -0.00000000000E+00 -0.00000000000E+00 -0.10470521505E+04  0.10470521505E+04  0.00000000000E+00 0.  1.
         23    2    1    2    0    0 -0.17153267700E+04 -0.30451948277E+03  0.16704362516E+04  0.24152712400E+04  0.89999159314E+02 0.  0.
         11    1    3    3    0    0 -0.16568887714E+03 -0.31986812582E+01  0.15158943760E+03  0.22459384043E+03  0.00000000000E+00 0. -1.
        -11    1    3    3    0    0 -0.15496378929E+04 -0.30132080151E+03  0.15188468140E+04  0.21906773995E+04  0.00000000000E+00 0.  1.
         22    1    1    2    0    0  0.17153267700E+04  0.30451948277E+03  0.45007707277E+03  0.17993463854E+04  0.00000000000E+00 0.  1.
<mgrwt>
<rscale>  0 0.36423104E+04</rscale>
<asrwt>0</asrwt>
<pdfrwt beam="1">  1        1 0.48731776E+00 0.36423104E+04</pdfrwt>
<pdfrwt beam="2">  1       -1 0.16108495E+00 0.36423104E+04</pdfrwt>
<totfact> 0.10382650E-01</totfact>
</mgrwt>
</event>
<event>
 6    1  0.1588846E-005  0.1214281E+04  0.7818608E-02  0.9100447E-01
          1   -1    0    0  501    0  0.00000000000E+00  0.00000000000E+00  0.95638382754E+03  0.95638382754E+03  0.00000000000E+00 0. -1.
         -1   -1    0    0    0  501 -0.00000000000E+00 -0.00000000000E+00 -0.38543065878E+03  0.38543065878E+03  0.00000000000E+00 0.  1.
         23    2    1    2    0    0 -0.69547936536E+02  0.52370253622E+02  0.94723890586E+03  0.95558849692E+03  0.91149721453E+02 0.  0.
         13    1    3    3    0    0 -0.31559490587E+02  0.42092967285E+02  0.83489820527E+03  0.83655414201E+03  0.00000000000E+00 0.  1.
        -13    1    3    3    0    0 -0.37988445949E+02  0.10277286337E+02  0.11234070059E+03  0.11903435491E+03  0.00000000000E+00 0. -1.
         22    1    1    2    0    0  0.69547936536E+02 -0.52370253622E+02 -0.37628573710E+03  0.38622598940E+03  0.00000000000E+00 0.  1.
<mgrwt>
<rscale>  0 0.12142811E+04</rscale>
<asrwt>0</asrwt>
<pdfrwt beam="1">  1        1 0.14713597E+00 0.12142811E+04</pdfrwt>
<pdfrwt beam="2">  1       -1 0.59297025E-01 0.12142811E+04</pdfrwt>
<totfact> 0.46694151E+01</totfact>
</mgrwt>
</event>
<event>
 6    1  0.1804287E-005  0.3297232E+04  0.7818608E-02  0.8163600E-01
          2   -1    0    0  501    0  0.00000000000E+00  0.00000000000E+00  0.23132160498E+04  0.23132160498E+04  0.00000000000E+00 0.  1.
         -2   -1    0    0    0  501 -0.00000000000E+00 -0.00000000000E+00 -0.11749590972E+04  0.11749590972E+04  0.00000000000E+00 0. -1.
         23    2    1    2    0    0 -0.44588882125E+03 -0.98897808681E+03 -0.74230608956E+03  0.13171357985E+04  0.83269946537E+02 0.  0.
         13    1    3    3    0    0 -0.21553075662E+03 -0.41967907932E+03 -0.36335042973E+03  0.59548935461E+03  0.00000000000E+00 0. -1.
        -13    1    3    3    0    0 -0.23035806464E+03 -0.56929900749E+03 -0.37895565983E+03  0.72164644390E+03  0.00000000000E+00 0.  1.
         22    1    1    2    0    0  0.44588882125E+03  0.98897808681E+03  0.18805630422E+04  0.21710393485E+04  0.00000000000E+00 0.  1.
<mgrwt>
<rscale>  0 0.32972317E+04</rscale>
<asrwt>0</asrwt>
<pdfrwt beam="1">  1        2 0.35587939E+00 0.32972317E+04</pdfrwt>
<pdfrwt beam="2">  1       -2 0.18076294E+00 0.32972317E+04</pdfrwt>
<totfact> 0.66681212E-01</totfact>
</mgrwt>
</event>
<event>
 6    1  0.1588846E-005  0.2862303E+04  0.7818608E-02  0.8284183E-01
         -2   -1    0    0    0  501 -0.00000000000E+00  0.00000000000E+00  0.10699703422E+04  0.10699703422E+04  0.00000000000E+00 0.  1.
          2   -1    0    0  501    0  0.00000000000E+00 -0.00000000000E+00 -0.19142532115E+04  0.19142532115E+04  0.00000000000E+00 0. -1.
         23    2    1    2    0    0  0.13740939283E+04 -0.36936813992E+03 -0.28671406269E+03  0.14560056632E+04  0.11480675450E+03 0.  0.
         11    1    3    3    0    0  0.50484897694E+03 -0.18211615607E+03 -0.14159158272E+03  0.55505581712E+03  0.00000000000E+00 0. -1.
        -11    1    3    3    0    0  0.86924495137E+03 -0.18725198385E+03 -0.14512247997E+03  0.90094984607E+03  0.00000000000E+00 0.  1.
         22    1    1    2    0    0 -0.13740939283E+04  0.36936813992E+03 -0.55756880661E+03  0.15282178905E+04  0.00000000000E+00 0.  1.
<mgrwt>
<rscale>  0 0.28623027E+04</rscale>
<asrwt>0</asrwt>
<pdfrwt beam="1">  1        2 0.29450049E+00 0.28623027E+04</pdfrwt>
<pdfrwt beam="2">  1       -2 0.16461082E+00 0.28623027E+04</pdfrwt>
<totfact> 0.15044100E+00</totfact>
</mgrwt>
</event>
<event>
 6    1  0.1588846E-005  0.4473207E+04  0.7818608E-02  0.7915344E-01
         -2   -1    0    0    0  501 -0.00000000000E+00  0.00000000000E+00  0.15224341019E+04  0.15224341019E+04  0.00000000000E+00 0.  1.
          2   -1    0    0  501    0  0.00000000000E+00 -0.00000000000E+00 -0.32857879434E+04  0.32857879434E+04  0.00000000000E+00 0. -1.
         23    2    1    2    0    0 -0.57678150712E+03  0.16540435647E+04 -0.23752359684E+04  0.29527068181E+04  0.90524178545E+02 0.  0.
         11    1    3    3    0    0 -0.53009542949E+03  0.15393183968E+04 -0.22425075452E+04  0.27711626407E+04  0.00000000000E+00 0.  1.
        -11    1    3    3    0    0 -0.46686077627E+02  0.11472516793E+03 -0.13272842322E+03  0.18154417736E+03  0.00000000000E+00 0. -1.
         22    1    1    2    0    0  0.57678150712E+03 -0.16540435647E+04  0.61188212688E+03  0.18555152272E+04  0.00000000000E+00 0.  1.
<mgrwt>
<rscale>  0 0.44732072E+04</rscale>
<asrwt>0</asrwt>
<pdfrwt beam="1">  1        2 0.50550583E+00 0.44732072E+04</pdfrwt>
<pdfrwt beam="2">  1       -2 0.23422063E+00 0.44732072E+04</pdfrwt>
<totfact> 0.69471200E-02</totfact>
</mgrwt>
</event>
<event>
 6    1  0.1588846E-005  0.1940798E+04  0.7818608E-02  0.8634811E-01
         -1   -1    0    0    0  501 -0.00000000000E+00  0.00000000000E+00  0.47434075849E+03  0.47434075849E+03  0.00000000000E+00 0.  1.
          1   -1    0    0  501    0  0.00000000000E+00 -0.00000000000E+00 -0.19852270761E+04  0.19852270761E+04  0.00000000000E+00 0. -1.
         23    2    1    2    0    0  0.45352720571E+03 -0.72676136482E+03 -0.18532859909E+03  0.88128640442E+03  0.91924040716E+02 0.  0.
         13    1    3    3    0    0  0.30097453090E+03 -0.44387121168E+03 -0.75182783522E+02  0.54153464501E+03  0.00000000000E+00 0.  1.
        -13    1    3    3    0    0  0.15255267481E+03 -0.28289015313E+03 -0.11014581557E+03  0.33975175941E+03  0.00000000000E+00 0. -1.
         22    1    1    2    0    0 -0.45352720571E+03  0.72676136482E+03 -0.13255577185E+04  0.15782814302E+04  0.00000000000E+00 0. -1.
<mgrwt>
<rscale>  0 0.19407979E+04</rscale>
<asrwt>0</asrwt>
<pdfrwt beam="1">  1        1 0.30541954E+00 0.19407979E+04</pdfrwt>
<pdfrwt beam="2">  1       -1 0.72975503E-01 0.19407979E+04</pdfrwt>
<totfact> 0.53822879E+00</totfact>
</mgrwt>
</event>
<event>
 6    1  0.1588846E-005  0.1354093E+04  0.7818608E-02  0.8987736E-01
         -1   -1    0    0    0  501 -0.00000000000E+00  0.00000000000E+00  0.56798381097E+03  0.56798381097E+03  0.00000000000E+00 0.  1.
          1   -1    0    0  501    0  0.00000000000E+00 -0.00000000000E+00 -0.80705101807E+03  0.80705101807E+03  0.00000000000E+00 0. -1.
         23    2    1    2    0    0  0.35670325425E+03 -0.41746712180E+03 -0.51695427583E+03  0.75961852089E+03  0.90898650190E+02 0.  0.
         11    1    3    3    0    0  0.79807036752E+02 -0.15502248870E+03 -0.18019781596E+03  0.25074366990E+03  0.00000000000E+00 0.  1.
        -11    1    3    3    0    0  0.27689621750E+03 -0.26244463310E+03 -0.33675645987E+03  0.50887485099E+03  0.00000000000E+00 0. -1.
         22    1    1    2    0    0 -0.35670325425E+03  0.41746712180E+03  0.27788706872E+03  0.61541630815E+03  0.00000000000E+00 0.  1.
<mgrwt>
<rscale>  0 0.13540929E+04</rscale>
<asrwt>0</asrwt>
<pdfrwt beam="1">  1        1 0.12416170E+00 0.13540929E+04</pdfrwt>
<pdfrwt beam="2">  1       -1 0.87382124E-01 0.13540929E+04</pdfrwt>
<totfact> 0.27506755E+01</totfact>
</mgrwt>
</event>
<event>
 6    1  0.1588846E-005  0.2672441E+04  0.7818608E-02  0.8344003E-01
         -2   -1    0    0    0  501 -0.00000000000E+00  0.00000000000E+00  0.81978376199E+03  0.81978376199E+03  0.00000000000E+00 0.  1.
          2   -1    0    0  501    0  0.00000000000E+00 -0.00000000000E+00 -0.21779956591E+04  0.21779956591E+04  0.00000000000E+00 0. -1.
         23    2    1    2    0    0 -0.79629355210E+03 -0.69100484738E+03 -0.15978781143E+04  0.19165712932E+04  0.91977895804E+02 0.  0.
         11    1    3    3    0    0 -0.44546740581E+03 -0.44167103733E+03 -0.91565998393E+03  0.11099314037E+04  0.00000000000E+00 0. -1.
        -11    1    3    3    0    0 -0.35082614629E+03 -0.24933381005E+03 -0.68221813042E+03  0.80663988943E+03  0.00000000000E+00 0.  1.
         22    1    1    2    0    0  0.79629355210E+03  0.69100484738E+03  0.23966621722E+03  0.10812081279E+04  0.00000000000E+00 0.  1.
<mgrwt>
<rscale>  0 0.26724412E+04</rscale>
<asrwt>0</asrwt>
<pdfrwt beam="1">  1        2 0.33507626E+00 0.26724412E+04</pdfrwt>
<pdfrwt beam="2">  1       -2 0.12612058E+00 0.26724412E+04</pdfrwt>
<totfact> 0.21901442E+00</totfact>
</mgrwt>
</event>
<event>
 6    1  0.1588846E-005  0.1314334E+04  0.7818608E-02  0.9018275E-01
         -2   -1    0    0    0  501 -0.00000000000E+00  0.00000000000E+00  0.30155535703E+03  0.30155535703E+03  0.00000000000E+00 0. -1.
          2   -1    0    0  501    0  0.00000000000E+00 -0.00000000000E+00 -0.14321359434E+04  0.14321359434E+04  0.00000000000E+00 0.  1.
         23    2    1    2    0    0  0.50479129958E+03  0.18266710691E+03 -0.10606652284E+04  0.11923321910E+04  0.91998906743E+02 0.  0.
         13    1    3    3    0    0  0.39208364230E+03  0.16361222851E+03 -0.89904738155E+03  0.99437655752E+03  0.00000000000E+00 0. -1.
        -13    1    3    3    0    0  0.11270765728E+03  0.19054878400E+02 -0.16161784689E+03  0.19795563350E+03  0.00000000000E+00 0.  1.
         22    1    1    2    0    0 -0.50479129958E+03 -0.18266710691E+03 -0.69915357926E+02  0.54135910941E+03  0.00000000000E+00 0. -1.
<mgrwt>
<rscale>  0 0.13143337E+04</rscale>
<asrwt>0</asrwt>
<pdfrwt beam="1">  1        2 0.22032861E+00 0.13143337E+04</pdfrwt>
<pdfrwt beam="2">  1       -2 0.46393132E-01 0.13143337E+04</pdfrwt>
<totfact> 0.59812135E+01</totfact>
</mgrwt>
</event>
<event>
 6    1  0.1588846E-005  0.2029353E+04  0.7818608E-02  0.8593019E-01
          2   -1    0    0  501    0  0.00000000000E+00  0.00000000000E+00  0.12549235743E+04  0.12549235743E+04  0.00000000000E+00 0. -1.
         -2   -1    0    0    0  501 -0.00000000000E+00 -0.00000000000E+00 -0.82042320868E+03  0.82042320868E+03  0.00000000000E+00 0.  1.
         23    2    1    2    0    0  0.12614473883E+03 -0.31620179863E+03  0.11930693265E+04  0.12438884611E+04  0.89151630238E+02 0.  0.
         11    1    3    3    0    0  0.16514654576E+02 -0.15140300867E+03  0.45934782234E+03  0.48393804019E+03  0.00000000000E+00 0. -1.
        -11    1    3    3    0    0  0.10963008425E+03 -0.16479878995E+03  0.73372150414E+03  0.75995042087E+03  0.00000000000E+00 0.  1.
         22    1    1    2    0    0 -0.12614473883E+03  0.31620179863E+03 -0.75856896090E+03  0.83145832188E+03  0.00000000000E+00 0.  1.
<mgrwt>
<rscale>  0 0.20293530E+04</rscale>
<asrwt>0</asrwt>
<pdfrwt beam="1">  1        2 0.19306516E+00 0.20293530E+04</pdfrwt>
<pdfrwt beam="2">  1       -2 0.12621896E+00 0.20293530E+04</pdfrwt>
<totfact> 0.76211617E+00</totfact>
</mgrwt>
</event>
<event>
 6    1  0.1588846E-005  0.2067477E+04  0.7818608E-02  0.8575707E-01
          2   -1    0    0  501    0  0.00000000000E+00  0.00000000000E+00  0.16464250532E+04  0.16464250532E+04  0.00000000000E+00 0. -1.
         -2   -1    0    0    0  501 -0.00000000000E+00 -0.00000000000E+00 -0.64905178096E+03  0.64905178096E+03  0.00000000000E+00 0.  1.
         23    2    1    2    0    0  0.24793266506E+03 -0.39506366711E+03  0.15213810540E+04  0.15939570106E+04  0.92480986567E+02 0.  0.
         13    1    3    3    0    0  0.79137735068E+02 -0.19414901676E+03  0.77188956188E+03  0.79985631057E+03  0.00000000000E+00 0. -1.
        -13    1    3    3    0    0  0.16879492999E+03 -0.20091465035E+03  0.74949149210E+03  0.79410070007E+03  0.00000000000E+00 0.  1.
         22    1    1    2    0    0 -0.24793266506E+03  0.39506366711E+03 -0.52400778175E+03  0.70151982353E+03  0.00000000000E+00 0.  1.
<mgrwt>
<rscale>  0 0.20674768E+04</rscale>
<asrwt>0</asrwt>
<pdfrwt beam="1">  1        2 0.25329616E+00 0.20674768E+04</pdfrwt>
<pdfrwt beam="2">  1       -2 0.99854121E-01 0.20674768E+04</pdfrwt>
<totfact> 0.80460333E+00</totfact>
</mgrwt>
</event>
<event>
 6    1  0.1588846E-005  0.7243879E+03  0.7818608E-02  0.9676411E-01
         -1   -1    0    0    0  501 -0.00000000000E+00  0.00000000000E+00  0.30420797784E+03  0.30420797784E+03  0.00000000000E+00 0.  1.
          1   -1    0    0  501    0  0.00000000000E+00 -0.00000000000E+00 -0.43123277361E+03  0.43123277361E+03  0.00000000000E+00 0. -1.
         23    2    1    2    0    0 -0.42753816227E+02  0.25597999992E+03 -0.31420548425E+03  0.41545597165E+03  0.80777031928E+02 0.  0.
         11    1    3    3    0    0 -0.59323362586E+02  0.13189608404E+03 -0.19332972231E+03  0.24143781780E+03  0.00000000000E+00 0. -1.
        -11    1    3    3    0    0  0.16569546359E+02  0.12408391588E+03 -0.12087576193E+03  0.17401815385E+03  0.00000000000E+00 0.  1.
         22    1    1    2    0    0  0.42753816227E+02 -0.25597999992E+03  0.18718068848E+03  0.31998477980E+03  0.00000000000E+00 0.  1.
<mgrwt>
<rscale>  0 0.72438788E+03</rscale>
<asrwt>0</asrwt>
<pdfrwt beam="1">  1        1 0.66343503E-01 0.72438788E+03</pdfrwt>
<pdfrwt beam="2">  1       -1 0.46801227E-01 0.72438788E+03</pdfrwt>
<totfact> 0.25000843E+02</totfact>
</mgrwt>
</event>
<event>
 6    1  0.1588846E-005  0.3506819E+04  0.7818608E-02  0.8112176E-01
          1   -1    0    0  501    0  0.00000000000E+00  0.00000000000E+00  0.16305509109E+04  0.16305509109E+04  0.00000000000E+00 0.  1.
         -1   -1    0    0    0  501 -0.00000000000E+00 -0.00000000000E+00 -0.18855257233E+04  0.18855257233E+04  0.00000000000E+00 0. -1.
         23    2    1    2    0    0 -0.11022845077E+04  0.28044052093E+03 -0.14637930865E+04  0.18562815741E+04  0.97020928243E+02 0.  0.
         13    1    3    3    0    0 -0.11090672721E+03  0.53908801231E+02 -0.13219383194E+03  0.18078072406E+03  0.00000000000E+00 0. -1.
        -13    1    3    3    0    0 -0.99137778045E+03  0.22653171970E+03 -0.13315992546E+04  0.16755008500E+04  0.00000000000E+00 0.  1.
         22    1    1    2    0    0  0.11022845077E+04 -0.28044052093E+03  0.12088182741E+04  0.16597950601E+04  0.00000000000E+00 0.  1.
<mgrwt>
<rscale>  0 0.35068195E+04</rscale>
<asrwt>0</asrwt>
<pdfrwt beam="1">  1        1 0.25085398E+00 0.35068195E+04</pdfrwt>
<pdfrwt beam="2">  1       -1 0.29008088E+00 0.35068195E+04</pdfrwt>
<totfact> 0.16600700E-01</totfact>
</mgrwt>
</event>
<event>
 6    1  0.1588846E-005  0.1589070E+04  0.7818608E-02  0.8827291E-01
          1   -1    0    0  501    0  0.00000000000E+00  0.00000000000E+00  0.35562238484E+03  0.35562238484E+03  0.00000000000E+00 0.  1.
         -1   -1    0    0    0  501 -0.00000000000E+00 -0.00000000000E+00 -0.17751589529E+04  0.17751589529E+04  0.00000000000E+00 0. -1.
         23    2    1    2    0    0  0.46136405619E+03  0.52696085151E+03 -0.12074625246E+04  0.13989890644E+04  0.93059779627E+02 0.  0.
         11    1    3    3    0    0  0.30543642633E+03  0.35365463637E+03 -0.71538943854E+03  0.85448526092E+03  0.00000000000E+00 0.  1.
        -11    1    3    3    0    0  0.15592762986E+03  0.17330621514E+03 -0.49207308610E+03  0.54450380350E+03  0.00000000000E+00 0. -1.
         22    1    1    2    0    0 -0.46136405619E+03 -0.52696085151E+03 -0.21207404339E+03  0.73179227329E+03  0.00000000000E+00 0.  1.
<mgrwt>
<rscale>  0 0.15890705E+04</rscale>
<asrwt>0</asrwt>
<pdfrwt beam="1">  1        1 0.54711136E-01 0.15890705E+04</pdfrwt>
<pdfrwt beam="2">  1       -1 0.27310138E+00 0.15890705E+04</pdfrwt>
<totfact> 0.33260062E+00</totfact>
</mgrwt>
</event>
<event>
 6    1  0.1588846E-005  0.2376957E+04  0.7818608E-02  0.8448181E-01
          2   -1    0    0  501    0  0.00000000000E+00  0.00000000000E+00  0.23360562604E+04  0.23360562604E+04  0.00000000000E+00 0.  1.
         -2   -1    0    0    0  501 -0.00000000000E+00 -0.00000000000E+00 -0.60464349070E+03  0.60464349070E+03  0.00000000000E+00 0. -1.
         23    2    1    2    0    0 -0.11183516341E+04 -0.38792453215E+03  0.97051326501E+03  0.15335167934E+04  0.92638750662E+02 0.  0.
         13    1    3    3    0    0 -0.59114406030E+03 -0.15788686646E+03  0.48400711859E+03  0.78015540341E+03  0.00000000000E+00 0. -1.
        -13    1    3    3    0    0 -0.52720757378E+03 -0.23003766569E+03  0.48650614642E+03  0.75336139004E+03  0.00000000000E+00 0.  1.
         22    1    1    2    0    0  0.11183516341E+04  0.38792453215E+03  0.76089950470E+03  0.14071829577E+04  0.00000000000E+00 0. -1.
<mgrwt>
<rscale>  0 0.23769571E+04</rscale>
<asrwt>0</asrwt>
<pdfrwt beam="1">  1        2 0.35939327E+00 0.23769571E+04</pdfrwt>
<pdfrwt beam="2">  1       -2 0.93022077E-01 0.23769571E+04</pdfrwt>
<totfact> 0.38133623E+00</totfact>
</mgrwt>
</event>
<event>
 6    1  0.1588846E-005  0.5030211E+04  0.7818608E-02  0.7823864E-01
         -2   -1    0    0    0  501 -0.00000000000E+00  0.00000000000E+00  0.26376986731E+04  0.26376986731E+04  0.00000000000E+00 0.  1.
          2   -1    0    0  501    0  0.00000000000E+00 -0.00000000000E+00 -0.23982103776E+04  0.23982103776E+04  0.00000000000E+00 0. -1.
         23    2    1    2    0    0 -0.99080698345E+02 -0.22052355814E+04  0.13246984629E+04  0.25761200228E+04  0.93206221854E+02 0.  0.
         13    1    3    3    0    0 -0.11459504157E+03 -0.17748996627E+04  0.10521252859E+04  0.20664869836E+04  0.00000000000E+00 0.  1.
        -13    1    3    3    0    0  0.15514343228E+02 -0.43033591870E+03  0.27257317706E+03  0.50963303918E+03  0.00000000000E+00 0. -1.
         22    1    1    2    0    0  0.99080698345E+02  0.22052355814E+04 -0.10852101674E+04  0.24597890279E+04  0.00000000000E+00 0. -1.
<mgrwt>
<rscale>  0 0.50302113E+04</rscale>
<asrwt>0</asrwt>
<pdfrwt beam="1">  1        2 0.36895545E+00 0.50302113E+04</pdfrwt>
<pdfrwt beam="2">  1       -2 0.40579979E+00 0.50302113E+04</pdfrwt>
<totfact> 0.19699111E-02</totfact>
</mgrwt>
</event>
<event>
 6    1  0.1588846E-005  0.2142696E+04  0.7818608E-02  0.8542665E-01
         -1   -1    0    0    0  501 -0.00000000000E+00  0.00000000000E+00  0.63165796863E+03  0.63165796863E+03  0.00000000000E+00 0.  1.
          1   -1    0    0  501    0  0.00000000000E+00 -0.00000000000E+00 -0.18171013766E+04  0.18171013766E+04  0.00000000000E+00 0. -1.
         23    2    1    2    0    0  0.22730820414E+03 -0.59020678459E+03 -0.15792943457E+04  0.17036877853E+04  0.91478802649E+02 0.  0.
         11    1    3    3    0    0  0.13625637407E+03 -0.35436473548E+03 -0.82526406421E+03  0.90840571383E+03  0.00000000000E+00 0. -1.
        -11    1    3    3    0    0  0.91051830062E+02 -0.23584204911E+03 -0.75403028145E+03  0.79528207149E+03  0.00000000000E+00 0.  1.
         22    1    1    2    0    0 -0.22730820414E+03  0.59020678459E+03  0.39385093771E+03  0.74507155990E+03  0.00000000000E+00 0.  1.
<mgrwt>
<rscale>  0 0.21426960E+04</rscale>
<asrwt>0</asrwt>
<pdfrwt beam="1">  1        1 0.27955405E+00 0.21426960E+04</pdfrwt>
<pdfrwt beam="2">  1       -1 0.97178150E-01 0.21426960E+04</pdfrwt>
<totfact> 0.36968357E+00</totfact>
</mgrwt>
</event>
<event>
 6    1  0.1588846E-005  0.5493724E+04  0.7818608E-02  0.7756553E-01
          1   -1    0    0  501    0  0.00000000000E+00  0.00000000000E+00  0.33777545429E+04  0.33777545429E+04  0.00000000000E+00 0. -1.
         -1   -1    0    0    0  501 -0.00000000000E+00 -0.00000000000E+00 -0.22338068999E+04  0.22338068999E+04  0.00000000000E+00 0.  1.
         23    2    1    2    0    0  0.15922413801E+03 -0.24114986536E+04  0.19042096316E+04  0.30780507611E+04  0.87772913972E+02 0.  0.
         11    1    3    3    0    0  0.16722491914E+03 -0.20940131408E+04  0.16458005376E+04  0.26686166110E+04  0.00000000000E+00 0. -1.
        -11    1    3    3    0    0 -0.80007811299E+01 -0.31748551287E+03  0.25840909407E+03  0.40943415012E+03  0.00000000000E+00 0.  1.
         22    1    1    2    0    0 -0.15922413801E+03  0.24114986536E+04 -0.76026198858E+03  0.25335106816E+04  0.00000000000E+00 0.  1.
<mgrwt>
<rscale>  0 0.54937242E+04</rscale>
<asrwt>0</asrwt>
<pdfrwt beam="1">  1        1 0.51965455E+00 0.54937242E+04</pdfrwt>
<pdfrwt beam="2">  1       -1 0.34366260E+00 0.54937242E+04</pdfrwt>
<totfact> 0.36973525E-03</totfact>
</mgrwt>
</event>
<event>
 6    1  0.1588846E-005  0.3710974E+04  0.7818608E-02  0.8065534E-01
         -2   -1    0    0    0  501 -0.00000000000E+00  0.00000000000E+00  0.13538734262E+04  0.13538734262E+04  0.00000000000E+00 0.  1.
          2   -1    0    0  501    0  0.00000000000E+00 -0.00000000000E+00 -0.25429499624E+04  0.25429499624E+04  0.00000000000E+00 0. -1.
         23    2    1    2    0    0  0.12139494583E+04 -0.83335281021E+03  0.58822638236E+03  0.15888034888E+04  0.10067798065E+03 0.  0.
         11    1    3    3    0    0  0.41735322256E+03 -0.34332649638E+03  0.20194158731E+03  0.57692044528E+03  0.00000000000E+00 0. -1.
        -11    1    3    3    0    0  0.79659623570E+03 -0.49002631382E+03  0.38628479505E+03  0.10118830436E+04  0.00000000000E+00 0.  1.
         22    1    1    2    0    0 -0.12139494583E+04  0.83335281021E+03 -0.17773029186E+04  0.23080198998E+04  0.00000000000E+00 0. -1.
<mgrwt>
<rscale>  0 0.37109742E+04</rscale>
<asrwt>0</asrwt>
<pdfrwt beam="1">  1        2 0.39122307E+00 0.37109742E+04</pdfrwt>
<pdfrwt beam="2">  1       -2 0.20828822E+00 0.37109742E+04</pdfrwt>
<totfact> 0.31175054E-01</totfact>
</mgrwt>
</event>
<event>
 6    1  0.1588846E-005  0.3608668E+04  0.7818608E-02  0.8088509E-01
         -2   -1    0    0    0  501 -0.00000000000E+00  0.00000000000E+00  0.19815103352E+04  0.19815103352E+04  0.00000000000E+00 0.  1.
          2   -1    0    0  501    0  0.00000000000E+00 -0.00000000000E+00 -0.16429996970E+04  0.16429996970E+04  0.00000000000E+00 0. -1.
         23    2    1    2    0    0 -0.42257506930E+03  0.80565276583E+03 -0.13941474089E+04  0.16675353322E+04  0.96855656066E+02 0.  0.
         13    1    3    3    0    0 -0.98606856486E+02  0.28451162758E+03 -0.44502165158E+03  0.53732155061E+03  0.00000000000E+00 0.  1.
        -13    1    3    3    0    0 -0.32396821281E+03  0.52114113825E+03 -0.94912575736E+03  0.11302137816E+04  0.00000000000E+00 0. -1.
         22    1    1    2    0    0  0.42257506930E+03 -0.80565276583E+03  0.17326580471E+04  0.19569747000E+04  0.00000000000E+00 0.  1.
<mgrwt>
<rscale>  0 0.36086678E+04</rscale>
<asrwt>0</asrwt>
<pdfrwt beam="1">  1        2 0.25276918E+00 0.36086678E+04</pdfrwt>
<pdfrwt beam="2">  1       -2 0.30484774E+00 0.36086678E+04</pdfrwt>
<totfact> 0.25504648E-01</totfact>
</mgrwt>
</event>
<event>
 6    1  0.1588846E-005  0.3957130E+04  0.7818608E-02  0.8013251E-01
         -2   -1    0    0    0  501 -0.00000000000E+00  0.00000000000E+00  0.27161514635E+04  0.27161514635E+04  0.00000000000E+00 0.  1.
          2   -1    0    0  501    0  0.00000000000E+00 -0.00000000000E+00 -0.14412747079E+04  0.14412747079E+04  0.00000000000E+00 0. -1.
         23    2    1    2    0    0  0.14520214425E+04 -0.73467862714E+03 -0.54257368770E+03  0.17179087870E+04  0.93302942542E+02 0.  0.
         13    1    3    3    0    0  0.10389519354E+04 -0.53387338079E+03 -0.43266886625E+03  0.12456501349E+04  0.00000000000E+00 0.  1.
        -13    1    3    3    0    0  0.41306950714E+03 -0.20080524635E+03 -0.10990482145E+03  0.47225865209E+03  0.00000000000E+00 0. -1.
         22    1    1    2    0    0 -0.14520214425E+04  0.73467862714E+03  0.18174504433E+04  0.24395173844E+04  0.00000000000E+00 0.  1.
<mgrwt>
<rscale>  0 0.39571305E+04</rscale>
<asrwt>0</asrwt>
<pdfrwt beam="1">  1        2 0.22173457E+00 0.39571305E+04</pdfrwt>
<pdfrwt beam="2">  1       -2 0.41786946E+00 0.39571305E+04</pdfrwt>
<totfact> 0.61418039E-02</totfact>
</mgrwt>
</event>
<event>
 6    1  0.1588846E-005  0.2566889E+04  0.7818608E-02  0.8379536E-01
         -1   -1    0    0    0  501 -0.00000000000E+00  0.00000000000E+00  0.73282712505E+03  0.73282712505E+03  0.00000000000E+00 0.  1.
          1   -1    0    0  501    0  0.00000000000E+00 -0.00000000000E+00 -0.22477741064E+04  0.22477741064E+04  0.00000000000E+00 0. -1.
         23    2    1    2    0    0  0.16873183602E+03  0.93287244762E+03 -0.17601956338E+04  0.20013830037E+04  0.92324548693E+02 0.  0.
         11    1    3    3    0    0  0.10017660687E+03  0.31511561924E+03 -0.63488291436E+03  0.71582785710E+03  0.00000000000E+00 0.  1.
        -11    1    3    3    0    0  0.68555229145E+02  0.61775682838E+03 -0.11253127194E+04  0.12855551466E+04  0.00000000000E+00 0. -1.
         22    1    1    2    0    0 -0.16873183602E+03 -0.93287244762E+03  0.24524865244E+03  0.97921822774E+03  0.00000000000E+00 0.  1.
<mgrwt>
<rscale>  0 0.25668890E+04</rscale>
<asrwt>0</asrwt>
<pdfrwt beam="1">  1        1 0.34581140E+00 0.25668890E+04</pdfrwt>
<pdfrwt beam="2">  1       -1 0.11274264E+00 0.25668890E+04</pdfrwt>
<totfact> 0.12843972E+00</totfact>
</mgrwt>
</event>
<event>
 6    1  0.1588846E-005  0.1939791E+04  0.7818608E-02  0.8635300E-01
         -2   -1    0    0    0  501 -0.00000000000E+00  0.00000000000E+00  0.39008730732E+03  0.39008730732E+03  0.00000000000E+00 0.  1.
          2   -1    0    0  501    0  0.00000000000E+00 -0.00000000000E+00 -0.24115036219E+04  0.24115036219E+04  0.00000000000E+00 0. -1.
         23    2    1    2    0    0 -0.10859029564E+03  0.82861865955E+03 -0.30812509094E+03  0.89534657125E+03  0.91124506661E+02 0.  0.
         11    1    3    3    0    0 -0.47523652759E+02  0.27500876410E+03 -0.14757672889E+03  0.31570113844E+03  0.00000000000E+00 0.  1.
        -11    1    3    3    0    0 -0.61066642885E+02  0.55360989546E+03 -0.16054836204E+03  0.57964543281E+03  0.00000000000E+00 0. -1.
         22    1    1    2    0    0  0.10859029564E+03 -0.82861865955E+03 -0.17132912236E+04  0.19062443580E+04  0.00000000000E+00 0. -1.
<mgrwt>
<rscale>  0 0.19397907E+04</rscale>
<asrwt>0</asrwt>
<pdfrwt beam="1">  1        2 0.37100055E+00 0.19397907E+04</pdfrwt>
<pdfrwt beam="2">  1       -2 0.60013434E-01 0.19397907E+04</pdfrwt>
<totfact> 0.94675105E+00</totfact>
</mgrwt>
</event>
<event>
 6    1  0.1588846E-005  0.1274259E+04  0.7818608E-02  0.9050231E-01
          1   -1    0    0  501    0  0.00000000000E+00  0.00000000000E+00  0.36411491289E+03  0.36411491289E+03  0.00000000000E+00 0. -1.
         -1   -1    0    0    0  501 -0.00000000000E+00 -0.00000000000E+00 -0.11148507244E+04  0.11148507244E+04  0.00000000000E+00 0.  1.
         23    2    1    2    0    0 -0.34807944830E+03 -0.33030578269E+03 -0.85803455965E+03  0.98726020332E+03  0.90543862790E+02 0.  0.
         11    1    3    3    0    0 -0.16738275370E+03 -0.22064231198E+03 -0.48438349063E+03  0.55796718726E+03  0.00000000000E+00 0. -1.
        -11    1    3    3    0    0 -0.18069669461E+03 -0.10966347071E+03 -0.37365106903E+03  0.42929301606E+03  0.00000000000E+00 0.  1.
         22    1    1    2    0    0  0.34807944830E+03  0.33030578269E+03  0.10729874818E+03  0.49170543394E+03  0.00000000000E+00 0. -1.
<mgrwt>
<rscale>  0 0.12742586E+04</rscale>
<asrwt>0</asrwt>
<pdfrwt beam="1">  1        1 0.56017680E-01 0.12742586E+04</pdfrwt>
<pdfrwt beam="2">  1       -1 0.17151549E+00 0.12742586E+04</pdfrwt>
<totfact> 0.16047832E+01</totfact>
</mgrwt>
</event>
<event>
 6    1  0.1884588E-005  0.3209142E+04  0.7818608E-02  0.8186407E-01
          2   -1    0    0  501    0  0.00000000000E+00  0.00000000000E+00  0.24893927446E+04  0.24893927446E+04  0.00000000000E+00 0. -1.
         -2   -1    0    0    0  501 -0.00000000000E+00 -0.00000000000E+00 -0.10342475460E+04  0.10342475460E+04  0.00000000000E+00 0.  1.
         23    2    1    2    0    0 -0.86030020326E+03  0.13240316744E+04  0.42378541960E+03  0.16376712272E+04  0.95899175981E+02 0.  0.
         11    1    3    3    0    0 -0.47614816302E+03  0.70041104515E+03  0.18118938181E+03  0.86609600934E+03  0.00000000000E+00 0.  1.
        -11    1    3    3    0    0 -0.38415204025E+03  0.62362062921E+03  0.24259603779E+03  0.77157521782E+03  0.00000000000E+00 0. -1.
         22    1    1    2    0    0  0.86030020326E+03 -0.13240316744E+04  0.10313597790E+04  0.18859690634E+04  0.00000000000E+00 0. -1.
<mgrwt>
<rscale>  0 0.32091422E+04</rscale>
<asrwt>0</asrwt>
<pdfrwt beam="1">  1        2 0.38298350E+00 0.32091422E+04</pdfrwt>
<pdfrwt beam="2">  1       -2 0.15911501E+00 0.32091422E+04</pdfrwt>
<totfact> 0.75959119E-01</totfact>
</mgrwt>
</event>
<event>
 6    1  0.1588846E-005  0.3681655E+04  0.7818608E-02  0.8072039E-01
         -1   -1    0    0    0  501 -0.00000000000E+00  0.00000000000E+00  0.19274936138E+04  0.19274936138E+04  0.00000000000E+00 0.  1.
          1   -1    0    0  501    0  0.00000000000E+00 -0.00000000000E+00 -0.17580583048E+04  0.17580583048E+04  0.00000000000E+00 0. -1.
         23    2    1    2    0    0  0.11102080410E+04 -0.13864533635E+04  0.56615499552E+03  0.18656064982E+04  0.71702883663E+02 0.  0.
         13    1    3    3    0    0  0.76540930830E+03 -0.90416059593E+03  0.38771652166E+03  0.12464677668E+04  0.00000000000E+00 0. -1.
        -13    1    3    3    0    0  0.34479873270E+03 -0.48229276759E+03  0.17843847385E+03  0.61913873138E+03  0.00000000000E+00 0.  1.
         22    1    1    2    0    0 -0.11102080410E+04  0.13864533635E+04 -0.39671968649E+03  0.18199454204E+04  0.00000000000E+00 0.  1.
<mgrwt>
<rscale>  0 0.36816551E+04</rscale>
<asrwt>0</asrwt>
<pdfrwt beam="1">  1        1 0.27047051E+00 0.36816551E+04</pdfrwt>
<pdfrwt beam="2">  1       -1 0.29653748E+00 0.36816551E+04</pdfrwt>
<totfact> 0.12157423E-01</totfact>
</mgrwt>
</event>
<event>
 6    1  0.1588846E-005  0.5624722E+04  0.7818608E-02  0.7738757E-01
          2   -1    0    0  501    0  0.00000000000E+00  0.00000000000E+00  0.24519317546E+04  0.24519317546E+04  0.00000000000E+00 0. -1.
         -2   -1    0    0    0  501 -0.00000000000E+00 -0.00000000000E+00 -0.32257730315E+04  0.32257730315E+04  0.00000000000E+00 0.  1.
         23    2    1    2    0    0 -0.98012223967E+03 -0.88751569061E+03  0.21176963468E+04  0.24981901164E+04  0.89399858072E+02 0.  0.
         13    1    3    3    0    0 -0.34979872119E+03 -0.28097726032E+03  0.65670914188E+03  0.79534537353E+03  0.00000000000E+00 0.  1.
        -13    1    3    3    0    0 -0.63032351849E+03 -0.60653843030E+03  0.14609872049E+04  0.17028447429E+04  0.00000000000E+00 0. -1.
         22    1    1    2    0    0  0.98012223967E+03  0.88751569061E+03 -0.28915376237E+04  0.31795146697E+04  0.00000000000E+00 0.  1.
<mgrwt>
<rscale>  0 0.56247223E+04</rscale>
<asrwt>0</asrwt>
<pdfrwt beam="1">  1        2 0.37722027E+00 0.56247223E+04</pdfrwt>
<pdfrwt beam="2">  1       -2 0.49627277E+00 0.56247223E+04</pdfrwt>
<totfact> 0.45176986E-03</totfact>
</mgrwt>
</event>
<event>
 6    1  0.1588846E-005  0.1698730E+04  0.7818608E-02  0.8762089E-01
          2   -1    0    0  501    0  0.00000000000E+00  0.00000000000E+00  0.31626838262E+03  0.31626838262E+03  0.00000000000E+00 0. -1.
         -2   -1    0    0    0  501 -0.00000000000E+00 -0.00000000000E+00 -0.22810403527E+04  0.22810403527E+04  0.00000000000E+00 0.  1.
         23    2    1    2    0    0 -0.69599880322E+03 -0.48183707637E+03 -0.10279597427E+04  0.13346930172E+04  0.90127217525E+02 0.  0.
         13    1    3    3    0    0 -0.24493880035E+03 -0.17820452746E+03 -0.43621635634E+03  0.53107116196E+03  0.00000000000E+00 0. -1.
        -13    1    3    3    0    0 -0.45106000287E+03 -0.30363254891E+03 -0.59174338638E+03  0.80362185527E+03  0.00000000000E+00 0.  1.
         22    1    1    2    0    0  0.69599880322E+03  0.48183707637E+03 -0.93681222740E+03  0.12626157181E+04  0.00000000000E+00 0. -1.
<mgrwt>
<rscale>  0 0.16987300E+04</rscale>
<asrwt>0</asrwt>
<pdfrwt beam="1">  1        2 0.48656674E-01 0.16987300E+04</pdfrwt>
<pdfrwt beam="2">  1       -2 0.35092929E+00 0.16987300E+04</pdfrwt>
<totfact> 0.15190464E+00</totfact>
</mgrwt>
</event>
<event>
 6    1  0.1588846E-005  0.1653831E+04  0.7818608E-02  0.8788143E-01
         -2   -1    0    0    0  501 -0.00000000000E+00  0.00000000000E+00  0.39684538140E+03  0.39684538140E+03  0.00000000000E+00 0.  1.
          2   -1    0    0  501    0  0.00000000000E+00 -0.00000000000E+00 -0.17230628721E+04  0.17230628721E+04  0.00000000000E+00 0. -1.
         23    2    1    2    0    0 -0.57312514759E+03  0.20379054198E+03 -0.13784559567E+04  0.15093905411E+04  0.90088629223E+02 0.  0.
         13    1    3    3    0    0 -0.40601304018E+03  0.18615174273E+03 -0.98339674831E+03  0.10800778790E+04  0.00000000000E+00 0. -1.
        -13    1    3    3    0    0 -0.16711210741E+03  0.17638799254E+02 -0.39505920843E+03  0.42931266211E+03  0.00000000000E+00 0.  1.
         22    1    1    2    0    0  0.57312514759E+03 -0.20379054198E+03  0.52238466040E+02  0.61051771239E+03  0.00000000000E+00 0.  1.
<mgrwt>
<rscale>  0 0.16538314E+04</rscale>
<asrwt>0</asrwt>
<pdfrwt beam="1">  1        2 0.26508659E+00 0.16538314E+04</pdfrwt>
<pdfrwt beam="2">  1       -2 0.61053136E-01 0.16538314E+04</pdfrwt>
<totfact> 0.22693681E+01</totfact>
</mgrwt>
</event>
<event>
 6    1  0.1588846E-005  0.1603464E+04  0.7818608E-02  0.8818423E-01
         -2   -1    0    0    0  501 -0.00000000000E+00  0.00000000000E+00  0.54708800109E+03  0.54708800109E+03  0.00000000000E+00 0.  1.
          2   -1    0    0  501    0  0.00000000000E+00 -0.00000000000E+00 -0.11749006014E+04  0.11749006014E+04  0.00000000000E+00 0. -1.
         23    2    1    2    0    0  0.49994361485E+03  0.55186606470E+02 -0.98198225227E+03  0.11068257607E+04  0.88232313466E+02 0.  0.
         11    1    3    3    0    0  0.85532576156E+02  0.28819888599E+02 -0.24216682424E+03  0.25843989306E+03  0.00000000000E+00 0.  1.
        -11    1    3    3    0    0  0.41441103870E+03  0.26366717871E+02 -0.73981542803E+03  0.84838586761E+03  0.00000000000E+00 0. -1.
         22    1    1    2    0    0 -0.49994361485E+03 -0.55186606470E+02  0.35416965197E+03  0.61516284181E+03  0.00000000000E+00 0.  1.
<mgrwt>
<rscale>  0 0.16034638E+04</rscale>
<asrwt>0</asrwt>
<pdfrwt beam="1">  1        2 0.18075394E+00 0.16034638E+04</pdfrwt>
<pdfrwt beam="2">  1       -2 0.84167385E-01 0.16034638E+04</pdfrwt>
<totfact> 0.23168961E+01</totfact>
</mgrwt>
</event>
<event>
 6    1  0.1588846E-005  0.1765275E+04  0.7818608E-02  0.8724987E-01
         -1   -1    0    0    0  501 -0.00000000000E+00  0.00000000000E+00  0.49408369587E+03  0.49408369587E+03  0.00000000000E+00 0.  1.
          1   -1    0    0  501    0  0.00000000000E+00 -0.00000000000E+00 -0.15767548759E+04  0.15767548759E+04  0.00000000000E+00 0. -1.
         23    2    1    2    0    0 -0.78965784670E+03  0.16241696459E+03 -0.12778391712E+03  0.82113921988E+03  0.89454478416E+02 0.  0.
         11    1    3    3    0    0 -0.24358083197E+03  0.44586681269E+02 -0.80998979418E+02  0.26053872748E+03  0.00000000000E+00 0. -1.
        -11    1    3    3    0    0 -0.54607701472E+03  0.11783028332E+03 -0.46784937701E+02  0.56060049239E+03  0.00000000000E+00 0.  1.
         22    1    1    2    0    0  0.78965784670E+03 -0.16241696459E+03 -0.95488726287E+03  0.12496993519E+04  0.00000000000E+00 0.  1.
<mgrwt>
<rscale>  0 0.17652749E+04</rscale>
<asrwt>0</asrwt>
<pdfrwt beam="1">  1        1 0.24257767E+00 0.17652749E+04</pdfrwt>
<pdfrwt beam="2">  1       -1 0.76012877E-01 0.17652749E+04</pdfrwt>
<totfact> 0.95235559E+00</totfact>
</mgrwt>
</event>
<event>
 6    1  0.1588846E-005  0.4075338E+04  0.7818608E-02  0.7989519E-01
          4   -1    0    0  501    0  0.00000000000E+00  0.00000000000E+00  0.27820807229E+04  0.27820807229E+04  0.00000000000E+00 0. -1.
         -4   -1    0    0    0  501 -0.00000000000E+00 -0.00000000000E+00 -0.14924420950E+04  0.14924420950E+04  0.00000000000E+00 0.  1.
         23    2    1    2    0    0  0.75508938556E+03 -0.18437975088E+04  0.20262816832E+03  0.20048662419E+04  0.93173169536E+02 0.  0.
         13    1    3    3    0    0  0.64509817424E+03 -0.14909442402E+04  0.18214972243E+03  0.16347002487E+04  0.00000000000E+00 0. -1.
        -13    1    3    3    0    0  0.10999121132E+03 -0.35285326865E+03  0.20478445885E+02  0.37016599318E+03  0.00000000000E+00 0.  1.
         22    1    1    2    0    0 -0.75508938556E+03  0.18437975088E+04  0.10870104595E+04  0.22696565760E+04  0.00000000000E+00 0. -1.
<mgrwt>
<rscale>  0 0.40753377E+04</rscale>
<asrwt>0</asrwt>
<pdfrwt beam="1">  1        4 0.42801242E+00 0.40753377E+04</pdfrwt>
<pdfrwt beam="2">  1       -4 0.22960648E+00 0.40753377E+04</pdfrwt>
<totfact> 0.55871035E-04</totfact>
</mgrwt>
</event>
<event>
 6    1  0.1588846E-005  0.2215630E+04  0.7818608E-02  0.8511951E-01
         -2   -1    0    0    0  501 -0.00000000000E+00  0.00000000000E+00  0.84188827881E+03  0.84188827881E+03  0.00000000000E+00 0.  1.
          2   -1    0    0  501    0  0.00000000000E+00 -0.00000000000E+00 -0.14577396839E+04  0.14577396839E+04  0.00000000000E+00 0. -1.
         23    2    1    2    0    0 -0.33392686025E+03  0.56483803034E+03 -0.12324950200E+04  0.13991844628E+04  0.90133446741E+02 0.  0.
         13    1    3    3    0    0 -0.15927376847E+03  0.20472223905E+03 -0.54747999072E+03  0.60581653058E+03  0.00000000000E+00 0.  1.
        -13    1    3    3    0    0 -0.17465309179E+03  0.36011579129E+03 -0.68501502929E+03  0.79336793227E+03  0.00000000000E+00 0. -1.
         22    1    1    2    0    0  0.33392686025E+03 -0.56483803034E+03  0.61664361495E+03  0.90044349982E+03  0.00000000000E+00 0.  1.
<mgrwt>
<rscale>  0 0.22156299E+04</rscale>
<asrwt>0</asrwt>
<pdfrwt beam="1">  1        2 0.22426764E+00 0.22156299E+04</pdfrwt>
<pdfrwt beam="2">  1       -2 0.12952127E+00 0.22156299E+04</pdfrwt>
<totfact> 0.53688316E+00</totfact>
</mgrwt>
</event>
<event>
 6    1  0.1588846E-005  0.2502130E+04  0.7818608E-02  0.8402227E-01
          2   -1    0    0  501    0  0.00000000000E+00  0.00000000000E+00  0.36275876337E+03  0.36275876337E+03  0.00000000000E+00 0. -1.
         -2   -1    0    0    0  501 -0.00000000000E+00 -0.00000000000E+00 -0.43146123701E+04  0.43146123701E+04  0.00000000000E+00 0.  1.
         23    2    1    2    0    0  0.54813408347E+03 -0.55951239177E+03 -0.37981727235E+04  0.38791713440E+04  0.91373895494E+02 0.  0.
         13    1    3    3    0    0  0.10788151373E+03 -0.66542008022E+02 -0.68162508766E+03  0.69331019030E+03  0.00000000000E+00 0. -1.
        -13    1    3    3    0    0  0.44025256974E+03 -0.49297038374E+03 -0.31165476359E+04  0.31858611538E+04  0.00000000000E+00 0.  1.
         22    1    1    2    0    0 -0.54813408347E+03  0.55951239177E+03 -0.15368088324E+03  0.79819978945E+03  0.00000000000E+00 0. -1.
<mgrwt>
<rscale>  0 0.25021299E+04</rscale>
<asrwt>0</asrwt>
<pdfrwt beam="1">  1        2 0.55809039E-01 0.25021299E+04</pdfrwt>
<pdfrwt beam="2">  1       -2 0.66378654E+00 0.25021299E+04</pdfrwt>
<totfact> 0.23576602E-02</totfact>
</mgrwt>
</event>
<event>
 6    1  0.1588846E-005  0.1235257E+04  0.7818608E-02  0.9082543E-01
         -1   -1    0    0    0  501 -0.00000000000E+00  0.00000000000E+00  0.30706743989E+03  0.30706743989E+03  0.00000000000E+00 0.  1.
          1   -1    0    0  501    0  0.00000000000E+00 -0.00000000000E+00 -0.12422849527E+04  0.12422849527E+04  0.00000000000E+00 0. -1.
         23    2    1    2    0    0 -0.28383029274E+03 -0.52760746371E+03 -0.63982376359E+03  0.88138028396E+03  0.92344386199E+02 0.  0.
         13    1    3    3    0    0 -0.25929543198E+03 -0.40390498069E+03 -0.51305698449E+03  0.70256730909E+03  0.00000000000E+00 0.  1.
        -13    1    3    3    0    0 -0.24534860759E+02 -0.12370248302E+03 -0.12676677910E+03  0.17881297487E+03  0.00000000000E+00 0. -1.
         22    1    1    2    0    0  0.28383029274E+03  0.52760746371E+03 -0.29539374923E+03  0.66797210865E+03  0.00000000000E+00 0.  1.
<mgrwt>
<rscale>  0 0.12352575E+04</rscale>
<asrwt>0</asrwt>
<pdfrwt beam="1">  1        1 0.19112076E+00 0.12352575E+04</pdfrwt>
<pdfrwt beam="2">  1       -1 0.47241145E-01 0.12352575E+04</pdfrwt>
<totfact> 0.43912954E+01</totfact>
</mgrwt>
</event>
<event>
 6    1  0.1588846E-005  0.1654247E+04  0.7818608E-02  0.8787898E-01
          1   -1    0    0  501    0  0.00000000000E+00  0.00000000000E+00  0.13881543956E+04  0.13881543956E+04  0.00000000000E+00 0. -1.
         -1   -1    0    0    0  501 -0.00000000000E+00 -0.00000000000E+00 -0.49283643197E+03  0.49283643197E+03  0.00000000000E+00 0.  1.
         23    2    1    2    0    0 -0.48262126926E+03  0.30473896061E+03  0.11258405968E+04  0.12654180796E+04  0.89312614173E+02 0.  0.
         11    1    3    3    0    0 -0.40341176529E+02  0.50388131266E+02  0.90112284038E+02  0.11084492785E+03  0.00000000000E+00 0. -1.
        -11    1    3    3    0    0 -0.44228009273E+03  0.25435082934E+03  0.10357283128E+04  0.11545731517E+04  0.00000000000E+00 0.  1.
         22    1    1    2    0    0  0.48262126926E+03 -0.30473896061E+03 -0.23052263318E+03  0.61557274799E+03  0.00000000000E+00 0.  1.
<mgrwt>
<rscale>  0 0.16542467E+04</rscale>
<asrwt>0</asrwt>
<pdfrwt beam="1">  1        1 0.21356221E+00 0.16542467E+04</pdfrwt>
<pdfrwt beam="2">  1       -1 0.75820990E-01 0.16542467E+04</pdfrwt>
<totfact> 0.13073649E+01</totfact>
</mgrwt>
</event>
<event>
 6    1  0.1588846E-005  0.1997963E+04  0.7818608E-02  0.8607574E-01
         -2   -1    0    0    0  501 -0.00000000000E+00  0.00000000000E+00  0.34699314420E+03  0.34699314420E+03  0.00000000000E+00 0.  1.
          2   -1    0    0  501    0  0.00000000000E+00 -0.00000000000E+00 -0.28760337225E+04  0.28760337225E+04  0.00000000000E+00 0. -1.
         23    2    1    2    0    0  0.26201140038E+03 -0.86955062028E+03 -0.19304387795E+04  0.21353263709E+04  0.90865689077E+02 0.  0.
         13    1    3    3    0    0  0.94228070946E+02 -0.19376925646E+03 -0.49836701139E+03  0.54295039566E+03  0.00000000000E+00 0.  1.
        -13    1    3    3    0    0  0.16778332943E+03 -0.67578136382E+03 -0.14320717682E+04  0.15923759752E+04  0.00000000000E+00 0. -1.
         22    1    1    2    0    0 -0.26201140038E+03  0.86955062028E+03 -0.59860179877E+03  0.10877004958E+04  0.00000000000E+00 0.  1.
<mgrwt>
<rscale>  0 0.19979629E+04</rscale>
<asrwt>0</asrwt>
<pdfrwt beam="1">  1        2 0.44246672E+00 0.19979629E+04</pdfrwt>
<pdfrwt beam="2">  1       -2 0.53383562E-01 0.19979629E+04</pdfrwt>
<totfact> 0.63994449E+00</totfact>
</mgrwt>
</event>
<event>
 6    1  0.1588846E-005  0.2339907E+04  0.7818608E-02  0.8462350E-01
          1   -1    0    0  501    0  0.00000000000E+00  0.00000000000E+00  0.15273121222E+04  0.15273121222E+04  0.00000000000E+00 0. -1.
         -1   -1    0    0    0  501 -0.00000000000E+00 -0.00000000000E+00 -0.89620923433E+03  0.89620923433E+03  0.00000000000E+00 0.  1.
         23    2    1    2    0    0  0.26950566721E+03 -0.10987742694E+04  0.61730530594E+03  0.12920936863E+04  0.92206581653E+02 0.  0.
         11    1    3    3    0    0  0.22497699882E+03 -0.80587339946E+03  0.42045097674E+03  0.93638966771E+03  0.00000000000E+00 0. -1.
        -11    1    3    3    0    0  0.44528668388E+02 -0.29290086991E+03  0.19685432920E+03  0.35570401857E+03  0.00000000000E+00 0.  1.
         22    1    1    2    0    0 -0.26950566721E+03  0.10987742694E+04  0.13797581912E+02  0.11314276702E+04  0.00000000000E+00 0.  1.
<mgrwt>
<rscale>  0 0.23399070E+04</rscale>
<asrwt>0</asrwt>
<pdfrwt beam="1">  1        1 0.23497110E+00 0.23399070E+04</pdfrwt>
<pdfrwt beam="2">  1       -1 0.13787834E+00 0.23399070E+04</pdfrwt>
<totfact> 0.24608470E+00</totfact>
</mgrwt>
</event>
<event>
 6    1  0.1588846E-005  0.8717335E+03  0.7818608E-02  0.9461622E-01
          2   -1    0    0  501    0  0.00000000000E+00  0.00000000000E+00  0.97974357272E+03  0.97974357272E+03  0.00000000000E+00 0. -1.
         -2   -1    0    0    0  501 -0.00000000000E+00 -0.00000000000E+00 -0.19390770325E+03  0.19390770325E+03  0.00000000000E+00 0.  1.
         23    2    1    2    0    0  0.20755823582E+03  0.17892876205E+03 -0.51126657505E+02  0.29296847569E+03  0.90114757355E+02 0.  0.
         11    1    3    3    0    0  0.19865670128E+03  0.13004318503E+03 -0.52860874085E+02  0.24324881695E+03  0.00000000000E+00 0. -1.
        -11    1    3    3    0    0  0.89015345346E+01  0.48885577024E+02  0.17342165800E+01  0.49719658740E+02  0.00000000000E+00 0.  1.
         22    1    1    2    0    0 -0.20755823582E+03 -0.17892876205E+03  0.83696252698E+03  0.88068280028E+03  0.00000000000E+00 0. -1.
<mgrwt>
<rscale>  0 0.87173351E+03</rscale>
<asrwt>0</asrwt>
<pdfrwt beam="1">  1        2 0.15072978E+00 0.87173351E+03</pdfrwt>
<pdfrwt beam="2">  1       -2 0.29831955E-01 0.87173351E+03</pdfrwt>
<totfact> 0.26957891E+02</totfact>
</mgrwt>
</event>
<event>
 6    1  0.1588846E-005  0.3020657E+04  0.7818608E-02  0.8237857E-01
          2   -1    0    0  501    0  0.00000000000E+00  0.00000000000E+00  0.38933515107E+04  0.38933515107E+04  0.00000000000E+00 0. -1.
         -2   -1    0    0    0  501 -0.00000000000E+00 -0.00000000000E+00 -0.58589419135E+03  0.58589419135E+03  0.00000000000E+00 0.  1.
         23    2    1    2    0    0 -0.50840821383E+03  0.39454083514E+03  0.36791271441E+04  0.37360903744E+04  0.90848010922E+02 0.  0.
         13    1    3    3    0    0 -0.40881036196E+03  0.35545116336E+03  0.31519643172E+04  0.31981792474E+04  0.00000000000E+00 0.  1.
        -13    1    3    3    0    0 -0.99597851872E+02  0.39089671781E+02  0.52716282686E+03  0.53791112701E+03  0.00000000000E+00 0. -1.
         22    1    1    2    0    0  0.50840821383E+03 -0.39454083514E+03 -0.37166982467E+03  0.74315532768E+03  0.00000000000E+00 0.  1.
<mgrwt>
<rscale>  0 0.30206569E+04</rscale>
<asrwt>0</asrwt>
<pdfrwt beam="1">  1        2 0.59897714E+00 0.30206569E+04</pdfrwt>
<pdfrwt beam="2">  1       -2 0.90137570E-01 0.30206569E+04</pdfrwt>
<totfact> 0.37411556E-01</totfact>
</mgrwt>
</event>
<event>
 6    1  0.1588846E-005  0.1512709E+04  0.7818608E-02  0.8876045E-01
          2   -1    0    0  501    0  0.00000000000E+00  0.00000000000E+00  0.41788926957E+04  0.41788926957E+04  0.00000000000E+00 0.  1.
         -2   -1    0    0    0  501 -0.00000000000E+00 -0.00000000000E+00 -0.13689558538E+03  0.13689558538E+03  0.00000000000E+00 0. -1.
         23    2    1    2    0    0  0.71834005568E+03  0.14670255857E+03  0.15329812704E+04  0.17018459402E+04  0.93348554537E+02 0.  0.
         13    1    3    3    0    0  0.53262114982E+03  0.14365967453E+03  0.11950270063E+04  0.13162115852E+04  0.00000000000E+00 0. -1.
        -13    1    3    3    0    0  0.18571890586E+03  0.30428840368E+01  0.33795426409E+03  0.38563435500E+03  0.00000000000E+00 0.  1.
         22    1    1    2    0    0 -0.71834005568E+03 -0.14670255857E+03  0.25090158399E+04  0.26139423408E+04  0.00000000000E+00 0. -1.
<mgrwt>
<rscale>  0 0.15127088E+04</rscale>
<asrwt>0</asrwt>
<pdfrwt beam="1">  1        2 0.64290647E+00 0.15127088E+04</pdfrwt>
<pdfrwt beam="2">  1       -2 0.21060863E-01 0.15127088E+04</pdfrwt>
<totfact> 0.46931614E+00</totfact>
</mgrwt>
</event>
<event>
 6    1  0.1588846E-005  0.3326338E+04  0.7818608E-02  0.8156226E-01
         -2   -1    0    0    0  501 -0.00000000000E+00  0.00000000000E+00  0.15861622489E+04  0.15861622489E+04  0.00000000000E+00 0.  1.
          2   -1    0    0  501    0  0.00000000000E+00 -0.00000000000E+00 -0.17439138703E+04  0.17439138703E+04  0.00000000000E+00 0. -1.
         23    2    1    2    0    0  0.72047683464E+03 -0.80434290851E+03 -0.13437280716E+04  0.17261451593E+04  0.88980879073E+02 0.  0.
         13    1    3    3    0    0  0.40230670727E+03 -0.38248311883E+03 -0.68950512405E+03  0.88519000164E+03  0.00000000000E+00 0.  1.
        -13    1    3    3    0    0  0.31817012738E+03 -0.42185978968E+03 -0.65422294752E+03  0.84095515764E+03  0.00000000000E+00 0. -1.
         22    1    1    2    0    0 -0.72047683464E+03  0.80434290851E+03  0.11859764502E+04  0.16039309599E+04  0.00000000000E+00 0.  1.
<mgrwt>
<rscale>  0 0.33263375E+04</rscale>
<asrwt>0</asrwt>
<pdfrwt beam="1">  1        2 0.26829444E+00 0.33263375E+04</pdfrwt>
<pdfrwt beam="2">  1       -2 0.24402496E+00 0.33263375E+04</pdfrwt>
<totfact> 0.54047455E-01</totfact>
</mgrwt>
</event>
<event>
 6    1  0.3027177E-005  0.4604888E+04  0.7818608E-02  0.7892527E-01
         -2   -1    0    0    0  501 -0.00000000000E+00  0.00000000000E+00  0.24085261107E+04  0.24085261107E+04  0.00000000000E+00 0. -1.
          2   -1    0    0  501    0  0.00000000000E+00 -0.00000000000E+00 -0.22010339377E+04  0.22010339377E+04  0.00000000000E+00 0.  1.
         23    2    1    2    0    0  0.19791984822E+04  0.96902067156E+03  0.76845412099E+03  0.23355974276E+04  0.90917071081E+02 0.  0.
         11    1    3    3    0    0  0.52274059223E+03  0.23294134267E+03  0.23586088516E+03  0.61899091515E+03  0.00000000000E+00 0. -1.
        -11    1    3    3    0    0  0.14564578899E+04  0.73607932890E+03  0.53259323583E+03  0.17166065124E+04  0.00000000000E+00 0.  1.
         22    1    1    2    0    0 -0.19791984822E+04 -0.96902067156E+03 -0.56096194796E+03  0.22739626208E+04  0.00000000000E+00 0.  1.
<mgrwt>
<rscale>  0 0.46048877E+04</rscale>
<asrwt>0</asrwt>
<pdfrwt beam="1">  1        2 0.33862061E+00 0.46048877E+04</pdfrwt>
<pdfrwt beam="2">  1       -2 0.37054248E+00 0.46048877E+04</pdfrwt>
<totfact> 0.44626213E-02</totfact>
</mgrwt>
</event>
<event>
 6    1  0.1588846E-005  0.3463102E+04  0.7818608E-02  0.8122590E-01
          1   -1    0    0  501    0  0.00000000000E+00  0.00000000000E+00  0.15622317857E+04  0.15622317857E+04  0.00000000000E+00 0. -1.
         -1   -1    0    0    0  501 -0.00000000000E+00 -0.00000000000E+00 -0.19192212940E+04  0.19192212940E+04  0.00000000000E+00 0.  1.
         23    2    1    2    0    0  0.14139240094E+04 -0.88062095785E+03  0.29232324037E+03  0.16936383741E+04  0.91014776619E+02 0.  0.
         13    1    3    3    0    0  0.33593260580E+03 -0.25539490649E+03  0.68568551942E+02  0.42752651405E+03  0.00000000000E+00 0. -1.
        -13    1    3    3    0    0  0.10779914036E+04 -0.62522605136E+03  0.22375468843E+03  0.12661118601E+04  0.00000000000E+00 0.  1.
         22    1    1    2    0    0 -0.14139240094E+04  0.88062095785E+03 -0.64931274863E+03  0.17878147056E+04  0.00000000000E+00 0.  1.
<mgrwt>
<rscale>  0 0.34631018E+04</rscale>
<asrwt>0</asrwt>
<pdfrwt beam="1">  1        1 0.24034335E+00 0.34631018E+04</pdfrwt>
<pdfrwt beam="2">  1       -1 0.29526481E+00 0.34631018E+04</pdfrwt>
<totfact> 0.17182311E-01</totfact>
</mgrwt>
</event>
<event>
 6    1  0.1588846E-005  0.3428990E+04  0.7818608E-02  0.8130828E-01
         -2   -1    0    0    0  501 -0.00000000000E+00  0.00000000000E+00  0.10179539667E+04  0.10179539667E+04  0.00000000000E+00 0.  1.
          2   -1    0    0  501    0  0.00000000000E+00 -0.00000000000E+00 -0.28876487130E+04  0.28876487130E+04  0.00000000000E+00 0. -1.
         23    2    1    2    0    0 -0.61359866077E+03  0.93758966551E+03 -0.24116907227E+04  0.26608788807E+04  0.91905269865E+02 0.  0.
         13    1    3    3    0    0 -0.24602998073E+03  0.44705889845E+03 -0.11526787839E+04  0.12605795449E+04  0.00000000000E+00 0. -1.
        -13    1    3    3    0    0 -0.36756868005E+03  0.49053076706E+03 -0.12590119388E+04  0.14002993359E+04  0.00000000000E+00 0.  1.
         22    1    1    2    0    0  0.61359866077E+03 -0.93758966551E+03  0.54199597631E+03  0.12447237990E+04  0.00000000000E+00 0.  1.
<mgrwt>
<rscale>  0 0.34289902E+04</rscale>
<asrwt>0</asrwt>
<pdfrwt beam="1">  1        2 0.44425365E+00 0.34289902E+04</pdfrwt>
<pdfrwt beam="2">  1       -2 0.15660830E+00 0.34289902E+04</pdfrwt>
<totfact> 0.45088485E-01</totfact>
</mgrwt>
</event>
<event>
 6    1  0.1588846E-005  0.1128638E+04  0.7818608E-02  0.9177720E-01
          1   -1    0    0  501    0  0.00000000000E+00  0.00000000000E+00  0.59237337008E+03  0.59237337008E+03  0.00000000000E+00 0. -1.
         -1   -1    0    0    0  501 -0.00000000000E+00 -0.00000000000E+00 -0.53759372865E+03  0.53759372865E+03  0.00000000000E+00 0.  1.
         23    2    1    2    0    0  0.10319379887E+03 -0.55125150201E+03  0.21736710920E+02  0.56816730000E+03  0.88399194526E+02 0.  0.
         11    1    3    3    0    0  0.95332092256E+02 -0.26936966922E+03  0.86549783600E+01  0.28587258553E+03  0.00000000000E+00 0. -1.
        -11    1    3    3    0    0  0.78617066147E+01 -0.28188183279E+03  0.13081732560E+02  0.28229471447E+03  0.00000000000E+00 0.  1.
         22    1    1    2    0    0 -0.10319379887E+03  0.55125150201E+03  0.33042930500E+02  0.56179979873E+03  0.00000000000E+00 0. -1.
<mgrwt>
<rscale>  0 0.11286385E+04</rscale>
<asrwt>0</asrwt>
<pdfrwt beam="1">  1        1 0.91134365E-01 0.11286385E+04</pdfrwt>
<pdfrwt beam="2">  1       -1 0.82706727E-01 0.11286385E+04</pdfrwt>
<totfact> 0.50430143E+01</totfact>
</mgrwt>
</event>
<event>
 6    1  0.1588846E-005  0.6244167E+04  0.7818608E-02  0.7660844E-01
         -1   -1    0    0    0  501 -0.00000000000E+00  0.00000000000E+00  0.35980281087E+04  0.35980281087E+04  0.00000000000E+00 0.  1.
          1   -1    0    0  501    0  0.00000000000E+00 -0.00000000000E+00 -0.27090969388E+04  0.27090969388E+04  0.00000000000E+00 0. -1.
         23    2    1    2    0    0 -0.20601323777E+04  0.22426535680E+04 -0.24810148432E+03  0.30565122289E+04  0.84096485291E+02 0.  0.
         13    1    3    3    0    0 -0.11274689107E+04  0.12809076963E+04 -0.11817467001E+03  0.17105191971E+04  0.00000000000E+00 0.  1.
        -13    1    3    3    0    0 -0.93266346699E+03  0.96174587166E+03 -0.12992681430E+03  0.13459930317E+04  0.00000000000E+00 0. -1.
         22    1    1    2    0    0  0.20601323777E+04 -0.22426535680E+04  0.11370326543E+04  0.32506128186E+04  0.00000000000E+00 0. -1.
<mgrwt>
<rscale>  0 0.62441675E+04</rscale>
<asrwt>0</asrwt>
<pdfrwt beam="1">  1        1 0.41678414E+00 0.62441675E+04</pdfrwt>
<pdfrwt beam="2">  1       -1 0.55354279E+00 0.62441675E+04</pdfrwt>
<totfact> 0.46499971E-04</totfact>
</mgrwt>
</event>
<event>
 6    1  0.1637070E-005  0.3854592E+04  0.7818608E-02  0.8034540E-01
         -2   -1    0    0    0  501 -0.00000000000E+00  0.00000000000E+00  0.21796370093E+04  0.21796370093E+04  0.00000000000E+00 0. -1.
          2   -1    0    0  501    0  0.00000000000E+00 -0.00000000000E+00 -0.17041687558E+04  0.17041687558E+04  0.00000000000E+00 0.  1.
         23    2    1    2    0    0  0.10831262697E+04  0.44361090833E+03  0.17794494303E+04  0.21315728858E+04  0.84909001519E+02 0.  0.
         11    1    3    3    0    0  0.53705551307E+03  0.18442500165E+03  0.81327422714E+03  0.99189524340E+03  0.00000000000E+00 0. -1.
        -11    1    3    3    0    0  0.54607075662E+03  0.25918590668E+03  0.96617520311E+03  0.11396776424E+04  0.00000000000E+00 0.  1.
         22    1    1    2    0    0 -0.10831262697E+04 -0.44361090833E+03 -0.13039811768E+04  0.17522328793E+04  0.00000000000E+00 0.  1.
<mgrwt>
<rscale>  0 0.38545917E+04</rscale>
<asrwt>0</asrwt>
<pdfrwt beam="1">  1        2 0.26217981E+00 0.38545917E+04</pdfrwt>
<pdfrwt beam="2">  1       -2 0.33532877E+00 0.38545917E+04</pdfrwt>
<totfact> 0.14971209E-01</totfact>
</mgrwt>
</event>
<event>
 6    1  0.1588846E-005  0.2488179E+04  0.7818608E-02  0.8407209E-01
         -2   -1    0    0    0  501 -0.00000000000E+00  0.00000000000E+00  0.65826134138E+03  0.65826134138E+03  0.00000000000E+00 0.  1.
          2   -1    0    0  501    0  0.00000000000E+00 -0.00000000000E+00 -0.23512825774E+04  0.23512825774E+04  0.00000000000E+00 0. -1.
         23    2    1    2    0    0  0.66312242958E+03  0.56734695059E+03 -0.19172849021E+04  0.21084844808E+04  0.90063816507E+02 0.  0.
         13    1    3    3    0    0  0.27072691559E+03  0.19226988844E+03 -0.80559220628E+03  0.87134354627E+03  0.00000000000E+00 0.  1.
        -13    1    3    3    0    0  0.39239551400E+03  0.37507706215E+03 -0.11116926958E+04  0.12371409345E+04  0.00000000000E+00 0. -1.
         22    1    1    2    0    0 -0.66312242958E+03 -0.56734695059E+03  0.22426366602E+03  0.90105943802E+03  0.00000000000E+00 0.  1.
<mgrwt>
<rscale>  0 0.24881788E+04</rscale>
<asrwt>0</asrwt>
<pdfrwt beam="1">  1        2 0.36173577E+00 0.24881788E+04</pdfrwt>
<pdfrwt beam="2">  1       -2 0.10127098E+00 0.24881788E+04</pdfrwt>
<totfact> 0.30327984E+00</totfact>
</mgrwt>
</event>
<event>
 6    1  0.1588846E-005  0.1177307E+04  0.7818608E-02  0.9132954E-01
         -1   -1    0    0    0  501 -0.00000000000E+00  0.00000000000E+00  0.41402979741E+03  0.41402979741E+03  0.00000000000E+00 0.  1.
          1   -1    0    0  501    0  0.00000000000E+00 -0.00000000000E+00 -0.83692824265E+03  0.83692824265E+03  0.00000000000E+00 0. -1.
         23    2    1    2    0    0 -0.54279990030E+03  0.19889126270E+03 -0.30788455925E+03  0.66153657785E+03  0.92996106727E+02 0.  0.
         11    1    3    3    0    0 -0.45297553957E+03  0.19964821142E+03 -0.24889331059E+03  0.55407050800E+03  0.00000000000E+00 0. -1.
        -11    1    3    3    0    0 -0.89824360728E+02 -0.75694872516E+00 -0.58991248652E+02  0.10746606985E+03  0.00000000000E+00 0.  1.
         22    1    1    2    0    0  0.54279990030E+03 -0.19889126270E+03 -0.11501388599E+03  0.58942146221E+03  0.00000000000E+00 0.  1.
<mgrwt>
<rscale>  0 0.11773075E+04</rscale>
<asrwt>0</asrwt>
<pdfrwt beam="1">  1        1 0.12875819E+00 0.11773075E+04</pdfrwt>
<pdfrwt beam="2">  1       -1 0.63696893E-01 0.11773075E+04</pdfrwt>
<totfact> 0.50918859E+01</totfact>
</mgrwt>
</event>
<event>
 6    1  0.1588846E-005  0.9152755E+03  0.7818608E-02  0.9406685E-01
          1   -1    0    0  501    0  0.00000000000E+00  0.00000000000E+00  0.41175213603E+03  0.41175213603E+03  0.00000000000E+00 0. -1.
         -1   -1    0    0    0  501 -0.00000000000E+00 -0.00000000000E+00 -0.50863682208E+03  0.50863682208E+03  0.00000000000E+00 0.  1.
         23    2    1    2    0    0  0.45060113024E+03 -0.16620664259E+02 -0.54456042532E+01  0.46030338919E+03  0.92368449401E+02 0.  0.
         13    1    3    3    0    0  0.44538255698E+03 -0.65141931129E+01 -0.14650535066E+02  0.44567106138E+03  0.00000000000E+00 0. -1.
        -13    1    3    3    0    0  0.52185732539E+01 -0.10106471146E+02  0.92049308129E+01  0.14632327809E+02  0.00000000000E+00 0.  1.
         22    1    1    2    0    0 -0.45060113024E+03  0.16620664259E+02 -0.91439081797E+02  0.46008556892E+03  0.00000000000E+00 0.  1.
<mgrwt>
<rscale>  0 0.91527547E+03</rscale>
<asrwt>0</asrwt>
<pdfrwt beam="1">  1        1 0.63346482E-01 0.91527547E+03</pdfrwt>
<pdfrwt beam="2">  1       -1 0.78251819E-01 0.91527547E+03</pdfrwt>
<totfact> 0.95097256E+01</totfact>
</mgrwt>
</event>
<event>
 6    1  0.1588846E-005  0.8609770E+03  0.7818608E-02  0.9475721E-01
          1   -1    0    0  501    0  0.00000000000E+00  0.00000000000E+00  0.15933576238E+04  0.15933576238E+04  0.00000000000E+00 0. -1.
         -1   -1    0    0    0  501 -0.00000000000E+00 -0.00000000000E+00 -0.11630807677E+03  0.11630807677E+03  0.00000000000E+00 0.  1.
         23    2    1    2    0    0  0.16392968645E+03  0.29320482243E+03  0.12658808755E+04  0.13128858903E+04  0.91503879300E+02 0.  0.
         13    1    3    3    0    0  0.49999124262E+01  0.90212352001E+02  0.32695352530E+03  0.33920771702E+03  0.00000000000E+00 0.  1.
        -13    1    3    3    0    0  0.15892977403E+03  0.20299247043E+03  0.93892735022E+03  0.97367817327E+03  0.00000000000E+00 0. -1.
         22    1    1    2    0    0 -0.16392968645E+03 -0.29320482243E+03  0.21116867146E+03  0.39677981023E+03  0.00000000000E+00 0.  1.
<mgrwt>
<rscale>  0 0.86097703E+03</rscale>
<asrwt>0</asrwt>
<pdfrwt beam="1">  1        1 0.24513193E+00 0.86097703E+03</pdfrwt>
<pdfrwt beam="2">  1       -1 0.17893551E-01 0.86097703E+03</pdfrwt>
<totfact> 0.14057362E+02</totfact>
</mgrwt>
</event>
<event>
 6    1  0.1588846E-005  0.1611629E+04  0.7818608E-02  0.8813436E-01
         -1   -1    0    0    0  501 -0.00000000000E+00  0.00000000000E+00  0.66024202144E+03  0.66024202144E+03  0.00000000000E+00 0.  1.
          1   -1    0    0  501    0  0.00000000000E+00 -0.00000000000E+00 -0.98348319360E+03  0.98348319360E+03  0.00000000000E+00 0. -1.
         23    2    1    2    0    0  0.62776919298E+03  0.36274376375E+03  0.19030317004E+03  0.75524055608E+03  0.92172681549E+02 0.  0.
         11    1    3    3    0    0  0.42153167679E+03  0.28440766000E+03  0.10851509454E+03  0.51995403388E+03  0.00000000000E+00 0. -1.
        -11    1    3    3    0    0  0.20623751619E+03  0.78336103751E+02  0.81788075496E+02  0.23528652220E+03  0.00000000000E+00 0.  1.
         22    1    1    2    0    0 -0.62776919298E+03 -0.36274376375E+03 -0.51354434220E+03  0.88848465896E+03  0.00000000000E+00 0. -1.
<mgrwt>
<rscale>  0 0.16116289E+04</rscale>
<asrwt>0</asrwt>
<pdfrwt beam="1">  1        1 0.15130511E+00 0.16116289E+04</pdfrwt>
<pdfrwt beam="2">  1       -1 0.10157570E+00 0.16116289E+04</pdfrwt>
<totfact> 0.13744161E+01</totfact>
</mgrwt>
</event>
<event>
 6    1  0.1588846E-005  0.2931570E+04  0.7818608E-02  0.8263546E-01
         -2   -1    0    0    0  501 -0.00000000000E+00  0.00000000000E+00  0.14990175259E+04  0.14990175259E+04  0.00000000000E+00 0.  1.
          2   -1    0    0  501    0  0.00000000000E+00 -0.00000000000E+00 -0.14332894292E+04  0.14332894292E+04  0.00000000000E+00 0. -1.
         23    2    1    2    0    0 -0.43444481330E+03  0.92137981253E+03 -0.10194124653E+04  0.14439477598E+04  0.90001689207E+02 0.  0.
         11    1    3    3    0    0 -0.24628604475E+03  0.42118961419E+03 -0.50441471412E+03  0.70177753652E+03  0.00000000000E+00 0. -1.
        -11    1    3    3    0    0 -0.18815876855E+03  0.50019019834E+03 -0.51499775114E+03  0.74217022331E+03  0.00000000000E+00 0.  1.
         22    1    1    2    0    0  0.43444481330E+03 -0.92137981253E+03  0.10851405621E+04  0.14883591953E+04  0.00000000000E+00 0.  1.
<mgrwt>
<rscale>  0 0.29315702E+04</rscale>
<asrwt>0</asrwt>
<pdfrwt beam="1">  1        2 0.22050607E+00 0.29315702E+04</pdfrwt>
<pdfrwt beam="2">  1       -2 0.23061808E+00 0.29315702E+04</pdfrwt>
<totfact> 0.10103896E+00</totfact>
</mgrwt>
</event>
<event>
 6    1  0.1894094E-005  0.3446672E+04  0.7818608E-02  0.8126546E-01
         -2   -1    0    0    0  501 -0.00000000000E+00  0.00000000000E+00  0.10571446045E+04  0.10571446045E+04  0.00000000000E+00 0.  1.
          2   -1    0    0  501    0  0.00000000000E+00 -0.00000000000E+00 -0.28093481223E+04  0.28093481223E+04  0.00000000000E+00 0. -1.
         23    2    1    2    0    0 -0.35087903098E+03 -0.16484650264E+04 -0.12735214160E+04  0.21144397618E+04  0.91900335200E+02 0.  0.
         13    1    3    3    0    0 -0.27686456559E+03 -0.10933544214E+04 -0.84750445993E+03  0.14107947009E+04  0.00000000000E+00 0. -1.
        -13    1    3    3    0    0 -0.74014465390E+02 -0.55511060502E+03 -0.42601695605E+03  0.70364506091E+03  0.00000000000E+00 0.  1.
         22    1    1    2    0    0  0.35087903098E+03  0.16484650264E+04 -0.47868210189E+03  0.17520529650E+04  0.00000000000E+00 0.  1.
<mgrwt>
<rscale>  0 0.34466721E+04</rscale>
<asrwt>0</asrwt>
<pdfrwt beam="1">  1        2 0.43220740E+00 0.34466721E+04</pdfrwt>
<pdfrwt beam="2">  1       -2 0.16263763E+00 0.34466721E+04</pdfrwt>
<totfact> 0.45353623E-01</totfact>
</mgrwt>
</event>
<event>
 6    1  0.1588846E-005  0.5744738E+03  0.7818608E-02  0.9959827E-01
         -1   -1    0    0    0  501 -0.00000000000E+00  0.00000000000E+00  0.95781539205E+02  0.95781539205E+02  0.00000000000E+00 0.  1.
          1   -1    0    0  501    0  0.00000000000E+00 -0.00000000000E+00 -0.86138755040E+03  0.86138755040E+03  0.00000000000E+00 0. -1.
         23    2    1    2    0    0  0.20428734212E+03 -0.11912083553E+03 -0.14106567088E+03  0.28935644500E+03  0.88907463988E+02 0.  0.
         11    1    3    3    0    0  0.11196809966E+03 -0.11366529064E+03 -0.98896650973E+02  0.18771574578E+03  0.00000000000E+00 0.  1.
        -11    1    3    3    0    0  0.92319242461E+02 -0.54555448884E+01 -0.42169019904E+02  0.10164069922E+03  0.00000000000E+00 0. -1.
         22    1    1    2    0    0 -0.20428734212E+03  0.11912083553E+03 -0.62454034032E+03  0.66781264461E+03  0.00000000000E+00 0. -1.
<mgrwt>
<rscale>  0 0.57447376E+03</rscale>
<asrwt>0</asrwt>
<pdfrwt beam="1">  1        1 0.13252117E+00 0.57447376E+03</pdfrwt>
<pdfrwt beam="2">  1       -1 0.14735621E-01 0.57447376E+03</pdfrwt>
<totfact> 0.67133942E+02</totfact>
</mgrwt>
</event>
<event>
 6    1  0.1588846E-005  0.2950468E+04  0.7818608E-02  0.8258018E-01
          2   -1    0    0  501    0  0.00000000000E+00  0.00000000000E+00  0.19974349444E+04  0.19974349444E+04  0.00000000000E+00 0.  1.
         -2   -1    0    0    0  501 -0.00000000000E+00 -0.00000000000E+00 -0.10895553023E+04  0.10895553023E+04  0.00000000000E+00 0. -1.
         23    2    1    2    0    0  0.68218427525E+03 -0.10066272762E+04  0.13259009507E+04  0.18011381273E+04  0.86089278973E+02 0.  0.
         13    1    3    3    0    0  0.12143938563E+03 -0.17756645270E+03  0.28530189480E+03  0.35731574369E+03  0.00000000000E+00 0.  1.
        -13    1    3    3    0    0  0.56074488961E+03 -0.82906082347E+03  0.10405990559E+04  0.14438223836E+04  0.00000000000E+00 0. -1.
         22    1    1    2    0    0 -0.68218427525E+03  0.10066272762E+04 -0.41802130860E+03  0.12858521194E+04  0.00000000000E+00 0. -1.
<mgrwt>
<rscale>  0 0.29504683E+04</rscale>
<asrwt>0</asrwt>
<pdfrwt beam="1">  1        2 0.30729768E+00 0.29504683E+04</pdfrwt>
<pdfrwt beam="2">  1       -2 0.16762389E+00 0.29504683E+04</pdfrwt>
<totfact> 0.12770565E+00</totfact>
</mgrwt>
</event>
<event>
 6    1  0.1588846E-005  0.2747519E+04  0.7818608E-02  0.8319749E-01
         -1   -1    0    0    0  501 -0.00000000000E+00  0.00000000000E+00  0.53484610897E+03  0.53484610897E+03  0.00000000000E+00 0. -1.
          1   -1    0    0  501    0  0.00000000000E+00 -0.00000000000E+00 -0.35285211459E+04  0.35285211459E+04  0.00000000000E+00 0.  1.
         23    2    1    2    0    0 -0.12049257853E+04 -0.37008630737E+03 -0.69606730276E+03  0.14427163199E+04  0.90059239505E+02 0.  0.
         13    1    3    3    0    0 -0.61034786076E+03 -0.14084324198E+03 -0.35238217640E+03  0.71870336593E+03  0.00000000000E+00 0.  1.
        -13    1    3    3    0    0 -0.59457792456E+03 -0.22924306539E+03 -0.34368512636E+03  0.72401295395E+03  0.00000000000E+00 0. -1.
         22    1    1    2    0    0  0.12049257853E+04  0.37008630737E+03 -0.22976077342E+04  0.26206509350E+04  0.00000000000E+00 0.  1.
<mgrwt>
<rscale>  0 0.27475195E+04</rscale>
<asrwt>0</asrwt>
<pdfrwt beam="1">  1        1 0.54284941E+00 0.27475195E+04</pdfrwt>
<pdfrwt beam="2">  1       -1 0.82284017E-01 0.27475195E+04</pdfrwt>
<totfact> 0.30295599E-01</totfact>
</mgrwt>
</event>
<event>
 6    1  0.1588846E-005  0.1230953E+04  0.7818608E-02  0.9086187E-01
          2   -1    0    0  501    0  0.00000000000E+00  0.00000000000E+00  0.42724784542E+03  0.42724784542E+03  0.00000000000E+00 0. -1.
         -2   -1    0    0    0  501 -0.00000000000E+00 -0.00000000000E+00 -0.88663158706E+03  0.88663158706E+03  0.00000000000E+00 0.  1.
         23    2    1    2    0    0 -0.30515317533E+03  0.15130476392E+03 -0.77378971719E+03  0.85034657554E+03  0.91253384110E+02 0.  0.
         13    1    3    3    0    0 -0.17977760099E+03  0.64201061198E+02 -0.33259067828E+03  0.38348183967E+03  0.00000000000E+00 0.  1.
        -13    1    3    3    0    0 -0.12537557434E+03  0.87103702724E+02 -0.44119903891E+03  0.46686473587E+03  0.00000000000E+00 0. -1.
         22    1    1    2    0    0  0.30515317533E+03 -0.15130476392E+03  0.31440597555E+03  0.46353285694E+03  0.00000000000E+00 0. -1.
<mgrwt>
<rscale>  0 0.12309532E+04</rscale>
<asrwt>0</asrwt>
<pdfrwt beam="1">  1        2 0.65730438E-01 0.12309532E+04</pdfrwt>
<pdfrwt beam="2">  1       -2 0.13640486E+00 0.12309532E+04</pdfrwt>
<totfact> 0.27896505E+01</totfact>
</mgrwt>
</event>
<event>
 6    1  0.1588846E-005  0.1534680E+04  0.7818608E-02  0.8861713E-01
          2   -1    0    0  501    0  0.00000000000E+00  0.00000000000E+00  0.10216483846E+04  0.10216483846E+04  0.00000000000E+00 0.  1.
         -2   -1    0    0    0  501 -0.00000000000E+00 -0.00000000000E+00 -0.57633433240E+03  0.57633433240E+03  0.00000000000E+00 0. -1.
         23    2    1    2    0    0 -0.51309726063E+03  0.33213250407E+03  0.70162076073E+03  0.93520528224E+03  0.93575792384E+02 0.  0.
         11    1    3    3    0    0 -0.24154135999E+03  0.21152576591E+03  0.35476374239E+03  0.47847956189E+03  0.00000000000E+00 0. -1.
        -11    1    3    3    0    0 -0.27155590064E+03  0.12060673816E+03  0.34685701834E+03  0.45672572035E+03  0.00000000000E+00 0.  1.
         22    1    1    2    0    0  0.51309726063E+03 -0.33213250407E+03 -0.25630670856E+03  0.66277743472E+03  0.00000000000E+00 0. -1.
<mgrwt>
<rscale>  0 0.15346805E+04</rscale>
<asrwt>0</asrwt>
<pdfrwt beam="1">  1        2 0.15717667E+00 0.15346805E+04</pdfrwt>
<pdfrwt beam="2">  1       -2 0.88666820E-01 0.15346805E+04</pdfrwt>
<totfact> 0.25722345E+01</totfact>
</mgrwt>
</event>
<event>
 6    1  0.2733484E-005  0.3011757E+04  0.7818608E-02  0.8240382E-01
          2   -1    0    0  501    0  0.00000000000E+00  0.00000000000E+00  0.17682047740E+04  0.17682047740E+04  0.00000000000E+00 0. -1.
         -2   -1    0    0    0  501 -0.00000000000E+00 -0.00000000000E+00 -0.12824702877E+04  0.12824702877E+04  0.00000000000E+00 0.  1.
         23    2    1    2    0    0  0.38405571256E+03 -0.38899017142E+03 -0.11767244699E+04  0.13006516548E+04  0.90565474790E+02 0.  0.
         11    1    3    3    0    0  0.19142046695E+03 -0.25484032466E+03 -0.70785173486E+03  0.77629856678E+03  0.00000000000E+00 0.  1.
        -11    1    3    3    0    0  0.19263524561E+03 -0.13414984676E+03 -0.46887273500E+03  0.52435308797E+03  0.00000000000E+00 0. -1.
         22    1    1    2    0    0 -0.38405571256E+03  0.38899017142E+03  0.16624589561E+04  0.17500234069E+04  0.00000000000E+00 0. -1.
<mgrwt>
<rscale>  0 0.30117570E+04</rscale>
<asrwt>0</asrwt>
<pdfrwt beam="1">  1        2 0.27203150E+00 0.30117570E+04</pdfrwt>
<pdfrwt beam="2">  1       -2 0.19730312E+00 0.30117570E+04</pdfrwt>
<totfact> 0.10650086E+00</totfact>
</mgrwt>
</event>
<event>
 6    1  0.1588846E-005  0.1940081E+04  0.7818608E-02  0.8635159E-01
         -1   -1    0    0    0  501 -0.00000000000E+00  0.00000000000E+00  0.20936788475E+04  0.20936788475E+04  0.00000000000E+00 0. -1.
          1   -1    0    0  501    0  0.00000000000E+00 -0.00000000000E+00 -0.44943791329E+03  0.44943791329E+03  0.00000000000E+00 0.  1.
         23    2    1    2    0    0 -0.32531710376E+03  0.30389892459E+03  0.19512723306E+04  0.20023265495E+04  0.60515518934E+02 0.  0.
         13    1    3    3    0    0 -0.13919388010E+03  0.10437342564E+03  0.86364139925E+03  0.88099104124E+03  0.00000000000E+00 0. -1.
        -13    1    3    3    0    0 -0.18612322367E+03  0.19952549895E+03  0.10876309314E+04  0.11213355082E+04  0.00000000000E+00 0.  1.
         22    1    1    2    0    0  0.32531710376E+03 -0.30389892459E+03 -0.30703139637E+03  0.54079021138E+03  0.00000000000E+00 0.  1.
<mgrwt>
<rscale>  0 0.19400811E+04</rscale>
<asrwt>0</asrwt>
<pdfrwt beam="1">  1        1 0.69144295E-01 0.19400811E+04</pdfrwt>
<pdfrwt beam="2">  1       -1 0.32210443E+00 0.19400811E+04</pdfrwt>
<totfact> 0.11354835E+00</totfact>
</mgrwt>
</event>
<event>
 6    1  0.1588846E-005  0.4162157E+04  0.7818608E-02  0.7972610E-01
         -2   -1    0    0    0  501 -0.00000000000E+00  0.00000000000E+00  0.31299039978E+04  0.31299039978E+04  0.00000000000E+00 0. -1.
          2   -1    0    0  501    0  0.00000000000E+00 -0.00000000000E+00 -0.13837127557E+04  0.13837127557E+04  0.00000000000E+00 0.  1.
         23    2    1    2    0    0  0.13475248376E+04 -0.61624456473E+03  0.24566121334E+04  0.28703643705E+04  0.92021160005E+02 0.  0.
         11    1    3    3    0    0  0.85506685610E+03 -0.34199800039E+03  0.15194959565E+04  0.17767864031E+04  0.00000000000E+00 0. -1.
        -11    1    3    3    0    0  0.49245798153E+03 -0.27424656434E+03  0.93711617689E+03  0.10935779673E+04  0.00000000000E+00 0.  1.
         22    1    1    2    0    0 -0.13475248376E+04  0.61624456473E+03 -0.71042089128E+03  0.16432523830E+04  0.00000000000E+00 0.  1.
<mgrwt>
<rscale>  0 0.41621572E+04</rscale>
<asrwt>0</asrwt>
<pdfrwt beam="1">  1        2 0.21287889E+00 0.41621572E+04</pdfrwt>
<pdfrwt beam="2">  1       -2 0.48152369E+00 0.41621572E+04</pdfrwt>
<totfact> 0.24889839E-02</totfact>
</mgrwt>
</event>
<event>
 6    1  0.1728758E-005  0.1918990E+04  0.7818608E-02  0.8645461E-01
         -2   -1    0    0    0  501 -0.00000000000E+00  0.00000000000E+00  0.51821541433E+03  0.51821541433E+03  0.00000000000E+00 0.  1.
          2   -1    0    0  501    0  0.00000000000E+00 -0.00000000000E+00 -0.17765396246E+04  0.17765396246E+04  0.00000000000E+00 0. -1.
         23    2    1    2    0    0 -0.93464509773E+03 -0.14155363342E+03 -0.45122058679E+03  0.10517686557E+04  0.94965242581E+02 0.  0.
         11    1    3    3    0    0 -0.49670854976E+03 -0.45995493551E+02 -0.19597511581E+03  0.53594889201E+03  0.00000000000E+00 0. -1.
        -11    1    3    3    0    0 -0.43793654798E+03 -0.95558139873E+02 -0.25524547098E+03  0.51581976368E+03  0.00000000000E+00 0.  1.
         22    1    1    2    0    0  0.93464509773E+03  0.14155363342E+03 -0.80710362346E+03  0.12429863832E+04  0.00000000000E+00 0. -1.
<mgrwt>
<rscale>  0 0.19189895E+04</rscale>
<asrwt>0</asrwt>
<pdfrwt beam="1">  1        2 0.27331379E+00 0.19189895E+04</pdfrwt>
<pdfrwt beam="2">  1       -2 0.79725447E-01 0.19189895E+04</pdfrwt>
<totfact> 0.11581969E+01</totfact>
</mgrwt>
</event>
<event>
 6    1  0.1588846E-005  0.2217979E+04  0.7818608E-02  0.8510982E-01
          2   -1    0    0  501    0  0.00000000000E+00  0.00000000000E+00  0.13839823171E+04  0.13839823171E+04  0.00000000000E+00 0. -1.
         -2   -1    0    0    0  501 -0.00000000000E+00 -0.00000000000E+00 -0.88863716820E+03  0.88863716820E+03  0.00000000000E+00 0.  1.
         23    2    1    2    0    0 -0.14019093018E+03 -0.76907968213E+03 -0.55521987716E+03  0.96310662613E+03  0.90378133142E+02 0.  0.
         11    1    3    3    0    0 -0.39709180128E+02 -0.19012969705E+03 -0.18725532640E+03  0.26979747581E+03  0.00000000000E+00 0. -1.
        -11    1    3    3    0    0 -0.10048175005E+03 -0.57894998508E+03 -0.36796455075E+03  0.69330915033E+03  0.00000000000E+00 0.  1.
         22    1    1    2    0    0  0.14019093018E+03  0.76907968213E+03  0.10505650261E+04  0.13095128592E+04  0.00000000000E+00 0. -1.
<mgrwt>
<rscale>  0 0.22179794E+04</rscale>
<asrwt>0</asrwt>
<pdfrwt beam="1">  1        2 0.21292036E+00 0.22179794E+04</pdfrwt>
<pdfrwt beam="2">  1       -2 0.13671341E+00 0.22179794E+04</pdfrwt>
<totfact> 0.51535904E+00</totfact>
</mgrwt>
</event>
<event>
 6    1  0.1588846E-005  0.1227649E+04  0.7818608E-02  0.9088993E-01
          2   -1    0    0  501    0  0.00000000000E+00  0.00000000000E+00  0.30737525605E+03  0.30737525605E+03  0.00000000000E+00 0.  1.
         -2   -1    0    0    0  501 -0.00000000000E+00 -0.00000000000E+00 -0.12258006420E+04  0.12258006420E+04  0.00000000000E+00 0. -1.
         23    2    1    2    0    0 -0.39955244444E+03 -0.40553532746E+03 -0.73645251795E+03  0.93550108480E+03  0.93267951556E+02 0.  0.
         13    1    3    3    0    0 -0.49853754253E+02 -0.13813638005E+02 -0.62537312345E+02  0.81161128894E+02  0.00000000000E+00 0. -1.
        -13    1    3    3    0    0 -0.34969869019E+03 -0.39172168946E+03 -0.67391520561E+03  0.85433995590E+03  0.00000000000E+00 0.  1.
         22    1    1    2    0    0  0.39955244444E+03  0.40553532746E+03 -0.18197286798E+03  0.59767481322E+03  0.00000000000E+00 0.  1.
<mgrwt>
<rscale>  0 0.12276494E+04</rscale>
<asrwt>0</asrwt>
<pdfrwt beam="1">  1        2 0.47288501E-01 0.12276494E+04</pdfrwt>
<pdfrwt beam="2">  1       -2 0.18858471E+00 0.12276494E+04</pdfrwt>
<totfact> 0.16658720E+01</totfact>
</mgrwt>
</event>
<event>
 6    1  0.1588846E-005  0.1064626E+04  0.7818608E-02  0.9240372E-01
          2   -1    0    0  501    0  0.00000000000E+00  0.00000000000E+00  0.41043042845E+03  0.41043042845E+03  0.00000000000E+00 0. -1.
         -2   -1    0    0    0  501 -0.00000000000E+00 -0.00000000000E+00 -0.69039074284E+03  0.69039074284E+03  0.00000000000E+00 0.  1.
         23    2    1    2    0    0  0.47769765607E+03 -0.22136357763E+03 -0.94778771148E+02  0.54270909645E+03  0.91396191306E+02 0.  0.
         11    1    3    3    0    0  0.37403031152E+03 -0.13089252038E+03 -0.60002757201E+02  0.40078904264E+03  0.00000000000E+00 0. -1.
        -11    1    3    3    0    0  0.10366734455E+03 -0.90471057248E+02 -0.34776013947E+02  0.14192005381E+03  0.00000000000E+00 0.  1.
         22    1    1    2    0    0 -0.47769765607E+03  0.22136357763E+03 -0.18518154324E+03  0.55811207484E+03  0.00000000000E+00 0. -1.
<mgrwt>
<rscale>  0 0.10646264E+04</rscale>
<asrwt>0</asrwt>
<pdfrwt beam="1">  1        2 0.63143144E-01 0.10646264E+04</pdfrwt>
<pdfrwt beam="2">  1       -2 0.10621396E+00 0.10646264E+04</pdfrwt>
<totfact> 0.54948470E+01</totfact>
</mgrwt>
</event>
<event>
 6    1  0.1588846E-005  0.1194354E+04  0.7818608E-02  0.9117813E-01
          2   -1    0    0  501    0  0.00000000000E+00  0.00000000000E+00  0.95418762630E+03  0.95418762630E+03  0.00000000000E+00 0. -1.
         -2   -1    0    0    0  501 -0.00000000000E+00 -0.00000000000E+00 -0.37374218716E+03  0.37374218716E+03  0.00000000000E+00 0.  1.
         23    2    1    2    0    0  0.23707453013E+03 -0.60159538442E+02 -0.31069612956E+03  0.40383198401E+03  0.82004167471E+02 0.  0.
         11    1    3    3    0    0  0.16997472494E+03 -0.74344613656E+02 -0.19367871152E+03  0.26819763607E+03  0.00000000000E+00 0. -1.
        -11    1    3    3    0    0  0.67099805187E+02  0.14185075214E+02 -0.11701741804E+03  0.13563434794E+03  0.00000000000E+00 0.  1.
         22    1    1    2    0    0 -0.23707453013E+03  0.60159538442E+02  0.89114156871E+03  0.92409782944E+03  0.00000000000E+00 0. -1.
<mgrwt>
<rscale>  0 0.11943537E+04</rscale>
<asrwt>0</asrwt>
<pdfrwt beam="1">  1        2 0.14679810E+00 0.11943537E+04</pdfrwt>
<pdfrwt beam="2">  1       -2 0.57498799E-01 0.11943537E+04</pdfrwt>
<totfact> 0.75455474E+01</totfact>
</mgrwt>
</event>
<event>
 6    1  0.1588846E-005  0.2924634E+04  0.7818608E-02  0.8265586E-01
         -2   -1    0    0    0  501 -0.00000000000E+00  0.00000000000E+00  0.16707424800E+04  0.16707424800E+04  0.00000000000E+00 0.  1.
          2   -1    0    0  501    0  0.00000000000E+00 -0.00000000000E+00 -0.12798923375E+04  0.12798923375E+04  0.00000000000E+00 0. -1.
         23    2    1    2    0    0 -0.16806114483E+03  0.70211924492E+03  0.14768867854E+04  0.16465291576E+04  0.92993050143E+02 0.  0.
         11    1    3    3    0    0 -0.13897348749E+03  0.38765048451E+03  0.85911287637E+03  0.95271268634E+03  0.00000000000E+00 0.  1.
        -11    1    3    3    0    0 -0.29087657336E+02  0.31446876041E+03  0.61777390900E+03  0.69381647121E+03  0.00000000000E+00 0. -1.
         22    1    1    2    0    0  0.16806114483E+03 -0.70211924492E+03 -0.10860366430E+04  0.13041056600E+04  0.00000000000E+00 0. -1.
<mgrwt>
<rscale>  0 0.29246337E+04</rscale>
<asrwt>0</asrwt>
<pdfrwt beam="1">  1        2 0.19690651E+00 0.29246337E+04</pdfrwt>
<pdfrwt beam="2">  1       -2 0.25703730E+00 0.29246337E+04</pdfrwt>
<totfact> 0.85107393E-01</totfact>
</mgrwt>
</event>
<event>
 6    1  0.1588846E-005  0.1112387E+04  0.7818608E-02  0.9193202E-01
         -2   -1    0    0    0  501 -0.00000000000E+00  0.00000000000E+00  0.55341633534E+03  0.55341633534E+03  0.00000000000E+00 0.  1.
          2   -1    0    0  501    0  0.00000000000E+00 -0.00000000000E+00 -0.55898417140E+03  0.55898417140E+03  0.00000000000E+00 0. -1.
         23    2    1    2    0    0  0.32490700165E+03  0.21699046125E+03  0.38788519358E+03  0.55791452268E+03  0.90356356881E+02 0.  0.
         11    1    3    3    0    0  0.12027794368E+03  0.49315996754E+02  0.82909261769E+02  0.15418429544E+03  0.00000000000E+00 0.  1.
        -11    1    3    3    0    0  0.20462905796E+03  0.16767446450E+03  0.30497593181E+03  0.40373022724E+03  0.00000000000E+00 0. -1.
         22    1    1    2    0    0 -0.32490700165E+03 -0.21699046125E+03 -0.39345302963E+03  0.55448598406E+03  0.00000000000E+00 0. -1.
<mgrwt>
<rscale>  0 0.11123866E+04</rscale>
<asrwt>0</asrwt>
<pdfrwt beam="1">  1        2 0.85997565E-01 0.11123866E+04</pdfrwt>
<pdfrwt beam="2">  1       -2 0.85140975E-01 0.11123866E+04</pdfrwt>
<totfact> 0.64346971E+01</totfact>
</mgrwt>
</event>
<event>
 6    1  0.1588846E-005  0.1973102E+04  0.7818608E-02  0.8619301E-01
         -1   -1    0    0    0  501 -0.00000000000E+00  0.00000000000E+00  0.13150812218E+04  0.13150812218E+04  0.00000000000E+00 0.  1.
          1   -1    0    0  501    0  0.00000000000E+00 -0.00000000000E+00 -0.74009331102E+03  0.74009331102E+03  0.00000000000E+00 0. -1.
         23    2    1    2    0    0 -0.61632758876E+03 -0.16818274156E+03  0.10681759499E+04  0.12480936365E+04  0.92697002432E+02 0.  0.
         13    1    3    3    0    0 -0.30512675153E+03 -0.12057323123E+03  0.60143888750E+03  0.68510508244E+03  0.00000000000E+00 0. -1.
        -13    1    3    3    0    0 -0.31120083723E+03 -0.47609510330E+02  0.46673706244E+03  0.56298855408E+03  0.00000000000E+00 0.  1.
         22    1    1    2    0    0  0.61632758876E+03  0.16818274156E+03 -0.49318803915E+03  0.80708089631E+03  0.00000000000E+00 0. -1.
<mgrwt>
<rscale>  0 0.19731019E+04</rscale>
<asrwt>0</asrwt>
<pdfrwt beam="1">  1        1 0.11386051E+00 0.19731019E+04</pdfrwt>
<pdfrwt beam="2">  1       -1 0.20232019E+00 0.19731019E+04</pdfrwt>
<totfact> 0.33723372E+00</totfact>
</mgrwt>
</event>
<event>
 6    1  0.1588846E-005  0.2235831E+04  0.7818608E-02  0.8503661E-01
         -2   -1    0    0    0  501 -0.00000000000E+00  0.00000000000E+00  0.78940142995E+03  0.78940142995E+03  0.00000000000E+00 0.  1.
          2   -1    0    0  501    0  0.00000000000E+00 -0.00000000000E+00 -0.15831429306E+04  0.15831429306E+04  0.00000000000E+00 0. -1.
         23    2    1    2    0    0  0.39435406215E+03 -0.55936192825E+03 -0.13330132867E+04  0.15012149438E+04  0.91219472229E+02 0.  0.
         13    1    3    3    0    0  0.14153083146E+03 -0.22369966814E+03 -0.60982398907E+03  0.66479907899E+03  0.00000000000E+00 0. -1.
        -13    1    3    3    0    0  0.25282323069E+03 -0.33566226012E+03 -0.72318929758E+03  0.83641586485E+03  0.00000000000E+00 0.  1.
         22    1    1    2    0    0 -0.39435406215E+03  0.55936192825E+03  0.53927178605E+03  0.87132941666E+03  0.00000000000E+00 0.  1.
<mgrwt>
<rscale>  0 0.22358312E+04</rscale>
<asrwt>0</asrwt>
<pdfrwt beam="1">  1        2 0.24356045E+00 0.22358312E+04</pdfrwt>
<pdfrwt beam="2">  1       -2 0.12144637E+00 0.22358312E+04</pdfrwt>
<totfact> 0.53540722E+00</totfact>
</mgrwt>
</event>
<event>
 6    1  0.1588846E-005  0.2576376E+04  0.7818608E-02  0.8376270E-01
          2   -1    0    0  501    0  0.00000000000E+00  0.00000000000E+00  0.30696102919E+04  0.30696102919E+04  0.00000000000E+00 0. -1.
         -2   -1    0    0    0  501 -0.00000000000E+00 -0.00000000000E+00 -0.54059913304E+03  0.54059913304E+03  0.00000000000E+00 0.  1.
         23    2    1    2    0    0 -0.52278017375E+03 -0.36444442253E+03  0.28322319798E+04  0.29044745502E+04  0.91189793136E+02 0.  0.
         11    1    3    3    0    0 -0.38152868764E+03 -0.23104959786E+03  0.21050533489E+04  0.21517894083E+04  0.00000000000E+00 0. -1.
        -11    1    3    3    0    0 -0.14125148611E+03 -0.13339482467E+03  0.72717863087E+03  0.75268514186E+03  0.00000000000E+00 0.  1.
         22    1    1    2    0    0  0.52278017375E+03  0.36444442253E+03 -0.30322082090E+03  0.70573487473E+03  0.00000000000E+00 0.  1.
<mgrwt>
<rscale>  0 0.25763763E+04</rscale>
<asrwt>0</asrwt>
<pdfrwt beam="1">  1        2 0.47224773E+00 0.25763763E+04</pdfrwt>
<pdfrwt beam="2">  1       -2 0.83169099E-01 0.25763763E+04</pdfrwt>
<totfact> 0.17657489E+00</totfact>
</mgrwt>
</event>
<event>
 6    1  0.1588846E-005  0.1447383E+04  0.7818608E-02  0.8920217E-01
          1   -1    0    0  501    0  0.00000000000E+00  0.00000000000E+00  0.16662488073E+04  0.16662488073E+04  0.00000000000E+00 0. -1.
         -1   -1    0    0    0  501 -0.00000000000E+00 -0.00000000000E+00 -0.31431625287E+03  0.31431625287E+03  0.00000000000E+00 0.  1.
         23    2    1    2    0    0 -0.21697467515E+03 -0.64409580832E+03  0.35230792325E+03  0.77176945163E+03  0.97825322554E+02 0.  0.
         13    1    3    3    0    0 -0.14909480261E+03 -0.34328319632E+03  0.15143034849E+03  0.40373724559E+03  0.00000000000E+00 0. -1.
        -13    1    3    3    0    0 -0.67879872546E+02 -0.30081261201E+03  0.20087757476E+03  0.36803220604E+03  0.00000000000E+00 0.  1.
         22    1    1    2    0    0  0.21697467515E+03  0.64409580832E+03  0.99962463116E+03  0.12087956085E+04  0.00000000000E+00 0. -1.
<mgrwt>
<rscale>  0 0.14473826E+04</rscale>
<asrwt>0</asrwt>
<pdfrwt beam="1">  1        1 0.25634596E+00 0.14473826E+04</pdfrwt>
<pdfrwt beam="2">  1       -1 0.48356348E-01 0.14473826E+04</pdfrwt>
<totfact> 0.20884238E+01</totfact>
</mgrwt>
</event>
<event>
 6    1  0.1588846E-005  0.4605431E+03  0.7818608E-02  0.1024624E+00
          1   -1    0    0  501    0  0.00000000000E+00  0.00000000000E+00  0.56244665954E+03  0.56244665954E+03  0.00000000000E+00 0. -1.
         -1   -1    0    0    0  501 -0.00000000000E+00 -0.00000000000E+00 -0.94275580724E+02  0.94275580724E+02  0.00000000000E+00 0.  1.
         23    2    1    2    0    0  0.48085327780E+02 -0.20303386360E+03  0.13945259302E+03  0.26737561909E+03  0.92237451550E+02 0.  0.
         13    1    3    3    0    0  0.65409529482E+02 -0.12470631880E+03  0.11955222499E+03  0.18472359621E+03  0.00000000000E+00 0.  1.
        -13    1    3    3    0    0 -0.17324201703E+02 -0.78327544793E+02  0.19900368024E+02  0.82652022875E+02  0.00000000000E+00 0. -1.
         22    1    1    2    0    0 -0.48085327780E+02  0.20303386360E+03  0.32871848581E+03  0.38934662118E+03  0.00000000000E+00 0.  1.
<mgrwt>
<rscale>  0 0.46054309E+03</rscale>
<asrwt>0</asrwt>
<pdfrwt beam="1">  1        1 0.86530253E-01 0.46054309E+03</pdfrwt>
<pdfrwt beam="2">  1       -1 0.14503936E-01 0.46054309E+03</pdfrwt>
<totfact> 0.13081188E+03</totfact>
</mgrwt>
</event>
<event>
 6    1  0.1588846E-005  0.5133046E+04  0.7818608E-02  0.7808305E-01
         -1   -1    0    0    0  501 -0.00000000000E+00  0.00000000000E+00  0.13242507533E+04  0.13242507533E+04  0.00000000000E+00 0.  1.
          1   -1    0    0  501    0  0.00000000000E+00 -0.00000000000E+00 -0.49741636712E+04  0.49741636712E+04  0.00000000000E+00 0. -1.
         23    2    1    2    0    0 -0.18235783517E+04 -0.93067035383E+03  0.71798461553E+02  0.20507420144E+04  0.93821522568E+02 0.  0.
         13    1    3    3    0    0 -0.15429959628E+04 -0.78797094900E+03  0.94600217870E+02  0.17351322598E+04  0.00000000000E+00 0.  1.
        -13    1    3    3    0    0 -0.28058238891E+03 -0.14269940483E+03 -0.22801756318E+02  0.31560975460E+03  0.00000000000E+00 0. -1.
         22    1    1    2    0    0  0.18235783517E+04  0.93067035383E+03 -0.37217113795E+04  0.42476724102E+04  0.00000000000E+00 0. -1.
<mgrwt>
<rscale>  0 0.51330459E+04</rscale>
<asrwt>0</asrwt>
<pdfrwt beam="1">  1        1 0.76525595E+00 0.51330459E+04</pdfrwt>
<pdfrwt beam="2">  1       -1 0.20373089E+00 0.51330459E+04</pdfrwt>
<totfact> 0.93173461E-04</totfact>
</mgrwt>
</event>
<event>
 6    1  0.1588846E-005  0.3345133E+04  0.7818608E-02  0.8151505E-01
         -2   -1    0    0    0  501 -0.00000000000E+00  0.00000000000E+00  0.22715934422E+04  0.22715934422E+04  0.00000000000E+00 0.  1.
          2   -1    0    0  501    0  0.00000000000E+00 -0.00000000000E+00 -0.12315052526E+04  0.12315052526E+04  0.00000000000E+00 0. -1.
         23    2    1    2    0    0  0.11317422526E+04  0.64340421488E+03  0.16176408132E+04  0.20788878455E+04  0.10101170002E+03 0.  0.
         11    1    3    3    0    0  0.18093591072E+03  0.86672539515E+02  0.30570267603E+03  0.36565565636E+03  0.00000000000E+00 0.  1.
        -11    1    3    3    0    0  0.95080634186E+03  0.55673167537E+03  0.13119381372E+04  0.17132321891E+04  0.00000000000E+00 0. -1.
         22    1    1    2    0    0 -0.11317422526E+04 -0.64340421488E+03 -0.57755262360E+03  0.14242108492E+04  0.00000000000E+00 0. -1.
<mgrwt>
<rscale>  0 0.33451333E+04</rscale>
<asrwt>0</asrwt>
<pdfrwt beam="1">  1        2 0.18946235E+00 0.33451333E+04</pdfrwt>
<pdfrwt beam="2">  1       -2 0.34947591E+00 0.33451333E+04</pdfrwt>
<totfact> 0.23653776E-01</totfact>
</mgrwt>
</event>
<event>
 6    1  0.1588846E-005  0.3517562E+04  0.7818608E-02  0.8109641E-01
         -1   -1    0    0    0  501 -0.00000000000E+00  0.00000000000E+00  0.18848798854E+04  0.18848798854E+04  0.00000000000E+00 0.  1.
          1   -1    0    0  501    0  0.00000000000E+00 -0.00000000000E+00 -0.16411178366E+04  0.16411178366E+04  0.00000000000E+00 0. -1.
         23    2    1    2    0    0 -0.10560861788E+04  0.12203382264E+03 -0.12810675874E+04  0.16671497749E+04  0.89688001361E+02 0.  0.
         13    1    3    3    0    0 -0.61634586254E+03  0.11170717485E+03 -0.72399702951E+03  0.95735699398E+03  0.00000000000E+00 0. -1.
        -13    1    3    3    0    0 -0.43974031631E+03  0.10326647789E+02 -0.55707055789E+03  0.70979278097E+03  0.00000000000E+00 0.  1.
         22    1    1    2    0    0  0.10560861788E+04 -0.12203382264E+03  0.15248296361E+04  0.18588479471E+04  0.00000000000E+00 0.  1.
<mgrwt>
<rscale>  0 0.35175617E+04</rscale>
<asrwt>0</asrwt>
<pdfrwt beam="1">  1        1 0.25247967E+00 0.35175617E+04</pdfrwt>
<pdfrwt beam="2">  1       -1 0.28998152E+00 0.35175617E+04</pdfrwt>
<totfact> 0.16335705E-01</totfact>
</mgrwt>
</event>
<event>
 6    1  0.1588846E-005  0.6371128E+03  0.7818608E-02  0.9831266E-01
          1   -1    0    0  501    0  0.00000000000E+00  0.00000000000E+00  0.38670734536E+03  0.38670734536E+03  0.00000000000E+00 0. -1.
         -1   -1    0    0    0  501 -0.00000000000E+00 -0.00000000000E+00 -0.26241596751E+03  0.26241596751E+03  0.00000000000E+00 0.  1.
         23    2    1    2    0    0  0.12247323363E+02  0.30511465903E+03 -0.51459256592E+00  0.31924230048E+03  0.93115141223E+02 0.  0.
         13    1    3    3    0    0  0.36240333572E+02  0.47052240669E+02  0.79990901245E+01  0.59927127181E+02  0.00000000000E+00 0.  1.
        -13    1    3    3    0    0 -0.23993010209E+02  0.25806241836E+03 -0.85136826904E+01  0.25931517330E+03  0.00000000000E+00 0. -1.
         22    1    1    2    0    0 -0.12247323363E+02 -0.30511465903E+03  0.12480597041E+03  0.32988101239E+03  0.00000000000E+00 0. -1.
<mgrwt>
<rscale>  0 0.63711281E+03</rscale>
<asrwt>0</asrwt>
<pdfrwt beam="1">  1        1 0.59493438E-01 0.63711281E+03</pdfrwt>
<pdfrwt beam="2">  1       -1 0.40371687E-01 0.63711281E+03</pdfrwt>
<totfact> 0.38057910E+02</totfact>
</mgrwt>
</event>
<event>
 6    1  0.1588846E-005  0.3715367E+04  0.7818608E-02  0.8064565E-01
         -2   -1    0    0    0  501 -0.00000000000E+00  0.00000000000E+00  0.10145813595E+04  0.10145813595E+04  0.00000000000E+00 0.  1.
          2   -1    0    0  501    0  0.00000000000E+00 -0.00000000000E+00 -0.34013913160E+04  0.34013913160E+04  0.00000000000E+00 0. -1.
         23    2    1    2    0    0 -0.29781909087E+03 -0.14178620546E+04 -0.25739752997E+04  0.29551304929E+04  0.91751674695E+02 0.  0.
         13    1    3    3    0    0 -0.17488937988E+02 -0.23069872206E+03 -0.38171426750E+03  0.44635585056E+03  0.00000000000E+00 0. -1.
        -13    1    3    3    0    0 -0.28033015289E+03 -0.11871633326E+04 -0.21922610322E+04  0.25087746423E+04  0.00000000000E+00 0.  1.
         22    1    1    2    0    0  0.29781909087E+03  0.14178620546E+04  0.18716534322E+03  0.14608421826E+04  0.00000000000E+00 0.  1.
<mgrwt>
<rscale>  0 0.37153671E+04</rscale>
<asrwt>0</asrwt>
<pdfrwt beam="1">  1        2 0.52329098E+00 0.37153671E+04</pdfrwt>
<pdfrwt beam="2">  1       -2 0.15608944E+00 0.37153671E+04</pdfrwt>
<totfact> 0.20660143E-01</totfact>
</mgrwt>
</event>
<event>
 6    1  0.1588846E-005  0.2666564E+04  0.7818608E-02  0.8345936E-01
         -1   -1    0    0    0  501 -0.00000000000E+00  0.00000000000E+00  0.64851565470E+03  0.64851565470E+03  0.00000000000E+00 0.  1.
          1   -1    0    0  501    0  0.00000000000E+00 -0.00000000000E+00 -0.27410909503E+04  0.27410909503E+04  0.00000000000E+00 0. -1.
         23    2    1    2    0    0 -0.62572171205E+03  0.22923452120E+03  0.41804744940E+03  0.79204954224E+03  0.92209981972E+02 0.  0.
         13    1    3    3    0    0 -0.22273368547E+03  0.12765349953E+03  0.14601440934E+03  0.29534034320E+03  0.00000000000E+00 0.  1.
        -13    1    3    3    0    0 -0.40298802658E+03  0.10158102167E+03  0.27203304005E+03  0.49670919904E+03  0.00000000000E+00 0. -1.
         22    1    1    2    0    0  0.62572171205E+03 -0.22923452120E+03 -0.25106227450E+04  0.25975570627E+04  0.00000000000E+00 0. -1.
<mgrwt>
<rscale>  0 0.26665636E+04</rscale>
<asrwt>0</asrwt>
<pdfrwt beam="1">  1        1 0.42170630E+00 0.26665636E+04</pdfrwt>
<pdfrwt beam="2">  1       -1 0.99771640E-01 0.26665636E+04</pdfrwt>
<totfact> 0.76969223E-01</totfact>
</mgrwt>
</event>
<event>
 6    1  0.1588846E-005  0.2030650E+04  0.7818608E-02  0.8592423E-01
         -1   -1    0    0    0  501 -0.00000000000E+00  0.00000000000E+00  0.74210381140E+03  0.74210381140E+03  0.00000000000E+00 0.  1.
          1   -1    0    0  501    0  0.00000000000E+00 -0.00000000000E+00 -0.13891382149E+04  0.13891382149E+04  0.00000000000E+00 0. -1.
         23    2    1    2    0    0  0.50992308115E+03 -0.80221758016E+03 -0.69114210621E+03  0.11796538359E+04  0.10164234846E+03 0.  0.
         11    1    3    3    0    0  0.41433202138E+03 -0.61215967030E+03 -0.58031259528E+03  0.93977294817E+03  0.00000000000E+00 0. -1.
        -11    1    3    3    0    0  0.95591059775E+02 -0.19005790986E+03 -0.11082951093E+03  0.23988088774E+03  0.00000000000E+00 0.  1.
         22    1    1    2    0    0 -0.50992308115E+03  0.80221758016E+03  0.44107702729E+02  0.95158819037E+03  0.00000000000E+00 0.  1.
<mgrwt>
<rscale>  0 0.20306499E+04</rscale>
<asrwt>0</asrwt>
<pdfrwt beam="1">  1        1 0.21371357E+00 0.20306499E+04</pdfrwt>
<pdfrwt beam="2">  1       -1 0.11416982E+00 0.20306499E+04</pdfrwt>
<totfact> 0.50529700E+00</totfact>
</mgrwt>
</event>
<event>
 6    1  0.1588846E-005  0.3489819E+04  0.7818608E-02  0.8116207E-01
          1   -1    0    0  501    0  0.00000000000E+00  0.00000000000E+00  0.16138228003E+04  0.16138228003E+04  0.00000000000E+00 0. -1.
         -1   -1    0    0    0  501 -0.00000000000E+00 -0.00000000000E+00 -0.18866445006E+04  0.18866445006E+04  0.00000000000E+00 0.  1.
         23    2    1    2    0    0  0.11437854375E+03 -0.57171936723E+03 -0.17844097139E+04  0.18803303286E+04  0.10760404900E+03 0.  0.
         13    1    3    3    0    0  0.10195355276E+03 -0.27345883697E+03 -0.79546425123E+03  0.84731200712E+03  0.00000000000E+00 0. -1.
        -13    1    3    3    0    0  0.12424990998E+02 -0.29826053026E+03 -0.98894546266E+03  0.10330183214E+04  0.00000000000E+00 0.  1.
         22    1    1    2    0    0 -0.11437854375E+03  0.57171936723E+03  0.15115880136E+04  0.16201369723E+04  0.00000000000E+00 0. -1.
<mgrwt>
<rscale>  0 0.34898194E+04</rscale>
<asrwt>0</asrwt>
<pdfrwt beam="1">  1        1 0.24828043E+00 0.34898194E+04</pdfrwt>
<pdfrwt beam="2">  1       -1 0.29025300E+00 0.34898194E+04</pdfrwt>
<totfact> 0.17025690E-01</totfact>
</mgrwt>
</event>
<event>
 6    1  0.1588846E-005  0.1722891E+04  0.7818608E-02  0.8748415E-01
         -1   -1    0    0    0  501 -0.00000000000E+00  0.00000000000E+00  0.25710573071E+03  0.25710573071E+03  0.00000000000E+00 0.  1.
          1   -1    0    0  501    0  0.00000000000E+00 -0.00000000000E+00 -0.28863165734E+04  0.28863165734E+04  0.00000000000E+00 0. -1.
         23    2    1    2    0    0 -0.11886499140E+03 -0.51575268249E+03 -0.25526563919E+04  0.26086416952E+04  0.93952771414E+02 0.  0.
         11    1    3    3    0    0 -0.32493142694E+02 -0.29067784322E+03 -0.12397822864E+04  0.12738169141E+04  0.00000000000E+00 0. -1.
        -11    1    3    3    0    0 -0.86371848706E+02 -0.22507483927E+03 -0.13128741055E+04  0.13348247811E+04  0.00000000000E+00 0.  1.
         22    1    1    2    0    0  0.11886499140E+03  0.51575268249E+03 -0.76554450750E+02  0.53478060886E+03  0.00000000000E+00 0.  1.
<mgrwt>
<rscale>  0 0.17228912E+04</rscale>
<asrwt>0</asrwt>
<pdfrwt beam="1">  1        1 0.44404868E+00 0.17228912E+04</pdfrwt>
<pdfrwt beam="2">  1       -1 0.39554730E-01 0.17228912E+04</pdfrwt>
<totfact> 0.42810413E+00</totfact>
</mgrwt>
</event>
<event>
 6    1  0.1588846E-005  0.1344527E+04  0.7818608E-02  0.8994982E-01
          1   -1    0    0  501    0  0.00000000000E+00  0.00000000000E+00  0.20442020022E+03  0.20442020022E+03  0.00000000000E+00 0. -1.
         -1   -1    0    0    0  501 -0.00000000000E+00 -0.00000000000E+00 -0.22108286096E+04  0.22108286096E+04  0.00000000000E+00 0.  1.
         23    2    1    2    0    0 -0.37109744571E+03  0.30718579580E+03 -0.17414536363E+03  0.52071343244E+03  0.93484991843E+02 0.  0.
         13    1    3    3    0    0 -0.24758769297E+03  0.14702916210E+03 -0.90385419033E+02  0.30180583856E+03  0.00000000000E+00 0.  1.
        -13    1    3    3    0    0 -0.12350975274E+03  0.16015663369E+03 -0.83759944596E+02  0.21890759388E+03  0.00000000000E+00 0. -1.
         22    1    1    2    0    0  0.37109744571E+03 -0.30718579580E+03 -0.18322630458E+04  0.18945353774E+04  0.00000000000E+00 0.  1.
<mgrwt>
<rscale>  0 0.13445267E+04</rscale>
<asrwt>0</asrwt>
<pdfrwt beam="1">  1        1 0.31449262E-01 0.13445267E+04</pdfrwt>
<pdfrwt beam="2">  1       -1 0.34012747E+00 0.13445267E+04</pdfrwt>
<totfact> 0.25748549E+00</totfact>
</mgrwt>
</event>
<event>
 6    1  0.1588846E-005  0.9389609E+03  0.7818608E-02  0.9378147E-01
          2   -1    0    0  501    0  0.00000000000E+00  0.00000000000E+00  0.51140700494E+03  0.51140700494E+03  0.00000000000E+00 0. -1.
         -2   -1    0    0    0  501 -0.00000000000E+00 -0.00000000000E+00 -0.43099116649E+03  0.43099116649E+03  0.00000000000E+00 0.  1.
         23    2    1    2    0    0 -0.52643452806E+02  0.41862792253E+03 -0.15553226190E+03  0.45898098442E+03  0.91937962381E+02 0.  0.
         11    1    3    3    0    0 -0.11616954766E+02  0.23925314969E+02  0.10795612578E+02  0.28703999466E+02  0.00000000000E+00 0. -1.
        -11    1    3    3    0    0 -0.41026498039E+02  0.39470260756E+03 -0.16632787448E+03  0.43027698496E+03  0.00000000000E+00 0.  1.
         22    1    1    2    0    0  0.52643452806E+02 -0.41862792253E+03  0.23594810034E+03  0.48341718701E+03  0.00000000000E+00 0. -1.
<mgrwt>
<rscale>  0 0.93896092E+03</rscale>
<asrwt>0</asrwt>
<pdfrwt beam="1">  1        2 0.78678000E-01 0.93896092E+03</pdfrwt>
<pdfrwt beam="2">  1       -2 0.66306334E-01 0.93896092E+03</pdfrwt>
<totfact> 0.12572173E+02</totfact>
</mgrwt>
</event>
<event>
 6    1  0.1588846E-005  0.2606444E+04  0.7818608E-02  0.8366016E-01
          1   -1    0    0  501    0  0.00000000000E+00  0.00000000000E+00  0.99927396988E+03  0.99927396988E+03  0.00000000000E+00 0. -1.
         -1   -1    0    0    0  501 -0.00000000000E+00 -0.00000000000E+00 -0.16996211802E+04  0.16996211802E+04  0.00000000000E+00 0.  1.
         23    2    1    2    0    0 -0.31569103323E+03 -0.84712561814E+03  0.61903445358E+03  0.10995044485E+04  0.91780913828E+02 0.  0.
         13    1    3    3    0    0 -0.21137679857E+03 -0.61188760796E+03  0.48824450565E+03  0.81084480207E+03  0.00000000000E+00 0. -1.
        -13    1    3    3    0    0 -0.10431423466E+03 -0.23523801018E+03  0.13078994792E+03  0.28865964641E+03  0.00000000000E+00 0.  1.
         22    1    1    2    0    0  0.31569103323E+03  0.84712561814E+03 -0.13193816639E+04  0.15993907016E+04  0.00000000000E+00 0.  1.
<mgrwt>
<rscale>  0 0.26064437E+04</rscale>
<asrwt>0</asrwt>
<pdfrwt beam="1">  1        1 0.15373446E+00 0.26064437E+04</pdfrwt>
<pdfrwt beam="2">  1       -1 0.26148018E+00 0.26064437E+04</pdfrwt>
<totfact> 0.78264116E-01</totfact>
</mgrwt>
</event>
<event>
 6    1  0.1588846E-005  0.5755647E+03  0.7818608E-02  0.9957440E-01
         -1   -1    0    0    0  501 -0.00000000000E+00  0.00000000000E+00  0.54285698539E+02  0.54285698539E+02  0.00000000000E+00 0.  1.
          1   -1    0    0  501    0  0.00000000000E+00 -0.00000000000E+00 -0.15256074737E+04  0.15256074737E+04  0.00000000000E+00 0. -1.
         23    2    1    2    0    0 -0.27745105529E+03 -0.34660248803E+02 -0.79918622987E+03  0.85191885115E+03  0.94269178386E+02 0.  0.
         13    1    3    3    0    0 -0.24185282160E+03  0.47581919789E+01 -0.66170256174E+03  0.70453226180E+03  0.00000000000E+00 0.  1.
        -13    1    3    3    0    0 -0.35598233688E+02 -0.39418440782E+02 -0.13748366813E+03  0.14738658935E+03  0.00000000000E+00 0. -1.
         22    1    1    2    0    0  0.27745105529E+03  0.34660248803E+02 -0.67213554526E+03  0.72797432106E+03  0.00000000000E+00 0. -1.
<mgrwt>
<rscale>  0 0.57556465E+03</rscale>
<asrwt>0</asrwt>
<pdfrwt beam="1">  1        1 0.23470886E+00 0.57556465E+03</pdfrwt>
<pdfrwt beam="2">  1       -1 0.83516455E-02 0.57556465E+03</pdfrwt>
<totfact> 0.54128871E+02</totfact>
</mgrwt>
</event>
<event>
 6    1  0.1588846E-005  0.2288983E+04  0.7818608E-02  0.8482278E-01
          2   -1    0    0  501    0  0.00000000000E+00  0.00000000000E+00  0.26945099611E+04  0.26945099611E+04  0.00000000000E+00 0.  1.
         -2   -1    0    0    0  501 -0.00000000000E+00 -0.00000000000E+00 -0.48612219029E+03  0.48612219029E+03  0.00000000000E+00 0. -1.
         23    2    1    2    0    0  0.30238953658E+03 -0.10650841340E+04  0.71181640233E+03  0.13190281373E+04  0.85492643598E+02 0.  0.
         11    1    3    3    0    0  0.29864417138E+03 -0.99237437456E+03  0.64830642521E+03  0.12224141939E+04  0.00000000000E+00 0.  1.
        -11    1    3    3    0    0  0.37453651990E+01 -0.72709759403E+02  0.63509977126E+02  0.96613943442E+02  0.00000000000E+00 0. -1.
         22    1    1    2    0    0 -0.30238953658E+03  0.10650841340E+04  0.14965713685E+04  0.18616040141E+04  0.00000000000E+00 0.  1.
<mgrwt>
<rscale>  0 0.22889833E+04</rscale>
<asrwt>0</asrwt>
<pdfrwt beam="1">  1        2 0.41453999E+00 0.22889833E+04</pdfrwt>
<pdfrwt beam="2">  1       -2 0.74788030E-01 0.22889833E+04</pdfrwt>
<totfact> 0.39021551E+00</totfact>
</mgrwt>
</event>
<event>
 6    1  0.1588846E-005  0.2520948E+04  0.7818608E-02  0.8395560E-01
          2   -1    0    0  501    0  0.00000000000E+00  0.00000000000E+00  0.75694688515E+03  0.75694688515E+03  0.00000000000E+00 0. -1.
         -2   -1    0    0    0  501 -0.00000000000E+00 -0.00000000000E+00 -0.20989515151E+04  0.20989515151E+04  0.00000000000E+00 0.  1.
         23    2    1    2    0    0  0.21433392707E+02  0.50602366844E+03  0.63485805019E+03  0.81518641679E+03  0.70461385751E+02 0.  0.
         13    1    3    3    0    0 -0.10842025853E+02  0.28765693767E+03  0.40075824778E+03  0.49342804590E+03  0.00000000000E+00 0.  1.
        -13    1    3    3    0    0  0.32275418560E+02  0.21836673077E+03  0.23409980241E+03  0.32175837089E+03  0.00000000000E+00 0. -1.
         22    1    1    2    0    0 -0.21433392707E+02 -0.50602366844E+03 -0.19768626801E+04  0.20407119834E+04  0.00000000000E+00 0.  1.
<mgrwt>
<rscale>  0 0.25209481E+04</rscale>
<asrwt>0</asrwt>
<pdfrwt beam="1">  1        2 0.11645337E+00 0.25209481E+04</pdfrwt>
<pdfrwt beam="2">  1       -2 0.32291562E+00 0.25209481E+04</pdfrwt>
<totfact> 0.75801002E-01</totfact>
</mgrwt>
</event>
<event>
 6    1  0.1588846E-005  0.2001478E+04  0.7818608E-02  0.8605930E-01
          1   -1    0    0  501    0  0.00000000000E+00  0.00000000000E+00  0.16401145755E+04  0.16401145755E+04  0.00000000000E+00 0. -1.
         -1   -1    0    0    0  501 -0.00000000000E+00 -0.00000000000E+00 -0.61061513426E+03  0.61061513426E+03  0.00000000000E+00 0.  1.
         23    2    1    2    0    0 -0.74011033183E+03  0.10442579342E+03 -0.22872027160E+03  0.78724588840E+03  0.93675378587E+02 0.  0.
         13    1    3    3    0    0 -0.27870667245E+03  0.84732651161E+02 -0.96433513715E+02  0.30684923661E+03  0.00000000000E+00 0.  1.
        -13    1    3    3    0    0 -0.46140365938E+03  0.19693142255E+02 -0.13228675788E+03  0.48039665179E+03  0.00000000000E+00 0. -1.
         22    1    1    2    0    0  0.74011033183E+03 -0.10442579342E+03  0.12582197129E+04  0.14634838214E+04  0.00000000000E+00 0. -1.
<mgrwt>
<rscale>  0 0.20014782E+04</rscale>
<asrwt>0</asrwt>
<pdfrwt beam="1">  1        1 0.25232532E+00 0.20014782E+04</pdfrwt>
<pdfrwt beam="2">  1       -1 0.93940790E-01 0.20014782E+04</pdfrwt>
<totfact> 0.53337199E+00</totfact>
</mgrwt>
</event>
<event>
 6    1  0.1588846E-005  0.1885704E+04  0.7818608E-02  0.8662006E-01
         -1   -1    0    0    0  501 -0.00000000000E+00  0.00000000000E+00  0.12891736809E+04  0.12891736809E+04  0.00000000000E+00 0.  1.
          1   -1    0    0  501    0  0.00000000000E+00 -0.00000000000E+00 -0.68956530583E+03  0.68956530583E+03  0.00000000000E+00 0. -1.
         23    2    1    2    0    0  0.42491591888E+03 -0.23844445116E+03  0.11447422745E+04  0.12475890277E+04  0.92920463462E+02 0.  0.
         11    1    3    3    0    0  0.82945485607E+02 -0.76615579396E+01  0.18032895551E+03  0.19863832774E+03  0.00000000000E+00 0. -1.
        -11    1    3    3    0    0  0.34197043328E+03 -0.23078289322E+03  0.96441331901E+03  0.10489506999E+04  0.00000000000E+00 0.  1.
         22    1    1    2    0    0 -0.42491591888E+03  0.23844445116E+03 -0.54513389940E+03  0.73114995910E+03  0.00000000000E+00 0. -1.
<mgrwt>
<rscale>  0 0.18857035E+04</rscale>
<asrwt>0</asrwt>
<pdfrwt beam="1">  1        1 0.10608697E+00 0.18857035E+04</pdfrwt>
<pdfrwt beam="2">  1       -1 0.19833441E+00 0.18857035E+04</pdfrwt>
<totfact> 0.40346870E+00</totfact>
</mgrwt>
</event>
<event>
 6    1  0.1588846E-005  0.2755115E+04  0.7818608E-02  0.8317340E-01
         -2   -1    0    0    0  501 -0.00000000000E+00  0.00000000000E+00  0.10258448822E+04  0.10258448822E+04  0.00000000000E+00 0.  1.
          2   -1    0    0  501    0  0.00000000000E+00 -0.00000000000E+00 -0.18498555481E+04  0.18498555481E+04  0.00000000000E+00 0. -1.
         23    2    1    2    0    0  0.79013839542E+03 -0.10920102998E+04 -0.12326709841E+03  0.13565405552E+04  0.90566669423E+02 0.  0.
         13    1    3    3    0    0  0.43804541112E+03 -0.62730793716E+03 -0.11309534513E+03  0.77342717002E+03  0.00000000000E+00 0.  1.
        -13    1    3    3    0    0  0.35209298430E+03 -0.46470236266E+03 -0.10171753279E+02  0.58311338522E+03  0.00000000000E+00 0. -1.
         22    1    1    2    0    0 -0.79013839542E+03  0.10920102998E+04 -0.70074356749E+03  0.15191598751E+04  0.00000000000E+00 0. -1.
<mgrwt>
<rscale>  0 0.27551151E+04</rscale>
<asrwt>0</asrwt>
<pdfrwt beam="1">  1        2 0.28459316E+00 0.27551151E+04</pdfrwt>
<pdfrwt beam="2">  1       -2 0.15782229E+00 0.27551151E+04</pdfrwt>
<totfact> 0.18489287E+00</totfact>
</mgrwt>
</event>
<event>
 6    1  0.1588846E-005  0.1353070E+04  0.7818608E-02  0.8988507E-01
         -1   -1    0    0    0  501 -0.00000000000E+00  0.00000000000E+00  0.49161718975E+03  0.49161718975E+03  0.00000000000E+00 0.  1.
          1   -1    0    0  501    0  0.00000000000E+00 -0.00000000000E+00 -0.93100847608E+03  0.93100847608E+03  0.00000000000E+00 0. -1.
         23    2    1    2    0    0  0.25902053488E+03  0.30174017896E+03  0.35125789868E+03  0.53760311988E+03  0.86580771658E+02 0.  0.
         13    1    3    3    0    0  0.76566722903E+02  0.15458321286E+03  0.15398599209E+03  0.23123606664E+03  0.00000000000E+00 0. -1.
        -13    1    3    3    0    0  0.18245381198E+03  0.14715696610E+03  0.19727190660E+03  0.30636705324E+03  0.00000000000E+00 0.  1.
         22    1    1    2    0    0 -0.25902053488E+03 -0.30174017896E+03 -0.79064918501E+03  0.88502254596E+03  0.00000000000E+00 0. -1.
<mgrwt>
<rscale>  0 0.13530702E+04</rscale>
<asrwt>0</asrwt>
<pdfrwt beam="1">  1        1 0.14323207E+00 0.13530702E+04</pdfrwt>
<pdfrwt beam="2">  1       -1 0.75633414E-01 0.13530702E+04</pdfrwt>
<totfact> 0.29520923E+01</totfact>
</mgrwt>
</event>
<event>
 6    1  0.1588846E-005  0.4087190E+04  0.7818608E-02  0.7987185E-01
          2   -1    0    0  501    0  0.00000000000E+00  0.00000000000E+00  0.23652795478E+04  0.23652795478E+04  0.00000000000E+00 0. -1.
         -2   -1    0    0    0  501 -0.00000000000E+00 -0.00000000000E+00 -0.17656606157E+04  0.17656606157E+04  0.00000000000E+00 0.  1.
         23    2    1    2    0    0  0.17377696573E+04 -0.39614067881E+03 -0.70855675369E+03  0.19200366277E+04  0.87847363063E+02 0.  0.
         11    1    3    3    0    0  0.58506640566E+03 -0.12940533529E+03 -0.28294854187E+03  0.66265248599E+03  0.00000000000E+00 0.  1.
        -11    1    3    3    0    0  0.11527032517E+04 -0.26673534352E+03 -0.42560821182E+03  0.12573841417E+04  0.00000000000E+00 0. -1.
         22    1    1    2    0    0 -0.17377696573E+04  0.39614067881E+03  0.13081756858E+04  0.22109035358E+04  0.00000000000E+00 0. -1.
<mgrwt>
<rscale>  0 0.40871902E+04</rscale>
<asrwt>0</asrwt>
<pdfrwt beam="1">  1        2 0.36388916E+00 0.40871902E+04</pdfrwt>
<pdfrwt beam="2">  1       -2 0.27164009E+00 0.40871902E+04</pdfrwt>
<totfact> 0.15441053E-01</totfact>
</mgrwt>
</event>
<event>
 6    1  0.1588846E-005  0.2394321E+04  0.7818608E-02  0.8441633E-01
          1   -1    0    0  501    0  0.00000000000E+00  0.00000000000E+00  0.74656670427E+03  0.74656670427E+03  0.00000000000E+00 0. -1.
         -1   -1    0    0    0  501 -0.00000000000E+00 -0.00000000000E+00 -0.19197121528E+04  0.19197121528E+04  0.00000000000E+00 0.  1.
         23    2    1    2    0    0 -0.41911543240E+03  0.78320484115E+03  0.30339401900E+03  0.94313162944E+03  0.91552011493E+02 0.  0.
         11    1    3    3    0    0 -0.33053287546E+03  0.54869996523E+03  0.19119674055E+03  0.66849070839E+03  0.00000000000E+00 0.  1.
        -11    1    3    3    0    0 -0.88582556934E+02  0.23450487592E+03  0.11219727846E+03  0.27464092105E+03  0.00000000000E+00 0. -1.
         22    1    1    2    0    0  0.41911543240E+03 -0.78320484115E+03 -0.14765394675E+04  0.17231472276E+04  0.00000000000E+00 0.  1.
<mgrwt>
<rscale>  0 0.23943209E+04</rscale>
<asrwt>0</asrwt>
<pdfrwt beam="1">  1        1 0.11485642E+00 0.23943209E+04</pdfrwt>
<pdfrwt beam="2">  1       -1 0.29534032E+00 0.23943209E+04</pdfrwt>
<totfact> 0.78314456E-01</totfact>
</mgrwt>
</event>
<event>
 6    1  0.1588846E-005  0.2215578E+04  0.7818608E-02  0.8511972E-01
         -1   -1    0    0    0  501 -0.00000000000E+00  0.00000000000E+00  0.13655523384E+04  0.13655523384E+04  0.00000000000E+00 0.  1.
          1   -1    0    0  501    0  0.00000000000E+00 -0.00000000000E+00 -0.89868130698E+03  0.89868130698E+03  0.00000000000E+00 0. -1.
         23    2    1    2    0    0  0.35570231605E+03  0.30965983080E+03  0.12560561870E+04  0.13448716068E+04  0.92677642729E+02 0.  0.
         11    1    3    3    0    0  0.27366410636E+03  0.23476939108E+03  0.83735771520E+03  0.91168890160E+03  0.00000000000E+00 0. -1.
        -11    1    3    3    0    0  0.82038209695E+02  0.74890439723E+02  0.41869847175E+03  0.43318270517E+03  0.00000000000E+00 0.  1.
         22    1    1    2    0    0 -0.35570231605E+03 -0.30965983080E+03 -0.78918515550E+03  0.91936203865E+03  0.00000000000E+00 0. -1.
<mgrwt>
<rscale>  0 0.22155779E+04</rscale>
<asrwt>0</asrwt>
<pdfrwt beam="1">  1        1 0.13825866E+00 0.22155779E+04</pdfrwt>
<pdfrwt beam="2">  1       -1 0.21008498E+00 0.22155779E+04</pdfrwt>
<totfact> 0.21322861E+00</totfact>
</mgrwt>
</event>
<event>
 6    1  0.1588846E-005  0.4240511E+04  0.7818608E-02  0.7957711E-01
          1   -1    0    0  501    0  0.00000000000E+00  0.00000000000E+00  0.27551382949E+04  0.27551382949E+04  0.00000000000E+00 0. -1.
         -1   -1    0    0    0  501 -0.00000000000E+00 -0.00000000000E+00 -0.16316726772E+04  0.16316726772E+04  0.00000000000E+00 0.  1.
         23    2    1    2    0    0 -0.12028704523E+04  0.15764345805E+04 -0.21161120060E+03  0.19963144919E+04  0.91918107978E+02 0.  0.
         13    1    3    3    0    0 -0.24890690849E+03  0.28941962692E+03 -0.12090160542E+02  0.38192216683E+03  0.00000000000E+00 0. -1.
        -13    1    3    3    0    0 -0.95396354377E+03  0.12870149536E+04 -0.19952104005E+03  0.16143923250E+04  0.00000000000E+00 0.  1.
         22    1    1    2    0    0  0.12028704523E+04 -0.15764345805E+04  0.13350768183E+04  0.23904964803E+04  0.00000000000E+00 0.  1.
<mgrwt>
<rscale>  0 0.42405112E+04</rscale>
<asrwt>0</asrwt>
<pdfrwt beam="1">  1        1 0.42386743E+00 0.42405112E+04</pdfrwt>
<pdfrwt beam="2">  1       -1 0.25102657E+00 0.42405112E+04</pdfrwt>
<totfact> 0.47253889E-02</totfact>
</mgrwt>
</event>
<event>
 6    1  0.1588846E-005  0.3131604E+04  0.7818608E-02  0.8207117E-01
          2   -1    0    0  501    0  0.00000000000E+00  0.00000000000E+00  0.22810963369E+04  0.22810963369E+04  0.00000000000E+00 0. -1.
         -2   -1    0    0    0  501 -0.00000000000E+00 -0.00000000000E+00 -0.10748062772E+04  0.10748062772E+04  0.00000000000E+00 0.  1.
         23    2    1    2    0    0  0.31044360310E+03 -0.15306710814E+04  0.70091216252E+03  0.17143375045E+04  0.91356605707E+02 0.  0.
         11    1    3    3    0    0  0.19789475676E+03 -0.10725814076E+04  0.52976242374E+03  0.12125351279E+04  0.00000000000E+00 0. -1.
        -11    1    3    3    0    0  0.11254884634E+03 -0.45808967381E+03  0.17114973878E+03  0.50180237659E+03  0.00000000000E+00 0.  1.
         22    1    1    2    0    0 -0.31044360310E+03  0.15306710814E+04  0.50537789722E+03  0.16415651096E+04  0.00000000000E+00 0.  1.
<mgrwt>
<rscale>  0 0.31316045E+04</rscale>
<asrwt>0</asrwt>
<pdfrwt beam="1">  1        2 0.35093790E+00 0.31316045E+04</pdfrwt>
<pdfrwt beam="2">  1       -2 0.16535481E+00 0.31316045E+04</pdfrwt>
<totfact> 0.90561924E-01</totfact>
</mgrwt>
</event>
<event>
 6    1  0.1588846E-005  0.4964191E+04  0.7818608E-02  0.7834055E-01
         -2   -1    0    0    0  501 -0.00000000000E+00  0.00000000000E+00  0.22447952140E+04  0.22447952140E+04  0.00000000000E+00 0.  1.
          2   -1    0    0  501    0  0.00000000000E+00 -0.00000000000E+00 -0.27444814625E+04  0.27444814625E+04  0.00000000000E+00 0. -1.
         23    2    1    2    0    0 -0.18040623122E+04  0.69234608014E+03 -0.18142806557E+04  0.26521540061E+04  0.91228575648E+02 0.  0.
         13    1    3    3    0    0 -0.61515892250E+03  0.19139993240E+03 -0.61854933298E+03  0.89311685204E+03  0.00000000000E+00 0.  1.
        -13    1    3    3    0    0 -0.11889033897E+04  0.50094614774E+03 -0.11957313227E+04  0.17590371540E+04  0.00000000000E+00 0. -1.
         22    1    1    2    0    0  0.18040623122E+04 -0.69234608014E+03  0.13145944072E+04  0.23371226704E+04  0.00000000000E+00 0.  1.
<mgrwt>
<rscale>  0 0.49641913E+04</rscale>
<asrwt>0</asrwt>
<pdfrwt beam="1">  1        2 0.42222791E+00 0.49641913E+04</pdfrwt>
<pdfrwt beam="2">  1       -2 0.34535311E+00 0.49641913E+04</pdfrwt>
<totfact> 0.30346548E-02</totfact>
</mgrwt>
</event>
<event>
 6    1  0.1683922E-005  0.2151280E+04  0.7818608E-02  0.8538984E-01
          1   -1    0    0  501    0  0.00000000000E+00  0.00000000000E+00  0.20516809741E+04  0.20516809741E+04  0.00000000000E+00 0. -1.
         -1   -1    0    0    0  501 -0.00000000000E+00 -0.00000000000E+00 -0.56392874834E+03  0.56392874834E+03  0.00000000000E+00 0.  1.
         23    2    1    2    0    0 -0.34418510914E+03 -0.50132130012E+03 -0.33067361477E+03  0.69820027925E+03  0.91390126044E+02 0.  0.
         11    1    3    3    0    0 -0.27316770574E+03 -0.33878269108E+03 -0.20665567148E+03  0.48176848568E+03  0.00000000000E+00 0.  1.
        -11    1    3    3    0    0 -0.71017403401E+02 -0.16253860904E+03 -0.12401794329E+03  0.21643179358E+03  0.00000000000E+00 0. -1.
         22    1    1    2    0    0  0.34418510914E+03  0.50132130012E+03  0.18184258405E+04  0.19174094432E+04  0.00000000000E+00 0. -1.
<mgrwt>
<rscale>  0 0.21512804E+04</rscale>
<asrwt>0</asrwt>
<pdfrwt beam="1">  1        1 0.31564322E+00 0.21512804E+04</pdfrwt>
<pdfrwt beam="2">  1       -1 0.86758270E-01 0.21512804E+04</pdfrwt>
<totfact> 0.32947265E+00</totfact>
</mgrwt>
</event>
<event>
 6    1  0.1588846E-005  0.1993846E+04  0.7818608E-02  0.8609503E-01
         -1   -1    0    0    0  501 -0.00000000000E+00  0.00000000000E+00  0.12039201869E+04  0.12039201869E+04  0.00000000000E+00 0.  1.
          1   -1    0    0  501    0  0.00000000000E+00 -0.00000000000E+00 -0.82551582456E+03  0.82551582456E+03  0.00000000000E+00 0. -1.
         23    2    1    2    0    0 -0.11776591985E+03 -0.83370532364E+03  0.72888096511E+03  0.11174232771E+04  0.91836487195E+02 0.  0.
         11    1    3    3    0    0 -0.65598919502E+02 -0.61292433587E+03  0.48507337878E+03  0.78439508064E+03  0.00000000000E+00 0. -1.
        -11    1    3    3    0    0 -0.52167000350E+02 -0.22078098777E+03  0.24380758634E+03  0.33302819647E+03  0.00000000000E+00 0.  1.
         22    1    1    2    0    0  0.11776591985E+03  0.83370532364E+03 -0.35047660277E+03  0.91201273436E+03  0.00000000000E+00 0. -1.
<mgrwt>
<rscale>  0 0.19938457E+04</rscale>
<asrwt>0</asrwt>
<pdfrwt beam="1">  1        1 0.12700243E+00 0.19938457E+04</pdfrwt>
<pdfrwt beam="2">  1       -1 0.18521849E+00 0.19938457E+04</pdfrwt>
<totfact> 0.37245842E+00</totfact>
</mgrwt>
</event>
<event>
 6    1  0.1588846E-005  0.3696413E+04  0.7818608E-02  0.8068757E-01
          3   -1    0    0  501    0  0.00000000000E+00  0.00000000000E+00  0.36160423998E+04  0.36160423998E+04  0.00000000000E+00 0. -1.
         -3   -1    0    0    0  501 -0.00000000000E+00 -0.00000000000E+00 -0.94464231721E+03  0.94464231721E+03  0.00000000000E+00 0.  1.
         23    2    1    2    0    0 -0.15835598577E+04 -0.37048050930E+03  0.25589623567E+03  0.16487134834E+04  0.88632026895E+02 0.  0.
         11    1    3    3    0    0 -0.10857959686E+04 -0.28317779219E+03  0.20632478962E+03  0.11409261441E+04  0.00000000000E+00 0.  1.
        -11    1    3    3    0    0 -0.49776388915E+03 -0.87302717116E+02  0.49571446056E+02  0.50778733936E+03  0.00000000000E+00 0. -1.
         22    1    1    2    0    0  0.15835598577E+04  0.37048050930E+03  0.24155038469E+04  0.29119712336E+04  0.00000000000E+00 0. -1.
<mgrwt>
<rscale>  0 0.36964127E+04</rscale>
<asrwt>0</asrwt>
<pdfrwt beam="1">  1        3 0.55631421E+00 0.36964127E+04</pdfrwt>
<pdfrwt beam="2">  1       -3 0.14532959E+00 0.36964127E+04</pdfrwt>
<totfact> 0.13405457E-03</totfact>
</mgrwt>
</event>
<event>
 6    1  0.1588846E-005  0.1306983E+04  0.7818608E-02  0.9024046E-01
         -1   -1    0    0    0  501 -0.00000000000E+00  0.00000000000E+00  0.44926726765E+03  0.44926726765E+03  0.00000000000E+00 0.  1.
          1   -1    0    0  501    0  0.00000000000E+00 -0.00000000000E+00 -0.95054971029E+03  0.95054971029E+03  0.00000000000E+00 0. -1.
         23    2    1    2    0    0 -0.18083176787E+03  0.22588631454E+03 -0.87547623990E+03  0.92679926868E+03  0.93666869362E+02 0.  0.
         13    1    3    3    0    0 -0.14909109195E+03  0.14646856860E+03 -0.71544976777E+03  0.74535197423E+03  0.00000000000E+00 0.  1.
        -13    1    3    3    0    0 -0.31740675919E+02  0.79417745942E+02 -0.16002647213E+03  0.18144729444E+03  0.00000000000E+00 0. -1.
         22    1    1    2    0    0  0.18083176787E+03 -0.22588631454E+03  0.37419379726E+03  0.47301770926E+03  0.00000000000E+00 0.  1.
<mgrwt>
<rscale>  0 0.13069826E+04</rscale>
<asrwt>0</asrwt>
<pdfrwt beam="1">  1        1 0.14623842E+00 0.13069826E+04</pdfrwt>
<pdfrwt beam="2">  1       -1 0.69118042E-01 0.13069826E+04</pdfrwt>
<totfact> 0.34440334E+01</totfact>
</mgrwt>
</event>
<event>
 6    1  0.1588846E-005  0.1998939E+04  0.7818608E-02  0.8607117E-01
         -2   -1    0    0    0  501 -0.00000000000E+00  0.00000000000E+00  0.99017771273E+03  0.99017771273E+03  0.00000000000E+00 0.  1.
          2   -1    0    0  501    0  0.00000000000E+00 -0.00000000000E+00 -0.10088481250E+04  0.10088481250E+04  0.00000000000E+00 0. -1.
         23    2    1    2    0    0 -0.52061334804E+03 -0.39311930870E+03 -0.76378906775E+03  0.10086810191E+04  0.92101081283E+02 0.  0.
         13    1    3    3    0    0 -0.12539280405E+03 -0.80534273383E+02 -0.12123332535E+03  0.19211101913E+03  0.00000000000E+00 0.  1.
        -13    1    3    3    0    0 -0.39522054400E+03 -0.31258503531E+03 -0.64255574240E+03  0.81656999993E+03  0.00000000000E+00 0. -1.
         22    1    1    2    0    0  0.52061334804E+03  0.39311930870E+03  0.74511865551E+03  0.99034481864E+03  0.00000000000E+00 0.  1.
<mgrwt>
<rscale>  0 0.19989386E+04</rscale>
<asrwt>0</asrwt>
<pdfrwt beam="1">  1        2 0.15520740E+00 0.19989386E+04</pdfrwt>
<pdfrwt beam="2">  1       -2 0.15233503E+00 0.19989386E+04</pdfrwt>
<totfact> 0.66416270E+00</totfact>
</mgrwt>
</event>
<event>
 6    1  0.1588846E-005  0.1317365E+04  0.7818608E-02  0.9015907E-01
          2   -1    0    0  501    0  0.00000000000E+00  0.00000000000E+00  0.51182441998E+03  0.51182441998E+03  0.00000000000E+00 0. -1.
         -2   -1    0    0    0  501 -0.00000000000E+00 -0.00000000000E+00 -0.84767906029E+03  0.84767906029E+03  0.00000000000E+00 0.  1.
         23    2    1    2    0    0  0.31581794677E+03  0.57288665703E+03 -0.21239799078E+03  0.69378458944E+03  0.91016771819E+02 0.  0.
         13    1    3    3    0    0  0.19232854221E+03  0.25709985488E+03 -0.11412956619E+03  0.34075821546E+03  0.00000000000E+00 0. -1.
        -13    1    3    3    0    0  0.12348940456E+03  0.31578680215E+03 -0.98268424584E+02  0.35302637397E+03  0.00000000000E+00 0.  1.
         22    1    1    2    0    0 -0.31581794677E+03 -0.57288665703E+03 -0.12345664953E+03  0.66571889083E+03  0.00000000000E+00 0. -1.
<mgrwt>
<rscale>  0 0.13173653E+04</rscale>
<asrwt>0</asrwt>
<pdfrwt beam="1">  1        2 0.78742219E-01 0.13173653E+04</pdfrwt>
<pdfrwt beam="2">  1       -2 0.13041216E+00 0.13173653E+04</pdfrwt>
<totfact> 0.25260900E+01</totfact>
</mgrwt>
</event>
<event>
 6    1  0.1588846E-005  0.1129220E+04  0.7818608E-02  0.9177171E-01
          2   -1    0    0  501    0  0.00000000000E+00  0.00000000000E+00  0.19068774244E+03  0.19068774244E+03  0.00000000000E+00 0. -1.
         -2   -1    0    0    0  501 -0.00000000000E+00 -0.00000000000E+00 -0.16717608283E+04  0.16717608283E+04  0.00000000000E+00 0.  1.
         23    2    1    2    0    0  0.21998278769E+02 -0.16556898960E+03 -0.16285904646E+04  0.16396069418E+04  0.90038921588E+02 0.  0.
         11    1    3    3    0    0  0.23222255085E+02 -0.17669242866E+03 -0.15532016151E+04  0.15633920636E+04  0.00000000000E+00 0.  1.
        -11    1    3    3    0    0 -0.12239763159E+01  0.11123439067E+02 -0.75388849544E+02  0.76214878143E+02  0.00000000000E+00 0. -1.
         22    1    1    2    0    0 -0.21998278769E+02  0.16556898960E+03  0.14751737875E+03  0.22284162900E+03  0.00000000000E+00 0. -1.
<mgrwt>
<rscale>  0 0.11292197E+04</rscale>
<asrwt>0</asrwt>
<pdfrwt beam="1">  1        2 0.29336577E-01 0.11292197E+04</pdfrwt>
<pdfrwt beam="2">  1       -2 0.25719397E+00 0.11292197E+04</pdfrwt>
<totfact> 0.10558497E+01</totfact>
</mgrwt>
</event>
<event>
 6    1  0.1588846E-005  0.1060610E+04  0.7818608E-02  0.9244458E-01
          1   -1    0    0  501    0  0.00000000000E+00  0.00000000000E+00  0.99226260324E+03  0.99226260324E+03  0.00000000000E+00 0. -1.
         -1   -1    0    0    0  501 -0.00000000000E+00 -0.00000000000E+00 -0.28341627299E+03  0.28341627299E+03  0.00000000000E+00 0.  1.
         23    2    1    2    0    0 -0.25022019968E+03 -0.48979898247E+02  0.91102445287E+03  0.95027885776E+03  0.89750626807E+02 0.  0.
         11    1    3    3    0    0 -0.22069401764E+03 -0.12956749495E+02  0.69597291885E+03  0.73024107701E+03  0.00000000000E+00 0. -1.
        -11    1    3    3    0    0 -0.29526182040E+02 -0.36023148752E+02  0.21505153402E+03  0.22003778075E+03  0.00000000000E+00 0.  1.
         22    1    1    2    0    0  0.25022019968E+03  0.48979898247E+02 -0.20217812262E+03  0.32540001848E+03  0.00000000000E+00 0.  1.
<mgrwt>
<rscale>  0 0.10606100E+04</rscale>
<asrwt>0</asrwt>
<pdfrwt beam="1">  1        1 0.15265578E+00 0.10606100E+04</pdfrwt>
<pdfrwt beam="2">  1       -1 0.43602504E-01 0.10606100E+04</pdfrwt>
<totfact> 0.79564777E+01</totfact>
</mgrwt>
</event>
<event>
 6    1  0.1588846E-005  0.2475002E+04  0.7818608E-02  0.8411946E-01
          2   -1    0    0  501    0  0.00000000000E+00  0.00000000000E+00  0.10572931798E+04  0.10572931798E+04  0.00000000000E+00 0. -1.
         -2   -1    0    0    0  501 -0.00000000000E+00 -0.00000000000E+00 -0.14484244021E+04  0.14484244021E+04  0.00000000000E+00 0.  1.
         23    2    1    2    0    0 -0.89174118069E+03  0.16761668173E+03  0.65365069131E+03  0.11219304117E+04  0.90393236402E+02 0.  0.
         13    1    3    3    0    0 -0.76449297119E+03  0.13480045662E+03  0.51911004849E+03  0.93386075436E+03  0.00000000000E+00 0.  1.
        -13    1    3    3    0    0 -0.12724820951E+03  0.32816225112E+02  0.13454064282E+03  0.18806965737E+03  0.00000000000E+00 0. -1.
         22    1    1    2    0    0  0.89174118069E+03 -0.16761668173E+03 -0.10447819136E+04  0.13837871702E+04  0.00000000000E+00 0.  1.
<mgrwt>
<rscale>  0 0.24750024E+04</rscale>
<asrwt>0</asrwt>
<pdfrwt beam="1">  1        2 0.16266049E+00 0.24750024E+04</pdfrwt>
<pdfrwt beam="2">  1       -2 0.22283452E+00 0.24750024E+04</pdfrwt>
<totfact> 0.19629169E+00</totfact>
</mgrwt>
</event>
<event>
 6    1  0.1627594E-005  0.3951771E+04  0.7818608E-02  0.8014347E-01
         -1   -1    0    0    0  501 -0.00000000000E+00  0.00000000000E+00  0.17807647420E+04  0.17807647420E+04  0.00000000000E+00 0.  1.
          1   -1    0    0  501    0  0.00000000000E+00 -0.00000000000E+00 -0.21923861350E+04  0.21923861350E+04  0.00000000000E+00 0. -1.
         23    2    1    2    0    0 -0.47177315390E+03 -0.13479516653E+04 -0.15772836046E+04  0.21296997677E+04  0.90851143890E+02 0.  0.
         13    1    3    3    0    0 -0.22465667944E+03 -0.62137334413E+03 -0.66328983394E+03  0.93623120020E+03  0.00000000000E+00 0. -1.
        -13    1    3    3    0    0 -0.24711647445E+03 -0.72657832122E+03 -0.91399377068E+03  0.11934685675E+04  0.00000000000E+00 0.  1.
         22    1    1    2    0    0  0.47177315390E+03  0.13479516653E+04  0.11656622117E+04  0.18434511093E+04  0.00000000000E+00 0.  1.
<mgrwt>
<rscale>  0 0.39517712E+04</rscale>
<asrwt>0</asrwt>
<pdfrwt beam="1">  1        1 0.33729017E+00 0.39517712E+04</pdfrwt>
<pdfrwt beam="2">  1       -1 0.27396381E+00 0.39517712E+04</pdfrwt>
<totfact> 0.84370067E-02</totfact>
</mgrwt>
</event>
<event>
 6    1  0.1588846E-005  0.1651103E+04  0.7818608E-02  0.8789754E-01
         -1   -1    0    0    0  501 -0.00000000000E+00  0.00000000000E+00  0.26771101625E+03  0.26771101625E+03  0.00000000000E+00 0.  1.
          1   -1    0    0  501    0  0.00000000000E+00 -0.00000000000E+00 -0.25457876972E+04  0.25457876972E+04  0.00000000000E+00 0. -1.
         23    2    1    2    0    0  0.54931624982E+03  0.49223690802E+03 -0.17647054774E+04  0.19148355348E+04  0.91455933422E+02 0.  0.
         11    1    3    3    0    0  0.41431336796E+03  0.40833531681E+03 -0.14480145138E+04  0.15604932970E+04  0.00000000000E+00 0. -1.
        -11    1    3    3    0    0  0.13500288186E+03  0.83901591202E+02 -0.31669096355E+03  0.35434223783E+03  0.00000000000E+00 0.  1.
         22    1    1    2    0    0 -0.54931624982E+03 -0.49223690802E+03 -0.51337120364E+03  0.89866317865E+03  0.00000000000E+00 0.  1.
<mgrwt>
<rscale>  0 0.16511032E+04</rscale>
<asrwt>0</asrwt>
<pdfrwt beam="1">  1        1 0.39165964E+00 0.16511032E+04</pdfrwt>
<pdfrwt beam="2">  1       -1 0.41186311E-01 0.16511032E+04</pdfrwt>
<totfact> 0.69573153E+00</totfact>
</mgrwt>
</event>
<event>
 6    1  0.1588846E-005  0.8770712E+03  0.7818608E-02  0.9454706E-01
         -1   -1    0    0    0  501 -0.00000000000E+00  0.00000000000E+00  0.94598458363E+02  0.94598458363E+02  0.00000000000E+00 0.  1.
          1   -1    0    0  501    0  0.00000000000E+00 -0.00000000000E+00 -0.20329450551E+04  0.20329450551E+04  0.00000000000E+00 0. -1.
         23    2    1    2    0    0 -0.21396482417E+03  0.77923789125E+01 -0.18950104601E+04  0.19090951491E+04  0.87965773319E+02 0.  0.
         11    1    3    3    0    0 -0.11296194557E+03  0.35752299379E+02 -0.75035762132E+03  0.75965465044E+03  0.00000000000E+00 0. -1.
        -11    1    3    3    0    0 -0.10100287860E+03 -0.27959920467E+02 -0.11446528388E+04  0.11494404987E+04  0.00000000000E+00 0.  1.
         22    1    1    2    0    0  0.21396482417E+03 -0.77923789125E+01 -0.43336136624E+02  0.21844836435E+03  0.00000000000E+00 0.  1.
<mgrwt>
<rscale>  0 0.87707119E+03</rscale>
<asrwt>0</asrwt>
<pdfrwt beam="1">  1        1 0.31276077E+00 0.87707119E+03</pdfrwt>
<pdfrwt beam="2">  1       -1 0.14553609E-01 0.87707119E+03</pdfrwt>
<totfact> 0.99643576E+01</totfact>
</mgrwt>
</event>
<event>
 6    1  0.1588846E-005  0.2036127E+04  0.7818608E-02  0.8589914E-01
         -2   -1    0    0    0  501 -0.00000000000E+00  0.00000000000E+00  0.74966904995E+03  0.74966904995E+03  0.00000000000E+00 0.  1.
          2   -1    0    0  501    0  0.00000000000E+00 -0.00000000000E+00 -0.13825475204E+04  0.13825475204E+04  0.00000000000E+00 0. -1.
         23    2    1    2    0    0 -0.16221025927E+03 -0.69629796381E+03 -0.10730883813E+04  0.12926167918E+04  0.90534377781E+02 0.  0.
         13    1    3    3    0    0 -0.10360365290E+03 -0.52265998250E+03 -0.85864519112E+03  0.10105338878E+04  0.00000000000E+00 0. -1.
        -13    1    3    3    0    0 -0.58606606370E+02 -0.17363798131E+03 -0.21444319021E+03  0.28208290393E+03  0.00000000000E+00 0.  1.
         22    1    1    2    0    0  0.16221025927E+03  0.69629796381E+03  0.44020991086E+03  0.83959977861E+03  0.00000000000E+00 0.  1.
<mgrwt>
<rscale>  0 0.20361268E+04</rscale>
<asrwt>0</asrwt>
<pdfrwt beam="1">  1        2 0.21269962E+00 0.20361268E+04</pdfrwt>
<pdfrwt beam="2">  1       -2 0.11533370E+00 0.20361268E+04</pdfrwt>
<totfact> 0.80328679E+00</totfact>
</mgrwt>
</event>
<event>
 6    1  0.1588846E-005  0.1323981E+04  0.7818608E-02  0.9010761E-01
          2   -1    0    0  501    0  0.00000000000E+00  0.00000000000E+00  0.12268830538E+04  0.12268830538E+04  0.00000000000E+00 0. -1.
         -2   -1    0    0    0  501 -0.00000000000E+00 -0.00000000000E+00 -0.35719070553E+03  0.35719070553E+03  0.00000000000E+00 0.  1.
         23    2    1    2    0    0  0.32442176371E+03  0.37255867173E+03  0.95855952024E+03  0.10821307159E+04  0.90117078325E+02 0.  0.
         11    1    3    3    0    0  0.23691964602E+03  0.22931652063E+03  0.70144687168E+03  0.77507722137E+03  0.00000000000E+00 0. -1.
        -11    1    3    3    0    0  0.87502117691E+02  0.14324215110E+03  0.25711264856E+03  0.30705349452E+03  0.00000000000E+00 0.  1.
         22    1    1    2    0    0 -0.32442176371E+03 -0.37255867173E+03 -0.88867171919E+02  0.50194304347E+03  0.00000000000E+00 0.  1.
<mgrwt>
<rscale>  0 0.13239807E+04</rscale>
<asrwt>0</asrwt>
<pdfrwt beam="1">  1        2 0.18875124E+00 0.13239807E+04</pdfrwt>
<pdfrwt beam="2">  1       -2 0.54952417E-01 0.13239807E+04</pdfrwt>
<totfact> 0.55628595E+01</totfact>
</mgrwt>
</event>
<event>
 6    1  0.1588846E-005  0.2610279E+04  0.7818608E-02  0.8364718E-01
         -3   -1    0    0    0  501 -0.00000000000E+00  0.00000000000E+00  0.15737576016E+04  0.15737576016E+04  0.00000000000E+00 0.  1.
          3   -1    0    0  501    0  0.00000000000E+00 -0.00000000000E+00 -0.10823705262E+04  0.10823705262E+04  0.00000000000E+00 0. -1.
         23    2    1    2    0    0  0.11417837447E+04 -0.60750027054E+03  0.41163619031E+03  0.13603322712E+04  0.91284372518E+02 0.  0.
         11    1    3    3    0    0  0.16537936959E+03 -0.61058309508E+02  0.77677210198E+02  0.19264527513E+03  0.00000000000E+00 0.  1.
        -11    1    3    3    0    0  0.97640437508E+03 -0.54644196103E+03  0.33395898011E+03  0.11676869961E+04  0.00000000000E+00 0. -1.
         22    1    1    2    0    0 -0.11417837447E+04  0.60750027054E+03  0.79750885083E+02  0.12957958566E+04  0.00000000000E+00 0. -1.
<mgrwt>
<rscale>  0 0.26102788E+04</rscale>
<asrwt>0</asrwt>
<pdfrwt beam="1">  1        3 0.16651854E+00 0.26102788E+04</pdfrwt>
<pdfrwt beam="2">  1       -3 0.24211656E+00 0.26102788E+04</pdfrwt>
<totfact> 0.45902664E-02</totfact>
</mgrwt>
</event>
<event>
 6    1  0.1588846E-005  0.2538014E+04  0.7818608E-02  0.8389566E-01
         -2   -1    0    0    0  501 -0.00000000000E+00  0.00000000000E+00  0.85822448077E+03  0.85822448077E+03  0.00000000000E+00 0.  1.
          2   -1    0    0  501    0  0.00000000000E+00 -0.00000000000E+00 -0.18764081085E+04  0.18764081085E+04  0.00000000000E+00 0. -1.
         23    2    1    2    0    0 -0.76141804742E+03  0.90288268292E+03 -0.10048173147E+04  0.15534750044E+04  0.93124493388E+02 0.  0.
         11    1    3    3    0    0 -0.76079660255E+02  0.56623746479E+02 -0.98042878373E+02  0.13640663243E+03  0.00000000000E+00 0.  1.
        -11    1    3    3    0    0 -0.68533838717E+03  0.84625893644E+03 -0.90677443632E+03  0.14170683720E+04  0.00000000000E+00 0. -1.
         22    1    1    2    0    0  0.76141804742E+03 -0.90288268292E+03 -0.13366313053E+02  0.11811575849E+04  0.00000000000E+00 0.  1.
<mgrwt>
<rscale>  0 0.25380145E+04</rscale>
<asrwt>0</asrwt>
<pdfrwt beam="1">  1        2 0.28867817E+00 0.25380145E+04</pdfrwt>
<pdfrwt beam="2">  1       -2 0.13203454E+00 0.25380145E+04</pdfrwt>
<totfact> 0.29052766E+00</totfact>
</mgrwt>
</event>
<event>
 6    1  0.1588846E-005  0.3742039E+04  0.7818608E-02  0.8058709E-01
         -2   -1    0    0    0  501 -0.00000000000E+00  0.00000000000E+00  0.35285928334E+04  0.35285928334E+04  0.00000000000E+00 0.  1.
          2   -1    0    0  501    0  0.00000000000E+00 -0.00000000000E+00 -0.99209931077E+03  0.99209931077E+03  0.00000000000E+00 0. -1.
         23    2    1    2    0    0  0.11746597214E+04 -0.12385968580E+02 -0.48860753957E+03  0.12755087426E+04  0.90588913663E+02 0.  0.
         11    1    3    3    0    0  0.30775245587E+03  0.27938499235E+02 -0.15543375993E+03  0.34590719501E+03  0.00000000000E+00 0. -1.
        -11    1    3    3    0    0  0.86690726558E+03 -0.40324467815E+02 -0.33317377964E+03  0.92960154757E+03  0.00000000000E+00 0.  1.
         22    1    1    2    0    0 -0.11746597214E+04  0.12385968580E+02  0.30251010622E+04  0.32451834016E+04  0.00000000000E+00 0.  1.
<mgrwt>
<rscale>  0 0.37420393E+04</rscale>
<asrwt>0</asrwt>
<pdfrwt beam="1">  1        2 0.15263066E+00 0.37420393E+04</pdfrwt>
<pdfrwt beam="2">  1       -2 0.54286043E+00 0.37420393E+04</pdfrwt>
<totfact> 0.19083132E-02</totfact>
</mgrwt>
</event>
<event>
 6    1  0.1588846E-005  0.1046463E+04  0.7818608E-02  0.9259004E-01
          1   -1    0    0  501    0  0.00000000000E+00  0.00000000000E+00  0.32210873092E+04  0.32210873092E+04  0.00000000000E+00 0. -1.
         -1   -1    0    0    0  501 -0.00000000000E+00 -0.00000000000E+00 -0.84993368851E+02  0.84993368851E+02  0.00000000000E+00 0.  1.
         23    2    1    2    0    0 -0.35631744519E+03 -0.31816839445E+03  0.93495621027E+03  0.10537040320E+04  0.89195419869E+02 0.  0.
         13    1    3    3    0    0 -0.34928897834E+02 -0.33770505613E+02  0.47584199944E+02  0.68005375064E+02  0.00000000000E+00 0. -1.
        -13    1    3    3    0    0 -0.32138854736E+03 -0.28439788883E+03  0.88737201033E+03  0.98569865692E+03  0.00000000000E+00 0.  1.
         22    1    1    2    0    0  0.35631744519E+03  0.31816839445E+03  0.22011377301E+04  0.22523766461E+04  0.00000000000E+00 0. -1.
<mgrwt>
<rscale>  0 0.10464627E+04</rscale>
<asrwt>0</asrwt>
<pdfrwt beam="1">  1        1 0.49555180E+00 0.10464627E+04</pdfrwt>
<pdfrwt beam="2">  1       -1 0.13075905E-01 0.10464627E+04</pdfrwt>
<totfact> 0.17270546E+01</totfact>
</mgrwt>
</event>
<event>
 6    1  0.1588846E-005  0.2450796E+04  0.7818608E-02  0.8420727E-01
         -2   -1    0    0    0  501 -0.00000000000E+00  0.00000000000E+00  0.54060003772E+03  0.54060003772E+03  0.00000000000E+00 0.  1.
          2   -1    0    0  501    0  0.00000000000E+00 -0.00000000000E+00 -0.27776546391E+04  0.27776546391E+04  0.00000000000E+00 0. -1.
         23    2    1    2    0    0  0.53638763025E+03  0.74375566178E+03 -0.22171420417E+04  0.24010411334E+04  0.91627053226E+02 0.  0.
         13    1    3    3    0    0  0.22018303603E+02  0.63055274201E+02 -0.20094297965E+03  0.21175186981E+03  0.00000000000E+00 0.  1.
        -13    1    3    3    0    0  0.51436932664E+03  0.68070038758E+03 -0.20161990620E+04  0.21892892636E+04  0.00000000000E+00 0. -1.
         22    1    1    2    0    0 -0.53638763025E+03 -0.74375566178E+03 -0.19912559746E+02  0.91721354348E+03  0.00000000000E+00 0.  1.
<mgrwt>
<rscale>  0 0.24507960E+04</rscale>
<asrwt>0</asrwt>
<pdfrwt beam="1">  1        2 0.42733147E+00 0.24507960E+04</pdfrwt>
<pdfrwt beam="2">  1       -2 0.83169239E-01 0.24507960E+04</pdfrwt>
<totfact> 0.27045849E+00</totfact>
</mgrwt>
</event>
<event>
 6    1  0.1588846E-005  0.6241654E+04  0.7818608E-02  0.7661141E-01
         -2   -1    0    0    0  501 -0.00000000000E+00  0.00000000000E+00  0.38949979134E+04  0.38949979134E+04  0.00000000000E+00 0.  1.
          2   -1    0    0  501    0  0.00000000000E+00 -0.00000000000E+00 -0.25005302018E+04  0.25005302018E+04  0.00000000000E+00 0. -1.
         23    2    1    2    0    0  0.64030606610E+03 -0.11689884415E+04 -0.21933411937E+04  0.25681401579E+04  0.89846779186E+02 0.  0.
         13    1    3    3    0    0  0.22322153236E+03 -0.40783899137E+03 -0.84892061991E+03  0.96789809087E+03  0.00000000000E+00 0. -1.
        -13    1    3    3    0    0  0.41708453374E+03 -0.76114945012E+03 -0.13444205738E+04  0.16002420670E+04  0.00000000000E+00 0.  1.
         22    1    1    2    0    0 -0.64030606610E+03  0.11689884415E+04  0.35878089054E+04  0.38273879573E+04  0.00000000000E+00 0.  1.
<mgrwt>
<rscale>  0 0.62416536E+04</rscale>
<asrwt>0</asrwt>
<pdfrwt beam="1">  1        2 0.38469695E+00 0.62416536E+04</pdfrwt>
<pdfrwt beam="2">  1       -2 0.59923045E+00 0.62416536E+04</pdfrwt>
<totfact> 0.12024937E-03</totfact>
</mgrwt>
</event>
<event>
 6    1  0.1588846E-005  0.1907541E+04  0.7818608E-02  0.8651112E-01
          2   -1    0    0  501    0  0.00000000000E+00  0.00000000000E+00  0.64632387532E+03  0.64632387532E+03  0.00000000000E+00 0. -1.
         -2   -1    0    0    0  501 -0.00000000000E+00 -0.00000000000E+00 -0.14074653937E+04  0.14074653937E+04  0.00000000000E+00 0.  1.
         23    2    1    2    0    0 -0.59603945499E+02 -0.82183207639E+03  0.13112041006E+03  0.83925563792E+03  0.90536576786E+02 0.  0.
         11    1    3    3    0    0 -0.39209622050E+02 -0.24059878266E+03  0.33538761899E+01  0.24379585141E+03  0.00000000000E+00 0. -1.
        -11    1    3    3    0    0 -0.20394323449E+02 -0.58123329374E+03  0.12776653387E+03  0.59545978651E+03  0.00000000000E+00 0.  1.
         22    1    1    2    0    0  0.59603945499E+02  0.82183207639E+03 -0.89226192840E+03  0.12145336311E+04  0.00000000000E+00 0.  1.
<mgrwt>
<rscale>  0 0.19075413E+04</rscale>
<asrwt>0</asrwt>
<pdfrwt beam="1">  1        2 0.99434443E-01 0.19075413E+04</pdfrwt>
<pdfrwt beam="2">  1       -2 0.21653314E+00 0.19075413E+04</pdfrwt>
<totfact> 0.44040445E+00</totfact>
</mgrwt>
</event>
<event>
 6    1  0.1588846E-005  0.2787924E+04  0.7818608E-02  0.8307027E-01
         -2   -1    0    0    0  501 -0.00000000000E+00  0.00000000000E+00  0.94392243448E+03  0.94392243448E+03  0.00000000000E+00 0.  1.
          2   -1    0    0  501    0  0.00000000000E+00 -0.00000000000E+00 -0.20585699174E+04  0.20585699174E+04  0.00000000000E+00 0. -1.
         23    2    1    2    0    0  0.31905606955E+03 -0.21626133149E+03  0.88310271635E+03  0.96789863378E+03  0.91605778438E+02 0.  0.
         13    1    3    3    0    0  0.29242328968E+03 -0.16309315807E+03  0.78087919185E+03  0.84963702298E+03  0.00000000000E+00 0.  1.
        -13    1    3    3    0    0  0.26632779863E+02 -0.53168173420E+02  0.10222352450E+03  0.11826161080E+03  0.00000000000E+00 0. -1.
         22    1    1    2    0    0 -0.31905606955E+03  0.21626133149E+03 -0.19977501993E+04  0.20345937181E+04  0.00000000000E+00 0. -1.
<mgrwt>
<rscale>  0 0.27879242E+04</rscale>
<asrwt>0</asrwt>
<pdfrwt beam="1">  1        2 0.31670306E+00 0.27879242E+04</pdfrwt>
<pdfrwt beam="2">  1       -2 0.14521884E+00 0.27879242E+04</pdfrwt>
<totfact> 0.17619040E+00</totfact>
</mgrwt>
</event>
<event>
 6    1  0.1588846E-005  0.2810420E+04  0.7818608E-02  0.8300041E-01
          2   -1    0    0  501    0  0.00000000000E+00  0.00000000000E+00  0.17753482607E+04  0.17753482607E+04  0.00000000000E+00 0. -1.
         -2   -1    0    0    0  501 -0.00000000000E+00 -0.00000000000E+00 -0.11122409547E+04  0.11122409547E+04  0.00000000000E+00 0.  1.
         23    2    1    2    0    0  0.12332005804E+04  0.39814564390E+03  0.88655050894E+03  0.15725871278E+04  0.88061594823E+02 0.  0.
         13    1    3    3    0    0  0.58695241030E+03  0.16527006032E+03  0.46229371536E+03  0.76520768688E+03  0.00000000000E+00 0. -1.
        -13    1    3    3    0    0  0.64624817009E+03  0.23287558358E+03  0.42425679358E+03  0.80737944095E+03  0.00000000000E+00 0.  1.
         22    1    1    2    0    0 -0.12332005804E+04 -0.39814564390E+03 -0.22344320290E+03  0.13150020875E+04  0.00000000000E+00 0.  1.
<mgrwt>
<rscale>  0 0.28104199E+04</rscale>
<asrwt>0</asrwt>
<pdfrwt beam="1">  1        2 0.27313050E+00 0.28104199E+04</pdfrwt>
<pdfrwt beam="2">  1       -2 0.17111399E+00 0.28104199E+04</pdfrwt>
<totfact> 0.16205594E+00</totfact>
</mgrwt>
</event>
<event>
 6    1  0.1588846E-005  0.4180847E+04  0.7818608E-02  0.7969026E-01
         -1   -1    0    0    0  501 -0.00000000000E+00  0.00000000000E+00  0.14502227783E+04  0.14502227783E+04  0.00000000000E+00 0.  1.
          1   -1    0    0  501    0  0.00000000000E+00 -0.00000000000E+00 -0.30132403745E+04  0.30132403745E+04  0.00000000000E+00 0. -1.
         23    2    1    2    0    0 -0.17573236763E+04  0.31198814756E+03 -0.19415001868E+04  0.26389708456E+04  0.96026252629E+02 0.  0.
         11    1    3    3    0    0 -0.28457056401E+03  0.46310026467E+02 -0.26361166322E+03  0.39066114913E+03  0.00000000000E+00 0.  1.
        -11    1    3    3    0    0 -0.14727531123E+04  0.26567812109E+03 -0.16778885236E+04  0.22483096965E+04  0.00000000000E+00 0. -1.
         22    1    1    2    0    0  0.17573236763E+04 -0.31198814756E+03  0.37848259062E+03  0.18244923072E+04  0.00000000000E+00 0.  1.
<mgrwt>
<rscale>  0 0.41808467E+04</rscale>
<asrwt>0</asrwt>
<pdfrwt beam="1">  1        1 0.46357544E+00 0.41808467E+04</pdfrwt>
<pdfrwt beam="2">  1       -1 0.22311120E+00 0.41808467E+04</pdfrwt>
<totfact> 0.47269339E-02</totfact>
</mgrwt>
</event>
<event>
 6    1  0.1588846E-005  0.3970314E+04  0.7818608E-02  0.8010562E-01
         -1   -1    0    0    0  501 -0.00000000000E+00  0.00000000000E+00  0.17450827054E+04  0.17450827054E+04  0.00000000000E+00 0.  1.
          1   -1    0    0  501    0  0.00000000000E+00 -0.00000000000E+00 -0.22582591000E+04  0.22582591000E+04  0.00000000000E+00 0. -1.
         23    2    1    2    0    0  0.11489083280E+04 -0.14599646800E+04 -0.95843088521E+03  0.20929128550E+04  0.10103090571E+03 0.  0.
         13    1    3    3    0    0  0.37890635339E+03 -0.44840806835E+03 -0.25563123662E+03  0.64030238914E+03  0.00000000000E+00 0. -1.
        -13    1    3    3    0    0  0.77000197463E+03 -0.10115566117E+04 -0.70279964859E+03  0.14526104659E+04  0.00000000000E+00 0.  1.
         22    1    1    2    0    0 -0.11489083280E+04  0.14599646800E+04  0.44525449056E+03  0.19104289504E+04  0.00000000000E+00 0.  1.
<mgrwt>
<rscale>  0 0.39703143E+04</rscale>
<asrwt>0</asrwt>
<pdfrwt beam="1">  1        1 0.34742448E+00 0.39703143E+04</pdfrwt>
<pdfrwt beam="2">  1       -1 0.26847426E+00 0.39703143E+04</pdfrwt>
<totfact> 0.82440605E-02</totfact>
</mgrwt>
</event>
<event>
 6    1  0.1588846E-005  0.1970905E+04  0.7818608E-02  0.8620346E-01
         -2   -1    0    0    0  501 -0.00000000000E+00  0.00000000000E+00  0.54535000452E+03  0.54535000452E+03  0.00000000000E+00 0.  1.
          2   -1    0    0  501    0  0.00000000000E+00 -0.00000000000E+00 -0.17807214209E+04  0.17807214209E+04  0.00000000000E+00 0. -1.
         23    2    1    2    0    0  0.76469868503E+03 -0.49883815781E+03 -0.10490518210E+04  0.13942352927E+04  0.98887520537E+02 0.  0.
         11    1    3    3    0    0  0.21758304727E+03 -0.12399879459E+03 -0.35302633054E+03  0.43283446440E+03  0.00000000000E+00 0. -1.
        -11    1    3    3    0    0  0.54711563777E+03 -0.37483936322E+03 -0.69602549046E+03  0.96140082831E+03  0.00000000000E+00 0.  1.
         22    1    1    2    0    0 -0.76469868503E+03  0.49883815781E+03 -0.18631959535E+03  0.93183613269E+03  0.00000000000E+00 0.  1.
<mgrwt>
<rscale>  0 0.19709048E+04</rscale>
<asrwt>0</asrwt>
<pdfrwt beam="1">  1        2 0.27395715E+00 0.19709048E+04</pdfrwt>
<pdfrwt beam="2">  1       -2 0.83899999E-01 0.19709048E+04</pdfrwt>
<totfact> 0.10221741E+01</totfact>
</mgrwt>
</event>
<event>
 6    1  0.1588846E-005  0.2483282E+04  0.7818608E-02  0.8408966E-01
          1   -1    0    0  501    0  0.00000000000E+00  0.00000000000E+00  0.15731001141E+04  0.15731001141E+04  0.00000000000E+00 0. -1.
         -1   -1    0    0    0  501 -0.00000000000E+00 -0.00000000000E+00 -0.98002215504E+03  0.98002215504E+03  0.00000000000E+00 0.  1.
         23    2    1    2    0    0 -0.11878289568E+04  0.84863277527E+02 -0.57719164294E+02  0.11960385199E+04  0.95064360956E+02 0.  0.
         13    1    3    3    0    0 -0.94595944405E+03  0.10210332637E+03 -0.29407548989E+02  0.95190816941E+03  0.00000000000E+00 0.  1.
        -13    1    3    3    0    0 -0.24186951277E+03 -0.17240048842E+02 -0.28311615305E+02  0.24413035054E+03  0.00000000000E+00 0. -1.
         22    1    1    2    0    0  0.11878289568E+04 -0.84863277527E+02  0.65079712335E+03  0.13570837492E+04  0.00000000000E+00 0. -1.
<mgrwt>
<rscale>  0 0.24832825E+04</rscale>
<asrwt>0</asrwt>
<pdfrwt beam="1">  1        1 0.24201540E+00 0.24832825E+04</pdfrwt>
<pdfrwt beam="2">  1       -1 0.15077264E+00 0.24832825E+04</pdfrwt>
<totfact> 0.17826797E+00</totfact>
</mgrwt>
</event>
<event>
 6    1  0.1588846E-005  0.1378779E+04  0.7818608E-02  0.8969324E-01
          2   -1    0    0  501    0  0.00000000000E+00  0.00000000000E+00  0.12857045178E+04  0.12857045178E+04  0.00000000000E+00 0. -1.
         -2   -1    0    0    0  501 -0.00000000000E+00 -0.00000000000E+00 -0.36964797597E+03  0.36964797597E+03  0.00000000000E+00 0.  1.
         23    2    1    2    0    0 -0.91854505624E+02  0.38187515125E+03 -0.21570168270E+03  0.45737813673E+03  0.91660584150E+02 0.  0.
         13    1    3    3    0    0 -0.39727647178E+02  0.36613261806E+02 -0.25150048078E+02  0.59593135584E+02  0.00000000000E+00 0. -1.
        -13    1    3    3    0    0 -0.52126858445E+02  0.34526188945E+03 -0.19055163462E+03  0.39778500114E+03  0.00000000000E+00 0.  1.
         22    1    1    2    0    0  0.91854505624E+02 -0.38187515125E+03  0.11317582245E+04  0.11979743570E+04  0.00000000000E+00 0. -1.
<mgrwt>
<rscale>  0 0.13787793E+04</rscale>
<asrwt>0</asrwt>
<pdfrwt beam="1">  1        2 0.19780069E+00 0.13787793E+04</pdfrwt>
<pdfrwt beam="2">  1       -2 0.56868920E-01 0.13787793E+04</pdfrwt>
<totfact> 0.47625729E+01</totfact>
</mgrwt>
</event>
<event>
 6    1  0.1588846E-005  0.2254865E+04  0.7818608E-02  0.8495933E-01
          2   -1    0    0  501    0  0.00000000000E+00  0.00000000000E+00  0.12584520315E+04  0.12584520315E+04  0.00000000000E+00 0.  1.
         -2   -1    0    0    0  501 -0.00000000000E+00 -0.00000000000E+00 -0.10100532890E+04  0.10100532890E+04  0.00000000000E+00 0. -1.
         23    2    1    2    0    0 -0.24324215356E+03  0.17677415981E+03  0.12158381842E+04  0.12554135565E+04  0.85935201742E+02 0.  0.
         13    1    3    3    0    0 -0.11943756903E+03  0.36079733233E+02  0.44980905755E+03  0.46679253240E+03  0.00000000000E+00 0. -1.
        -13    1    3    3    0    0 -0.12380458453E+03  0.14069442657E+03  0.76602912666E+03  0.78862102413E+03  0.00000000000E+00 0.  1.
         22    1    1    2    0    0  0.24324215356E+03 -0.17677415981E+03 -0.96743944170E+03  0.10130917640E+04  0.00000000000E+00 0. -1.
<mgrwt>
<rscale>  0 0.22548646E+04</rscale>
<asrwt>0</asrwt>
<pdfrwt beam="1">  1        2 0.19360800E+00 0.22548646E+04</pdfrwt>
<pdfrwt beam="2">  1       -2 0.15539281E+00 0.22548646E+04</pdfrwt>
<totfact> 0.43387914E+00</totfact>
</mgrwt>
</event>
<event>
 6    1  0.1588846E-005  0.1563880E+04  0.7818608E-02  0.8843050E-01
          1   -1    0    0  501    0  0.00000000000E+00  0.00000000000E+00  0.44565912778E+03  0.44565912778E+03  0.00000000000E+00 0. -1.
         -1   -1    0    0    0  501 -0.00000000000E+00 -0.00000000000E+00 -0.13719683988E+04  0.13719683988E+04  0.00000000000E+00 0.  1.
         23    2    1    2    0    0 -0.69541409279E+03 -0.29007658003E+02 -0.87130314990E+03  0.11194385278E+04  0.97628037681E+02 0.  0.
         11    1    3    3    0    0 -0.51800898977E+03  0.84170865009E+01 -0.59478839529E+03  0.78878222343E+03  0.00000000000E+00 0. -1.
        -11    1    3    3    0    0 -0.17740510302E+03 -0.37424744504E+02 -0.27651475461E+03  0.33065630433E+03  0.00000000000E+00 0.  1.
         22    1    1    2    0    0  0.69541409279E+03  0.29007658003E+02 -0.55006121105E+02  0.69818899879E+03  0.00000000000E+00 0. -1.
<mgrwt>
<rscale>  0 0.15638801E+04</rscale>
<asrwt>0</asrwt>
<pdfrwt beam="1">  1        1 0.68562944E-01 0.15638801E+04</pdfrwt>
<pdfrwt beam="2">  1       -1 0.21107206E+00 0.15638801E+04</pdfrwt>
<totfact> 0.63112691E+00</totfact>
</mgrwt>
</event>
<event>
 6    1  0.1588846E-005  0.1819351E+04  0.7818608E-02  0.8696076E-01
         -1   -1    0    0    0  501 -0.00000000000E+00  0.00000000000E+00  0.45245153289E+03  0.45245153289E+03  0.00000000000E+00 0.  1.
          1   -1    0    0  501    0  0.00000000000E+00 -0.00000000000E+00 -0.18289460605E+04  0.18289460605E+04  0.00000000000E+00 0. -1.
         23    2    1    2    0    0 -0.17748465922E+03 -0.84222818354E+03 -0.10503377111E+04  0.13609480367E+04  0.90117334318E+02 0.  0.
         11    1    3    3    0    0 -0.12266746475E+02 -0.25716972778E+03 -0.30739189896E+03  0.40096947703E+03  0.00000000000E+00 0. -1.
        -11    1    3    3    0    0 -0.16521791275E+03 -0.58505845575E+03 -0.74294581214E+03  0.95997855972E+03  0.00000000000E+00 0.  1.
         22    1    1    2    0    0  0.17748465922E+03  0.84222818354E+03 -0.32615681653E+03  0.92044955667E+03  0.00000000000E+00 0.  1.
<mgrwt>
<rscale>  0 0.18193509E+04</rscale>
<asrwt>0</asrwt>
<pdfrwt beam="1">  1        1 0.28137633E+00 0.18193509E+04</pdfrwt>
<pdfrwt beam="2">  1       -1 0.69607926E-01 0.18193509E+04</pdfrwt>
<totfact> 0.76553901E+00</totfact>
</mgrwt>
</event>
<event>
 6    1  0.1588846E-005  0.1756457E+04  0.7818608E-02  0.8729804E-01
         -2   -1    0    0    0  501 -0.00000000000E+00  0.00000000000E+00  0.76278440406E+03  0.76278440406E+03  0.00000000000E+00 0.  1.
          2   -1    0    0  501    0  0.00000000000E+00 -0.00000000000E+00 -0.10111446591E+04  0.10111446591E+04  0.00000000000E+00 0. -1.
         23    2    1    2    0    0  0.63897408049E+02 -0.84331096113E+03 -0.35350405535E+03  0.92168996835E+03  0.96389961573E+02 0.  0.
         13    1    3    3    0    0 -0.21017887825E+02 -0.16828559365E+03 -0.50760492865E+02  0.17702660894E+03  0.00000000000E+00 0. -1.
        -13    1    3    3    0    0  0.84915295874E+02 -0.67502536748E+03 -0.30274356248E+03  0.74466335941E+03  0.00000000000E+00 0.  1.
         22    1    1    2    0    0 -0.63897408049E+02  0.84331096113E+03  0.10514380033E+03  0.85223909478E+03  0.00000000000E+00 0.  1.
<mgrwt>
<rscale>  0 0.17564571E+04</rscale>
<asrwt>0</asrwt>
<pdfrwt beam="1">  1        2 0.15556072E+00 0.17564571E+04</pdfrwt>
<pdfrwt beam="2">  1       -2 0.11735145E+00 0.17564571E+04</pdfrwt>
<totfact> 0.13172123E+01</totfact>
</mgrwt>
</event>
<event>
 6    1  0.1588846E-005  0.2788183E+04  0.7818608E-02  0.8306946E-01
          1   -1    0    0  501    0  0.00000000000E+00  0.00000000000E+00  0.12468557330E+04  0.12468557330E+04  0.00000000000E+00 0. -1.
         -1   -1    0    0    0  501 -0.00000000000E+00 -0.00000000000E+00 -0.15587140713E+04  0.15587140713E+04  0.00000000000E+00 0.  1.
         23    2    1    2    0    0  0.86975373293E+03 -0.58213766085E+03  0.76837160780E+03  0.13014911666E+04  0.90158287909E+02 0.  0.
         11    1    3    3    0    0  0.57276733637E+03 -0.35949551162E+03  0.44797582326E+03  0.81116076256E+03  0.00000000000E+00 0. -1.
        -11    1    3    3    0    0  0.29698639657E+03 -0.22264214924E+03  0.32039578454E+03  0.49033040403E+03  0.00000000000E+00 0.  1.
         22    1    1    2    0    0 -0.86975373293E+03  0.58213766085E+03 -0.10802299460E+04  0.15040786377E+04  0.00000000000E+00 0.  1.
<mgrwt>
<rscale>  0 0.27881833E+04</rscale>
<asrwt>0</asrwt>
<pdfrwt beam="1">  1        1 0.19182396E+00 0.27881833E+04</pdfrwt>
<pdfrwt beam="2">  1       -1 0.23980216E+00 0.27881833E+04</pdfrwt>
<totfact> 0.69611657E-01</totfact>
</mgrwt>
</event>
<event>
 6    1  0.1588846E-005  0.2345053E+04  0.7818608E-02  0.8460366E-01
          1   -1    0    0  501    0  0.00000000000E+00  0.00000000000E+00  0.24945408235E+04  0.24945408235E+04  0.00000000000E+00 0. -1.
         -1   -1    0    0    0  501 -0.00000000000E+00 -0.00000000000E+00 -0.55113076208E+03  0.55113076208E+03  0.00000000000E+00 0.  1.
         23    2    1    2    0    0 -0.11612706821E+04 -0.71254263809E+02  0.80467749837E+03  0.14176855238E+04  0.93271651474E+02 0.  0.
         11    1    3    3    0    0 -0.10214180379E+03  0.55601591151E+01  0.43563308160E+02  0.11118284610E+03  0.00000000000E+00 0. -1.
        -11    1    3    3    0    0 -0.10591288783E+04 -0.76814422924E+02  0.76111419021E+03  0.13065026777E+04  0.00000000000E+00 0.  1.
         22    1    1    2    0    0  0.11612706821E+04  0.71254263809E+02  0.11387325630E+04  0.16279860617E+04  0.00000000000E+00 0. -1.
<mgrwt>
<rscale>  0 0.23450528E+04</rscale>
<asrwt>0</asrwt>
<pdfrwt beam="1">  1        1 0.38377551E+00 0.23450528E+04</pdfrwt>
<pdfrwt beam="2">  1       -1 0.84789349E-01 0.23450528E+04</pdfrwt>
<totfact> 0.16934453E+00</totfact>
</mgrwt>
</event>
<event>
 6    1  0.1588846E-005  0.1175132E+04  0.7818608E-02  0.9134906E-01
          2   -1    0    0  501    0  0.00000000000E+00  0.00000000000E+00  0.17064107046E+04  0.17064107046E+04  0.00000000000E+00 0. -1.
         -2   -1    0    0    0  501 -0.00000000000E+00 -0.00000000000E+00 -0.20231594182E+03  0.20231594182E+03  0.00000000000E+00 0.  1.
         23    2    1    2    0    0  0.20853245708E+03  0.31773586739E+03  0.36386231901E+02  0.39260983077E+03  0.91524063856E+02 0.  0.
         11    1    3    3    0    0  0.15718547003E+03  0.17353843762E+03 -0.44657751040E+01  0.23418540618E+03  0.00000000000E+00 0.  1.
        -11    1    3    3    0    0  0.51346987049E+02  0.14419742976E+03  0.40852007005E+02  0.15842442459E+03  0.00000000000E+00 0. -1.
         22    1    1    2    0    0 -0.20853245708E+03 -0.31773586739E+03  0.14677085308E+04  0.15161168156E+04  0.00000000000E+00 0. -1.
<mgrwt>
<rscale>  0 0.11751325E+04</rscale>
<asrwt>0</asrwt>
<pdfrwt beam="1">  1        2 0.26252471E+00 0.11751325E+04</pdfrwt>
<pdfrwt beam="2">  1       -2 0.31125531E-01 0.11751325E+04</pdfrwt>
<totfact> 0.91992545E+01</totfact>
</mgrwt>
</event>
<event>
 6    1  0.1588846E-005  0.1803210E+04  0.7818608E-02  0.8704594E-01
         -1   -1    0    0    0  501 -0.00000000000E+00  0.00000000000E+00  0.92988215161E+03  0.92988215161E+03  0.00000000000E+00 0.  1.
          1   -1    0    0  501    0  0.00000000000E+00 -0.00000000000E+00 -0.87418776741E+03  0.87418776741E+03  0.00000000000E+00 0. -1.
         23    2    1    2    0    0  0.14021500919E+03  0.58608167139E+03 -0.63982621827E+03  0.88379774036E+03  0.92568255566E+02 0.  0.
         11    1    3    3    0    0  0.44560120685E+02  0.26825814780E+03 -0.34951477529E+03  0.44284152511E+03  0.00000000000E+00 0.  1.
        -11    1    3    3    0    0  0.95654888505E+02  0.31782352359E+03 -0.29031144299E+03  0.44095621526E+03  0.00000000000E+00 0. -1.
         22    1    1    2    0    0 -0.14021500919E+03 -0.58608167139E+03  0.69552060247E+03  0.92027217865E+03  0.00000000000E+00 0.  1.
<mgrwt>
<rscale>  0 0.18032100E+04</rscale>
<asrwt>0</asrwt>
<pdfrwt beam="1">  1        1 0.13449043E+00 0.18032100E+04</pdfrwt>
<pdfrwt beam="2">  1       -1 0.14305879E+00 0.18032100E+04</pdfrwt>
<totfact> 0.71407142E+00</totfact>
</mgrwt>
</event>
<event>
 6    1  0.1588846E-005  0.1532927E+04  0.7818608E-02  0.8862847E-01
         -2   -1    0    0    0  501 -0.00000000000E+00  0.00000000000E+00  0.12699070169E+04  0.12699070169E+04  0.00000000000E+00 0.  1.
          2   -1    0    0  501    0  0.00000000000E+00 -0.00000000000E+00 -0.46260601262E+03  0.46260601262E+03  0.00000000000E+00 0. -1.
         23    2    1    2    0    0  0.30285456063E+02 -0.40296517396E+03  0.11375215356E+04  0.12106473959E+04  0.91726402884E+02 0.  0.
         11    1    3    3    0    0  0.63392282894E+02 -0.27295740448E+03  0.76728983627E+03  0.81685862855E+03  0.00000000000E+00 0. -1.
        -11    1    3    3    0    0 -0.33106826831E+02 -0.13000776948E+03  0.37023169931E+03  0.39378876734E+03  0.00000000000E+00 0.  1.
         22    1    1    2    0    0 -0.30285456063E+02  0.40296517396E+03 -0.33022053131E+03  0.52186563364E+03  0.00000000000E+00 0. -1.
<mgrwt>
<rscale>  0 0.15329274E+04</rscale>
<asrwt>0</asrwt>
<pdfrwt beam="1">  1        2 0.71170156E-01 0.15329274E+04</pdfrwt>
<pdfrwt beam="2">  1       -2 0.19537031E+00 0.15329274E+04</pdfrwt>
<totfact> 0.92574019E+00</totfact>
</mgrwt>
</event>
<event>
 6    1  0.1588846E-005  0.1998293E+04  0.7818608E-02  0.8607419E-01
          2   -1    0    0  501    0  0.00000000000E+00  0.00000000000E+00  0.20912642713E+04  0.20912642713E+04  0.00000000000E+00 0.  1.
         -2   -1    0    0    0  501 -0.00000000000E+00 -0.00000000000E+00 -0.47736383571E+03  0.47736383571E+03  0.00000000000E+00 0. -1.
         23    2    1    2    0    0  0.38729797412E+03  0.65550817255E+03  0.16359351307E+04  0.18069351158E+04  0.95079314407E+02 0.  0.
         13    1    3    3    0    0  0.24880433624E+03  0.50115411422E+03  0.11674828027E+04  0.12946332061E+04  0.00000000000E+00 0. -1.
        -13    1    3    3    0    0  0.13849363788E+03  0.15435405832E+03  0.46845232803E+03  0.51230190971E+03  0.00000000000E+00 0.  1.
         22    1    1    2    0    0 -0.38729797412E+03 -0.65550817255E+03 -0.22034695085E+02  0.76169299118E+03  0.00000000000E+00 0. -1.
<mgrwt>
<rscale>  0 0.19982932E+04</rscale>
<asrwt>0</asrwt>
<pdfrwt beam="1">  1        2 0.32173296E+00 0.19982932E+04</pdfrwt>
<pdfrwt beam="2">  1       -2 0.73440591E-01 0.19982932E+04</pdfrwt>
<totfact> 0.92362696E+00</totfact>
</mgrwt>
</event>
<event>
 6    1  0.1588846E-005  0.2360159E+04  0.7818608E-02  0.8454572E-01
         -2   -1    0    0    0  501 -0.00000000000E+00  0.00000000000E+00  0.12011793405E+04  0.12011793405E+04  0.00000000000E+00 0.  1.
          2   -1    0    0  501    0  0.00000000000E+00 -0.00000000000E+00 -0.11593505542E+04  0.11593505542E+04  0.00000000000E+00 0. -1.
         23    2    1    2    0    0 -0.23981786398E+03  0.77521588132E+03  0.87549851668E+03  0.11971393798E+04  0.90403382172E+02 0.  0.
         13    1    3    3    0    0 -0.12627368869E+03  0.32301765598E+03  0.31980860300E+03  0.47176582441E+03  0.00000000000E+00 0.  1.
        -13    1    3    3    0    0 -0.11354417529E+03  0.45219822534E+03  0.55568991367E+03  0.72537355542E+03  0.00000000000E+00 0. -1.
         22    1    1    2    0    0  0.23981786398E+03 -0.77521588132E+03 -0.83366973040E+03  0.11633905148E+04  0.00000000000E+00 0. -1.
<mgrwt>
<rscale>  0 0.23601593E+04</rscale>
<asrwt>0</asrwt>
<pdfrwt beam="1">  1        2 0.17836162E+00 0.23601593E+04</pdfrwt>
<pdfrwt beam="2">  1       -2 0.18479682E+00 0.23601593E+04</pdfrwt>
<totfact> 0.30386306E+00</totfact>
</mgrwt>
</event>
<event>
 6    1  0.1588846E-005  0.2684805E+04  0.7818608E-02  0.8339952E-01
         -2   -1    0    0    0  501 -0.00000000000E+00  0.00000000000E+00  0.20722585476E+04  0.20722585476E+04  0.00000000000E+00 0.  1.
          2   -1    0    0  501    0  0.00000000000E+00 -0.00000000000E+00 -0.86960392735E+03  0.86960392735E+03  0.00000000000E+00 0. -1.
         23    2    1    2    0    0 -0.61943609487E+03 -0.49620696118E+03 -0.58156398025E+03  0.98908024482E+03  0.10070076270E+03 0.  0.
         13    1    3    3    0    0 -0.50571052381E+03 -0.37319807075E+03 -0.41708203084E+03  0.75430587586E+03  0.00000000000E+00 0.  1.
        -13    1    3    3    0    0 -0.11372557106E+03 -0.12300889043E+03 -0.16448194941E+03  0.23477436896E+03  0.00000000000E+00 0. -1.
         22    1    1    2    0    0  0.61943609487E+03  0.49620696118E+03  0.17842186005E+04  0.19527822302E+04  0.00000000000E+00 0.  1.
<mgrwt>
<rscale>  0 0.26848048E+04</rscale>
<asrwt>0</asrwt>
<pdfrwt beam="1">  1        2 0.13378522E+00 0.26848048E+04</pdfrwt>
<pdfrwt beam="2">  1       -2 0.31880901E+00 0.26848048E+04</pdfrwt>
<totfact> 0.65804161E-01</totfact>
</mgrwt>
</event>
<event>
 6    1  0.1588846E-005  0.3185202E+04  0.7818608E-02  0.8192736E-01
          2   -1    0    0  501    0  0.00000000000E+00  0.00000000000E+00  0.27492421487E+04  0.27492421487E+04  0.00000000000E+00 0.  1.
         -2   -1    0    0    0  501 -0.00000000000E+00 -0.00000000000E+00 -0.92257360099E+03  0.92257360099E+03  0.00000000000E+00 0. -1.
         23    2    1    2    0    0 -0.77847257644E+03 -0.27881662989E+03 -0.65310486367E+03  0.10578083975E+04  0.93028907223E+02 0.  0.
         11    1    3    3    0    0 -0.39676121190E+03 -0.17651247839E+03 -0.29949361395E+03  0.52751543967E+03  0.00000000000E+00 0. -1.
        -11    1    3    3    0    0 -0.38171136454E+03 -0.10230415150E+03 -0.35361124972E+03  0.53029295787E+03  0.00000000000E+00 0.  1.
         22    1    1    2    0    0  0.77847257644E+03  0.27881662989E+03  0.24797734114E+04  0.26140073522E+04  0.00000000000E+00 0.  1.
<mgrwt>
<rscale>  0 0.31852022E+04</rscale>
<asrwt>0</asrwt>
<pdfrwt beam="1">  1        2 0.42296033E+00 0.31852022E+04</pdfrwt>
<pdfrwt beam="2">  1       -2 0.14193440E+00 0.31852022E+04</pdfrwt>
<totfact> 0.72464062E-01</totfact>
</mgrwt>
</event>
<event>
 6    1  0.1661380E-005  0.3459020E+04  0.7818608E-02  0.8123571E-01
         -1   -1    0    0    0  501 -0.00000000000E+00  0.00000000000E+00  0.15935253785E+04  0.15935253785E+04  0.00000000000E+00 0.  1.
          1   -1    0    0  501    0  0.00000000000E+00 -0.00000000000E+00 -0.18770993682E+04  0.18770993682E+04  0.00000000000E+00 0. -1.
         23    2    1    2    0    0 -0.12746657939E+03  0.81749708888E+03  0.13809351516E+04  0.16118240848E+04  0.80285543058E+02 0.  0.
         11    1    3    3    0    0 -0.79854611585E+02  0.27249895303E+03  0.45404752507E+03  0.53552926476E+03  0.00000000000E+00 0.  1.
        -11    1    3    3    0    0 -0.47611967803E+02  0.54499813585E+03  0.92688762649E+03  0.10762948201E+04  0.00000000000E+00 0. -1.
         22    1    1    2    0    0  0.12746657939E+03 -0.81749708888E+03 -0.16645091413E+04  0.18588006619E+04  0.00000000000E+00 0. -1.
<mgrwt>
<rscale>  0 0.34590204E+04</rscale>
<asrwt>0</asrwt>
<pdfrwt beam="1">  1        1 0.28878452E+00 0.34590204E+04</pdfrwt>
<pdfrwt beam="2">  1       -1 0.24515775E+00 0.34590204E+04</pdfrwt>
<totfact> 0.22171659E-01</totfact>
</mgrwt>
</event>
<event>
 6    1  0.1588846E-005  0.1256249E+04  0.7818608E-02  0.9064998E-01
          2   -1    0    0  501    0  0.00000000000E+00  0.00000000000E+00  0.26127739819E+04  0.26127739819E+04  0.00000000000E+00 0. -1.
         -2   -1    0    0    0  501 -0.00000000000E+00 -0.00000000000E+00 -0.15100446555E+03  0.15100446555E+03  0.00000000000E+00 0.  1.
         23    2    1    2    0    0 -0.99193648924E+01  0.62352221202E+03  0.13199896357E+04  0.14628020301E+04  0.92405617626E+02 0.  0.
         11    1    3    3    0    0  0.15785123048E+00  0.22328709052E+03  0.57912963413E+03  0.62068372207E+03  0.00000000000E+00 0.  1.
        -11    1    3    3    0    0 -0.10077216123E+02  0.40023512150E+03  0.74086000158E+03  0.84211830802E+03  0.00000000000E+00 0. -1.
         22    1    1    2    0    0  0.99193648924E+01 -0.62352221202E+03  0.11417798806E+04  0.13009764174E+04  0.00000000000E+00 0. -1.
<mgrwt>
<rscale>  0 0.12562492E+04</rscale>
<asrwt>0</asrwt>
<pdfrwt beam="1">  1        2 0.40196519E+00 0.12562492E+04</pdfrwt>
<pdfrwt beam="2">  1       -2 0.23231458E-01 0.12562492E+04</pdfrwt>
<totfact> 0.48488507E+01</totfact>
</mgrwt>
</event>
<event>
 6    1  0.1588846E-005  0.3098841E+04  0.7818608E-02  0.8216056E-01
         -2   -1    0    0    0  501 -0.00000000000E+00  0.00000000000E+00  0.14178936920E+04  0.14178936920E+04  0.00000000000E+00 0.  1.
          2   -1    0    0  501    0  0.00000000000E+00 -0.00000000000E+00 -0.16931480884E+04  0.16931480884E+04  0.00000000000E+00 0. -1.
         23    2    1    2    0    0  0.61694660541E+02 -0.53129982391E+03 -0.15962321588E+04  0.16858863563E+04  0.90387871684E+02 0.  0.
         13    1    3    3    0    0  0.14172703027E+02 -0.20643256488E+03 -0.75537045462E+03  0.78319843786E+03  0.00000000000E+00 0.  1.
        -13    1    3    3    0    0  0.47521957514E+02 -0.32486725902E+03 -0.84086170419E+03  0.90268791839E+03  0.00000000000E+00 0. -1.
         22    1    1    2    0    0 -0.61694660541E+02  0.53129982391E+03  0.13209777624E+04  0.14251554241E+04  0.00000000000E+00 0.  1.
<mgrwt>
<rscale>  0 0.30988411E+04</rscale>
<asrwt>0</asrwt>
<pdfrwt beam="1">  1        2 0.26048432E+00 0.30988411E+04</pdfrwt>
<pdfrwt beam="2">  1       -2 0.21813749E+00 0.30988411E+04</pdfrwt>
<totfact> 0.85325830E-01</totfact>
</mgrwt>
</event>
<event>
 6    1  0.1588846E-005  0.4315519E+04  0.7818608E-02  0.7943755E-01
         -1   -1    0    0    0  501 -0.00000000000E+00  0.00000000000E+00  0.10554565822E+04  0.10554565822E+04  0.00000000000E+00 0.  1.
          1   -1    0    0  501    0  0.00000000000E+00 -0.00000000000E+00 -0.44112918431E+04  0.44112918431E+04  0.00000000000E+00 0. -1.
         23    2    1    2    0    0  0.95858464778E+03  0.18790108177E+04 -0.22484673402E+04  0.30843483976E+04  0.89629670872E+02 0.  0.
         13    1    3    3    0    0  0.34108996372E+03  0.76365182436E+03 -0.87981750080E+03  0.12139132205E+04  0.00000000000E+00 0.  1.
        -13    1    3    3    0    0  0.61749468406E+03  0.11153589933E+04 -0.13686498394E+04  0.18704351771E+04  0.00000000000E+00 0. -1.
         22    1    1    2    0    0 -0.95858464778E+03 -0.18790108177E+04 -0.11073679207E+04  0.23824000277E+04  0.00000000000E+00 0. -1.
<mgrwt>
<rscale>  0 0.43155194E+04</rscale>
<asrwt>0</asrwt>
<pdfrwt beam="1">  1        1 0.67866028E+00 0.43155194E+04</pdfrwt>
<pdfrwt beam="2">  1       -1 0.16237794E+00 0.43155194E+04</pdfrwt>
<totfact> 0.84205099E-03</totfact>
</mgrwt>
</event>
<event>
 6    1  0.1588846E-005  0.1763138E+04  0.7818608E-02  0.8726152E-01
         -2   -1    0    0    0  501 -0.00000000000E+00  0.00000000000E+00  0.40544572499E+03  0.40544572499E+03  0.00000000000E+00 0.  1.
          2   -1    0    0  501    0  0.00000000000E+00 -0.00000000000E+00 -0.19168138911E+04  0.19168138911E+04  0.00000000000E+00 0. -1.
         23    2    1    2    0    0 -0.60048411025E+03  0.54681094543E+03 -0.12013809608E+04  0.14529636687E+04  0.90575011969E+02 0.  0.
         13    1    3    3    0    0 -0.16886619769E+03  0.18816291001E+03 -0.31564359288E+03  0.40441556740E+03  0.00000000000E+00 0.  1.
        -13    1    3    3    0    0 -0.43161791257E+03  0.35864803542E+03 -0.88573736789E+03  0.10485481013E+04  0.00000000000E+00 0. -1.
         22    1    1    2    0    0  0.60048411025E+03 -0.54681094543E+03 -0.30998720530E+03  0.86929594740E+03  0.00000000000E+00 0.  1.
<mgrwt>
<rscale>  0 0.17631381E+04</rscale>
<asrwt>0</asrwt>
<pdfrwt beam="1">  1        2 0.29489445E+00 0.17631381E+04</pdfrwt>
<pdfrwt beam="2">  1       -2 0.62376265E-01 0.17631381E+04</pdfrwt>
<totfact> 0.16780024E+01</totfact>
</mgrwt>
</event>
<event>
 6    1  0.1588846E-005  0.3057025E+04  0.7818608E-02  0.8227632E-01
         -2   -1    0    0    0  501 -0.00000000000E+00  0.00000000000E+00  0.71225654195E+03  0.71225654195E+03  0.00000000000E+00 0.  1.
          2   -1    0    0  501    0  0.00000000000E+00 -0.00000000000E+00 -0.32802089608E+04  0.32802089608E+04  0.00000000000E+00 0. -1.
         23    2    1    2    0    0  0.61282624887E+03  0.79776354205E+03  0.21554924606E+03  0.10327587269E+04  0.90257577143E+02 0.  0.
         13    1    3    3    0    0  0.59591087558E+02  0.12658006183E+03  0.21125975102E+02  0.14149175451E+03  0.00000000000E+00 0. -1.
        -13    1    3    3    0    0  0.55323516131E+03  0.67118348022E+03  0.19442327096E+03  0.89126697242E+03  0.00000000000E+00 0.  1.
         22    1    1    2    0    0 -0.61282624887E+03 -0.79776354205E+03 -0.27835016649E+04  0.29597067758E+04  0.00000000000E+00 0. -1.
<mgrwt>
<rscale>  0 0.30570249E+04</rscale>
<asrwt>0</asrwt>
<pdfrwt beam="1">  1        2 0.50464754E+00 0.30570249E+04</pdfrwt>
<pdfrwt beam="2">  1       -2 0.10957793E+00 0.30570249E+04</pdfrwt>
<totfact> 0.64821094E-01</totfact>
</mgrwt>
</event>
<event>
 6    1  0.1588846E-005  0.1754925E+04  0.7818608E-02  0.8730644E-01
          1   -1    0    0  501    0  0.00000000000E+00  0.00000000000E+00  0.27970168928E+04  0.27970168928E+04  0.00000000000E+00 0. -1.
         -1   -1    0    0    0  501 -0.00000000000E+00 -0.00000000000E+00 -0.27527211437E+03  0.27527211437E+03  0.00000000000E+00 0.  1.
         23    2    1    2    0    0 -0.42869128478E+03 -0.19095042951E+03  0.25573150584E+04  0.26016473930E+04  0.92035674797E+02 0.  0.
         11    1    3    3    0    0 -0.25579899308E+03 -0.12763251761E+03  0.13110838939E+04  0.13418882820E+04  0.00000000000E+00 0.  1.
        -11    1    3    3    0    0 -0.17289229170E+03 -0.63317911893E+02  0.12462311644E+04  0.12597591110E+04  0.00000000000E+00 0. -1.
         22    1    1    2    0    0  0.42869128478E+03  0.19095042951E+03 -0.35570279967E+02  0.47064161417E+03  0.00000000000E+00 0.  1.
<mgrwt>
<rscale>  0 0.17549254E+04</rscale>
<asrwt>0</asrwt>
<pdfrwt beam="1">  1        1 0.43031027E+00 0.17549254E+04</pdfrwt>
<pdfrwt beam="2">  1       -1 0.42349558E-01 0.17549254E+04</pdfrwt>
<totfact> 0.43603343E+00</totfact>
</mgrwt>
</event>
<event>
 6    1  0.1588846E-005  0.1418629E+04  0.7818608E-02  0.8940443E-01
          2   -1    0    0  501    0  0.00000000000E+00  0.00000000000E+00  0.97410658466E+03  0.97410658466E+03  0.00000000000E+00 0.  1.
         -2   -1    0    0    0  501 -0.00000000000E+00 -0.00000000000E+00 -0.51650132620E+03  0.51650132620E+03  0.00000000000E+00 0. -1.
         23    2    1    2    0    0 -0.32320078469E+03  0.38140294127E+03  0.75542595012E+03  0.90869372886E+03  0.71616869030E+02 0.  0.
         11    1    3    3    0    0 -0.19195062176E+03  0.23941694929E+03  0.40083743497E+03  0.50481300109E+03  0.00000000000E+00 0.  1.
        -11    1    3    3    0    0 -0.13125016294E+03  0.14198599198E+03  0.35458851515E+03  0.40388072777E+03  0.00000000000E+00 0. -1.
         22    1    1    2    0    0  0.32320078469E+03 -0.38140294127E+03 -0.29782069166E+03  0.58191418200E+03  0.00000000000E+00 0. -1.
<mgrwt>
<rscale>  0 0.14186294E+04</rscale>
<asrwt>0</asrwt>
<pdfrwt beam="1">  1        2 0.14986255E+00 0.14186294E+04</pdfrwt>
<pdfrwt beam="2">  1       -2 0.79461743E-01 0.14186294E+04</pdfrwt>
<totfact> 0.35723200E+01</totfact>
</mgrwt>
</event>
<event>
 6    1  0.1588846E-005  0.2011990E+04  0.7818608E-02  0.8601035E-01
          1   -1    0    0  501    0  0.00000000000E+00  0.00000000000E+00  0.18815337607E+04  0.18815337607E+04  0.00000000000E+00 0. -1.
         -1   -1    0    0    0  501 -0.00000000000E+00 -0.00000000000E+00 -0.53787291279E+03  0.53787291279E+03  0.00000000000E+00 0.  1.
         23    2    1    2    0    0 -0.87844515363E+02 -0.73343345814E+03  0.14908217012E+04  0.16662150557E+04  0.89899781669E+02 0.  0.
         11    1    3    3    0    0 -0.52054931193E+02 -0.40735345458E+03  0.72781467210E+03  0.83567981293E+03  0.00000000000E+00 0. -1.
        -11    1    3    3    0    0 -0.35789584170E+02 -0.32608000356E+03  0.76300702908E+03  0.83053524277E+03  0.00000000000E+00 0.  1.
         22    1    1    2    0    0  0.87844515363E+02  0.73343345814E+03 -0.14716085326E+03  0.75319161780E+03  0.00000000000E+00 0.  1.
<mgrwt>
<rscale>  0 0.20119901E+04</rscale>
<asrwt>0</asrwt>
<pdfrwt beam="1">  1        1 0.28946673E+00 0.20119901E+04</pdfrwt>
<pdfrwt beam="2">  1       -1 0.82749679E-01 0.20119901E+04</pdfrwt>
<totfact> 0.48211849E+00</totfact>
</mgrwt>
</event>
<event>
 6    1  0.1588846E-005  0.5274417E+04  0.7818608E-02  0.7787516E-01
          2   -1    0    0  501    0  0.00000000000E+00  0.00000000000E+00  0.29490747541E+04  0.29490747541E+04  0.00000000000E+00 0. -1.
         -2   -1    0    0    0  501 -0.00000000000E+00 -0.00000000000E+00 -0.23583221245E+04  0.23583221245E+04  0.00000000000E+00 0.  1.
         23    2    1    2    0    0  0.16435434527E+04 -0.37839217734E+03 -0.17431867221E+04  0.24278676431E+04  0.10689070846E+03 0.  0.
         11    1    3    3    0    0  0.69272463813E+03 -0.12572335569E+03 -0.78662885124E+03  0.10556792771E+04  0.00000000000E+00 0.  1.
        -11    1    3    3    0    0  0.95081881456E+03 -0.25266882165E+03 -0.95655787083E+03  0.13721883660E+04  0.00000000000E+00 0. -1.
         22    1    1    2    0    0 -0.16435434527E+04  0.37839217734E+03  0.23339393516E+04  0.28795292355E+04  0.00000000000E+00 0. -1.
<mgrwt>
<rscale>  0 0.52744168E+04</rscale>
<asrwt>0</asrwt>
<pdfrwt beam="1">  1        2 0.45370381E+00 0.52744168E+04</pdfrwt>
<pdfrwt beam="2">  1       -2 0.36281879E+00 0.52744168E+04</pdfrwt>
<totfact> 0.17217816E-02</totfact>
</mgrwt>
</event>
<event>
 6    1  0.1588846E-005  0.3498047E+04  0.7818608E-02  0.8114253E-01
          1   -1    0    0  501    0  0.00000000000E+00  0.00000000000E+00  0.18121601967E+04  0.18121601967E+04  0.00000000000E+00 0. -1.
         -1   -1    0    0    0  501 -0.00000000000E+00 -0.00000000000E+00 -0.16880867943E+04  0.16880867943E+04  0.00000000000E+00 0.  1.
         23    2    1    2    0    0 -0.14480879179E+04  0.61851434450E+03  0.82110012942E+03  0.17782235095E+04  0.91404676856E+02 0.  0.
         11    1    3    3    0    0 -0.83738538646E+03  0.39865068413E+03  0.51065308445E+03  0.10587271726E+04  0.00000000000E+00 0.  1.
        -11    1    3    3    0    0 -0.61070253148E+03  0.21986366037E+03  0.31044704497E+03  0.71949633692E+03  0.00000000000E+00 0. -1.
         22    1    1    2    0    0  0.14480879179E+04 -0.61851434450E+03 -0.69702672698E+03  0.17220234814E+04  0.00000000000E+00 0.  1.
<mgrwt>
<rscale>  0 0.34980473E+04</rscale>
<asrwt>0</asrwt>
<pdfrwt beam="1">  1        1 0.27879388E+00 0.34980473E+04</pdfrwt>
<pdfrwt beam="2">  1       -1 0.25970566E+00 0.34980473E+04</pdfrwt>
<totfact> 0.19657272E-01</totfact>
</mgrwt>
</event>
<event>
 6    1  0.1588846E-005  0.3842513E+04  0.7818608E-02  0.8037093E-01
         -1   -1    0    0    0  501 -0.00000000000E+00  0.00000000000E+00  0.24636370900E+04  0.24636370900E+04  0.00000000000E+00 0.  1.
          1   -1    0    0  501    0  0.00000000000E+00 -0.00000000000E+00 -0.14982835320E+04  0.14982835320E+04  0.00000000000E+00 0. -1.
         23    2    1    2    0    0  0.13508883358E+04  0.46670459972E+03  0.18052751351E+04  0.23041568467E+04  0.86069631633E+02 0.  0.
         13    1    3    3    0    0  0.34907779803E+03  0.13353950063E+03  0.41576768678E+03  0.55906249801E+03  0.00000000000E+00 0.  1.
        -13    1    3    3    0    0  0.10018105378E+04  0.33316509909E+03  0.13895074483E+04  0.17450943487E+04  0.00000000000E+00 0. -1.
         22    1    1    2    0    0 -0.13508883358E+04 -0.46670459972E+03 -0.83992157703E+03  0.16577637753E+04  0.00000000000E+00 0. -1.
<mgrwt>
<rscale>  0 0.38425132E+04</rscale>
<asrwt>0</asrwt>
<pdfrwt beam="1">  1        1 0.23050516E+00 0.38425132E+04</pdfrwt>
<pdfrwt beam="2">  1       -1 0.37902109E+00 0.38425132E+04</pdfrwt>
<totfact> 0.51632907E-02</totfact>
</mgrwt>
</event>
<event>
 6    1  0.1588846E-005  0.1157211E+04  0.7818608E-02  0.9151157E-01
         -1   -1    0    0    0  501 -0.00000000000E+00  0.00000000000E+00  0.37865780645E+03  0.37865780645E+03  0.00000000000E+00 0.  1.
          1   -1    0    0  501    0  0.00000000000E+00 -0.00000000000E+00 -0.88413411809E+03  0.88413411809E+03  0.00000000000E+00 0. -1.
         23    2    1    2    0    0  0.50634668498E+03 -0.25388128821E+03 -0.36504729924E+03  0.67921418216E+03  0.85027646514E+02 0.  0.
         13    1    3    3    0    0  0.44905536760E+03 -0.21292887511E+03 -0.28620698770E+03  0.57350141137E+03  0.00000000000E+00 0. -1.
        -13    1    3    3    0    0  0.57291317372E+02 -0.40952413098E+02 -0.78840311538E+02  0.10571277079E+03  0.00000000000E+00 0.  1.
         22    1    1    2    0    0 -0.50634668498E+03  0.25388128821E+03 -0.14042901240E+03  0.58357774239E+03  0.00000000000E+00 0.  1.
<mgrwt>
<rscale>  0 0.11572109E+04</rscale>
<asrwt>0</asrwt>
<pdfrwt beam="1">  1        1 0.13602063E+00 0.11572109E+04</pdfrwt>
<pdfrwt beam="2">  1       -1 0.58255048E-01 0.11572109E+04</pdfrwt>
<totfact> 0.55580953E+01</totfact>
</mgrwt>
</event>
<event>
 6    1  0.1588846E-005  0.4508126E+04  0.7818608E-02  0.7909216E-01
         -2   -1    0    0    0  501 -0.00000000000E+00  0.00000000000E+00  0.26655347333E+04  0.26655347333E+04  0.00000000000E+00 0.  1.
          2   -1    0    0  501    0  0.00000000000E+00 -0.00000000000E+00 -0.19061092067E+04  0.19061092067E+04  0.00000000000E+00 0. -1.
         23    2    1    2    0    0 -0.20871700380E+04 -0.12808501931E+03  0.12309524716E+04  0.24280436509E+04  0.86414371160E+02 0.  0.
         13    1    3    3    0    0 -0.14072477908E+04 -0.99139524037E+02  0.78546410233E+03  0.16146605978E+04  0.00000000000E+00 0. -1.
        -13    1    3    3    0    0 -0.67992224720E+03 -0.28945495275E+02  0.44548836926E+03  0.81338305311E+03  0.00000000000E+00 0.  1.
         22    1    1    2    0    0  0.20871700380E+04  0.12808501931E+03 -0.47152694503E+03  0.21436002892E+04  0.00000000000E+00 0. -1.
<mgrwt>
<rscale>  0 0.45081261E+04</rscale>
<asrwt>0</asrwt>
<pdfrwt beam="1">  1        2 0.29324757E+00 0.45081261E+04</pdfrwt>
<pdfrwt beam="2">  1       -2 0.41008227E+00 0.45081261E+04</pdfrwt>
<totfact> 0.36373219E-02</totfact>
</mgrwt>
</event>
<event>
 6    1  0.1588846E-005  0.1768890E+04  0.7818608E-02  0.8723020E-01
         -1   -1    0    0    0  501 -0.00000000000E+00  0.00000000000E+00  0.35764434773E+03  0.35764434773E+03  0.00000000000E+00 0.  1.
          1   -1    0    0  501    0  0.00000000000E+00 -0.00000000000E+00 -0.21872099556E+04  0.21872099556E+04  0.00000000000E+00 0. -1.
         23    2    1    2    0    0  0.16977647989E+03 -0.54814885384E+03 -0.18808950691E+04  0.19687241681E+04  0.93900853024E+02 0.  0.
         13    1    3    3    0    0  0.15571505615E+03 -0.36276324379E+03 -0.13254027809E+04  0.13829450030E+04  0.00000000000E+00 0. -1.
        -13    1    3    3    0    0  0.14061423745E+02 -0.18538561005E+03 -0.55549228816E+03  0.58577916509E+03  0.00000000000E+00 0.  1.
         22    1    1    2    0    0 -0.16977647989E+03  0.54814885384E+03  0.51329461209E+02  0.57613013519E+03  0.00000000000E+00 0.  1.
<mgrwt>
<rscale>  0 0.17688904E+04</rscale>
<asrwt>0</asrwt>
<pdfrwt beam="1">  1        1 0.33649384E+00 0.17688904E+04</pdfrwt>
<pdfrwt beam="2">  1       -1 0.55022208E-01 0.17688904E+04</pdfrwt>
<totfact> 0.70237677E+00</totfact>
</mgrwt>
</event>
<event>
 6    1  0.1588846E-005  0.2077779E+04  0.7818608E-02  0.8571096E-01
          2   -1    0    0  501    0  0.00000000000E+00  0.00000000000E+00  0.23155539024E+04  0.23155539024E+04  0.00000000000E+00 0. -1.
         -2   -1    0    0    0  501 -0.00000000000E+00 -0.00000000000E+00 -0.46610493977E+03  0.46610493977E+03  0.00000000000E+00 0.  1.
         23    2    1    2    0    0  0.93107628287E+03 -0.45627033187E+03  0.91604970586E+03  0.13865531713E+04  0.91087721822E+02 0.  0.
         11    1    3    3    0    0  0.55914041041E+03 -0.22429063569E+03  0.53745476035E+03  0.80734249686E+03  0.00000000000E+00 0. -1.
        -11    1    3    3    0    0  0.37193587246E+03 -0.23197969618E+03  0.37859494551E+03  0.57921067448E+03  0.00000000000E+00 0.  1.
         22    1    1    2    0    0 -0.93107628287E+03  0.45627033187E+03  0.93339925681E+03  0.13951056709E+04  0.00000000000E+00 0.  1.
<mgrwt>
<rscale>  0 0.20777787E+04</rscale>
<asrwt>0</asrwt>
<pdfrwt beam="1">  1        2 0.35623906E+00 0.20777787E+04</pdfrwt>
<pdfrwt beam="2">  1       -2 0.71708453E-01 0.20777787E+04</pdfrwt>
<totfact> 0.72317193E+00</totfact>
</mgrwt>
</event>
<event>
 6    1  0.2280356E-005  0.3458543E+04  0.7818608E-02  0.8123686E-01
          2   -1    0    0  501    0  0.00000000000E+00  0.00000000000E+00  0.15045149707E+04  0.15045149707E+04  0.00000000000E+00 0.  1.
         -2   -1    0    0    0  501 -0.00000000000E+00 -0.00000000000E+00 -0.19876039017E+04  0.19876039017E+04  0.00000000000E+00 0. -1.
         23    2    1    2    0    0 -0.63212622301E+03 -0.52332478038E+03 -0.17772846126E+04  0.19596715324E+04  0.90108452052E+02 0.  0.
         11    1    3    3    0    0 -0.47076485711E+03 -0.34676223040E+03 -0.12028173663E+04  0.13373979257E+04  0.00000000000E+00 0.  1.
        -11    1    3    3    0    0 -0.16136136590E+03 -0.17656254999E+03 -0.57446724634E+03  0.62227360669E+03  0.00000000000E+00 0. -1.
         22    1    1    2    0    0  0.63212622301E+03  0.52332478038E+03  0.12941956816E+04  0.15324473400E+04  0.00000000000E+00 0.  1.
<mgrwt>
<rscale>  0 0.34585429E+04</rscale>
<asrwt>0</asrwt>
<pdfrwt beam="1">  1        2 0.23146384E+00 0.34585429E+04</pdfrwt>
<pdfrwt beam="2">  1       -2 0.30578522E+00 0.34585429E+04</pdfrwt>
<totfact> 0.30472147E-01</totfact>
</mgrwt>
</event>
<event>
 6    1  0.1588846E-005  0.1708824E+04  0.7818608E-02  0.8756348E-01
          1   -1    0    0  501    0  0.00000000000E+00  0.00000000000E+00  0.12500634581E+04  0.12500634581E+04  0.00000000000E+00 0. -1.
         -1   -1    0    0    0  501 -0.00000000000E+00 -0.00000000000E+00 -0.58398639312E+03  0.58398639312E+03  0.00000000000E+00 0.  1.
         23    2    1    2    0    0  0.10374958425E+03  0.84549519160E+01  0.12415747414E+04  0.12492139443E+04  0.90510649860E+02 0.  0.
         11    1    3    3    0    0  0.16631635898E+02 -0.12775429047E+02  0.69629625418E+03  0.69661201288E+03  0.00000000000E+00 0. -1.
        -11    1    3    3    0    0  0.87117948348E+02  0.21230380963E+02  0.54527848719E+03  0.55260193140E+03  0.00000000000E+00 0.  1.
         22    1    1    2    0    0 -0.10374958425E+03 -0.84549519160E+01 -0.57549767642E+03  0.58483590690E+03  0.00000000000E+00 0.  1.
<mgrwt>
<rscale>  0 0.17088242E+04</rscale>
<asrwt>0</asrwt>
<pdfrwt beam="1">  1        1 0.19231745E+00 0.17088242E+04</pdfrwt>
<pdfrwt beam="2">  1       -1 0.89844061E-01 0.17088242E+04</pdfrwt>
<totfact> 0.11330537E+01</totfact>
</mgrwt>
</event>
<event>
 6    1  0.1588846E-005  0.1137832E+04  0.7818608E-02  0.9169083E-01
         -2   -1    0    0    0  501 -0.00000000000E+00  0.00000000000E+00  0.50199780171E+03  0.50199780171E+03  0.00000000000E+00 0. -1.
          2   -1    0    0  501    0  0.00000000000E+00 -0.00000000000E+00 -0.64475479085E+03  0.64475479085E+03  0.00000000000E+00 0.  1.
         23    2    1    2    0    0  0.14950015898E+03 -0.14312641241E+03 -0.60198980950E+03  0.64303615372E+03  0.90930175323E+02 0.  0.
         11    1    3    3    0    0 -0.10756339149E+02 -0.57616128255E+01 -0.15535893821E+02  0.19754974337E+02  0.00000000000E+00 0. -1.
        -11    1    3    3    0    0  0.16025649813E+03 -0.13736479958E+03 -0.58645391568E+03  0.62328117938E+03  0.00000000000E+00 0.  1.
         22    1    1    2    0    0 -0.14950015898E+03  0.14312641241E+03  0.45923282036E+03  0.50371643885E+03  0.00000000000E+00 0. -1.
<mgrwt>
<rscale>  0 0.11378321E+04</rscale>
<asrwt>0</asrwt>
<pdfrwt beam="1">  1        2 0.99193045E-01 0.11378321E+04</pdfrwt>
<pdfrwt beam="2">  1       -2 0.77230431E-01 0.11378321E+04</pdfrwt>
<totfact> 0.67341294E+01</totfact>
</mgrwt>
</event>
<event>
 6    1  0.1588846E-005  0.1684536E+04  0.7818608E-02  0.8770234E-01
         -1   -1    0    0    0  501 -0.00000000000E+00  0.00000000000E+00  0.48784494381E+03  0.48784494381E+03  0.00000000000E+00 0.  1.
          1   -1    0    0  501    0  0.00000000000E+00 -0.00000000000E+00 -0.14541814531E+04  0.14541814531E+04  0.00000000000E+00 0. -1.
         23    2    1    2    0    0 -0.81604463097E+03  0.16608893387E+03 -0.60928341820E+03  0.10359351854E+04  0.91766284727E+02 0.  0.
         11    1    3    3    0    0 -0.29936092681E+03  0.16075783541E+02 -0.21938506737E+03  0.37149051550E+03  0.00000000000E+00 0.  1.
        -11    1    3    3    0    0 -0.51668370416E+03  0.15001315032E+03 -0.38989835083E+03  0.66444466993E+03  0.00000000000E+00 0. -1.
         22    1    1    2    0    0  0.81604463097E+03 -0.16608893387E+03 -0.35705309110E+03  0.90609121150E+03  0.00000000000E+00 0. -1.
<mgrwt>
<rscale>  0 0.16845356E+04</rscale>
<asrwt>0</asrwt>
<pdfrwt beam="1">  1        1 0.22372022E+00 0.16845356E+04</pdfrwt>
<pdfrwt beam="2">  1       -1 0.75053070E-01 0.16845356E+04</pdfrwt>
<totfact> 0.11975140E+01</totfact>
</mgrwt>
</event>
<event>
 6    1  0.1588846E-005  0.3838776E+04  0.7818608E-02  0.8037884E-01
         -2   -1    0    0    0  501 -0.00000000000E+00  0.00000000000E+00  0.87519639619E+03  0.87519639619E+03  0.00000000000E+00 0.  1.
          2   -1    0    0  501    0  0.00000000000E+00 -0.00000000000E+00 -0.42093984353E+04  0.42093984353E+04  0.00000000000E+00 0. -1.
         23    2    1    2    0    0  0.16052164352E+04  0.10499447841E+04 -0.16378649252E+04  0.25239965698E+04  0.94092070506E+02 0.  0.
         13    1    3    3    0    0  0.10274379844E+04  0.72311885147E+03 -0.10889483451E+04  0.16626298998E+04  0.00000000000E+00 0. -1.
        -13    1    3    3    0    0  0.57777845076E+03  0.32682593268E+03 -0.54891658006E+03  0.86136667006E+03  0.00000000000E+00 0.  1.
         22    1    1    2    0    0 -0.16052164352E+04 -0.10499447841E+04 -0.16963371140E+04  0.25605982617E+04  0.00000000000E+00 0. -1.
<mgrwt>
<rscale>  0 0.38387760E+04</rscale>
<asrwt>0</asrwt>
<pdfrwt beam="1">  1        2 0.64759976E+00 0.38387760E+04</pdfrwt>
<pdfrwt beam="2">  1       -2 0.13464560E+00 0.38387760E+04</pdfrwt>
<totfact> 0.72114608E-02</totfact>
</mgrwt>
</event>
<event>
 6    1  0.1588846E-005  0.2858822E+04  0.7818608E-02  0.8285236E-01
         -1   -1    0    0    0  501 -0.00000000000E+00  0.00000000000E+00  0.79495262402E+03  0.79495262402E+03  0.00000000000E+00 0.  1.
          1   -1    0    0  501    0  0.00000000000E+00 -0.00000000000E+00 -0.25702362839E+04  0.25702362839E+04  0.00000000000E+00 0. -1.
         23    2    1    2    0    0 -0.65866987776E+03 -0.10547484061E+04 -0.17140548584E+04  0.21201631355E+04  0.10376634981E+03 0.  0.
         11    1    3    3    0    0 -0.13334495005E+03 -0.19119385412E+03 -0.25866714534E+03  0.34820203566E+03  0.00000000000E+00 0.  1.
        -11    1    3    3    0    0 -0.52532492771E+03 -0.86355455198E+03 -0.14553877131E+04  0.17719610998E+04  0.00000000000E+00 0. -1.
         22    1    1    2    0    0  0.65866987776E+03  0.10547484061E+04 -0.61228801528E+02  0.12450257725E+04  0.00000000000E+00 0.  1.
<mgrwt>
<rscale>  0 0.28588222E+04</rscale>
<asrwt>0</asrwt>
<pdfrwt beam="1">  1        1 0.39542096E+00 0.28588222E+04</pdfrwt>
<pdfrwt beam="2">  1       -1 0.12230040E+00 0.28588222E+04</pdfrwt>
<totfact> 0.61572047E-01</totfact>
</mgrwt>
</event>
<event>
 6    1  0.1588846E-005  0.1378801E+04  0.7818608E-02  0.8969308E-01
         -1   -1    0    0    0  501 -0.00000000000E+00  0.00000000000E+00  0.18282107162E+03  0.18282107162E+03  0.00000000000E+00 0.  1.
          1   -1    0    0  501    0  0.00000000000E+00 -0.00000000000E+00 -0.25996626911E+04  0.25996626911E+04  0.00000000000E+00 0. -1.
         23    2    1    2    0    0 -0.65577098874E+03  0.13841351515E+03 -0.15129441755E+04  0.16572173586E+04  0.90417945126E+02 0.  0.
         11    1    3    3    0    0 -0.21037928410E+03  0.80461207068E+02 -0.56535251256E+03  0.60856956256E+03  0.00000000000E+00 0. -1.
        -11    1    3    3    0    0 -0.44539170464E+03  0.57952308085E+02 -0.94759166292E+03  0.10486477961E+04  0.00000000000E+00 0.  1.
         22    1    1    2    0    0  0.65577098874E+03 -0.13841351515E+03 -0.90389744395E+03  0.11252664040E+04  0.00000000000E+00 0.  1.
<mgrwt>
<rscale>  0 0.13788011E+04</rscale>
<asrwt>0</asrwt>
<pdfrwt beam="1">  1        1 0.39994809E+00 0.13788011E+04</pdfrwt>
<pdfrwt beam="2">  1       -1 0.28126320E-01 0.13788011E+04</pdfrwt>
<totfact> 0.12938424E+01</totfact>
</mgrwt>
</event>
<event>
 6    1  0.1588846E-005  0.1748821E+04  0.7818608E-02  0.8734000E-01
         -2   -1    0    0    0  501 -0.00000000000E+00  0.00000000000E+00  0.76744606023E+03  0.76744606023E+03  0.00000000000E+00 0.  1.
          2   -1    0    0  501    0  0.00000000000E+00 -0.00000000000E+00 -0.99628293995E+03  0.99628293995E+03  0.00000000000E+00 0. -1.
         23    2    1    2    0    0  0.19761602918E+03  0.83930096492E+03 -0.24573878825E+03  0.90131153792E+03  0.92177717662E+02 0.  0.
         13    1    3    3    0    0  0.10867507715E+03  0.47910916927E+03 -0.18707080463E+03  0.52569131096E+03  0.00000000000E+00 0.  1.
        -13    1    3    3    0    0  0.88940952037E+02  0.36019179565E+03 -0.58667983623E+02  0.37562022696E+03  0.00000000000E+00 0. -1.
         22    1    1    2    0    0 -0.19761602918E+03 -0.83930096492E+03  0.16901908537E+02  0.86241746226E+03  0.00000000000E+00 0. -1.
<mgrwt>
<rscale>  0 0.17488207E+04</rscale>
<asrwt>0</asrwt>
<pdfrwt beam="1">  1        2 0.15327430E+00 0.17488207E+04</pdfrwt>
<pdfrwt beam="2">  1       -2 0.11806862E+00 0.17488207E+04</pdfrwt>
<totfact> 0.13272844E+01</totfact>
</mgrwt>
</event>
<event>
 6    1  0.1588846E-005  0.1889599E+04  0.7818608E-02  0.8660051E-01
          2   -1    0    0  501    0  0.00000000000E+00  0.00000000000E+00  0.15378599865E+04  0.15378599865E+04  0.00000000000E+00 0.  1.
         -2   -1    0    0    0  501 -0.00000000000E+00 -0.00000000000E+00 -0.58044694747E+03  0.58044694747E+03  0.00000000000E+00 0. -1.
         23    2    1    2    0    0 -0.36825348672E+03 -0.77139261254E+03  0.92618832576E+03  0.12629519341E+04  0.81028265661E+02 0.  0.
         11    1    3    3    0    0 -0.13429169028E+03 -0.37222070408E+03  0.41247602440E+03  0.57159337061E+03  0.00000000000E+00 0. -1.
        -11    1    3    3    0    0 -0.23396179644E+03 -0.39917190846E+03  0.51371230136E+03  0.69135856346E+03  0.00000000000E+00 0.  1.
         22    1    1    2    0    0  0.36825348672E+03  0.77139261254E+03  0.31224713287E+02  0.85535499992E+03  0.00000000000E+00 0. -1.
<mgrwt>
<rscale>  0 0.18895990E+04</rscale>
<asrwt>0</asrwt>
<pdfrwt beam="1">  1        2 0.23659384E+00 0.18895990E+04</pdfrwt>
<pdfrwt beam="2">  1       -2 0.89299531E-01 0.18895990E+04</pdfrwt>
<totfact> 0.12189230E+01</totfact>
</mgrwt>
</event>
<event>
 6    1  0.1588846E-005  0.4080917E+04  0.7818608E-02  0.7988419E-01
          2   -1    0    0  501    0  0.00000000000E+00  0.00000000000E+00  0.14029881897E+04  0.14029881897E+04  0.00000000000E+00 0. -1.
         -2   -1    0    0    0  501 -0.00000000000E+00 -0.00000000000E+00 -0.29675742556E+04  0.29675742556E+04  0.00000000000E+00 0.  1.
         23    2    1    2    0    0  0.77995970953E+03  0.61170199916E+02 -0.27997975707E+04  0.29084316703E+04  0.89606929354E+02 0.  0.
         11    1    3    3    0    0  0.72142022048E+03  0.70980068627E+02 -0.25081202656E+04  0.26107762393E+04  0.00000000000E+00 0.  1.
        -11    1    3    3    0    0  0.58539489049E+02 -0.98098687107E+01 -0.29167730509E+03  0.29765543100E+03  0.00000000000E+00 0. -1.
         22    1    1    2    0    0 -0.77995970953E+03 -0.61170199916E+02  0.12352115048E+04  0.14621307751E+04  0.00000000000E+00 0. -1.
<mgrwt>
<rscale>  0 0.40809174E+04</rscale>
<asrwt>0</asrwt>
<pdfrwt beam="1">  1        2 0.21584434E+00 0.40809174E+04</pdfrwt>
<pdfrwt beam="2">  1       -2 0.45654988E+00 0.40809174E+04</pdfrwt>
<totfact> 0.35504372E-02</totfact>
</mgrwt>
</event>
<event>
 6    1  0.1588846E-005  0.2418309E+04  0.7818608E-02  0.8432681E-01
          1   -1    0    0  501    0  0.00000000000E+00  0.00000000000E+00  0.15598975573E+04  0.15598975573E+04  0.00000000000E+00 0. -1.
         -1   -1    0    0    0  501 -0.00000000000E+00 -0.00000000000E+00 -0.93727611454E+03  0.93727611454E+03  0.00000000000E+00 0.  1.
         23    2    1    2    0    0  0.35237221050E+03  0.11548523045E+04  0.32145020907E+03  0.12527645221E+04  0.90767234608E+02 0.  0.
         13    1    3    3    0    0  0.25418167288E+03  0.78809795221E+03  0.17864526853E+03  0.84712504218E+03  0.00000000000E+00 0.  1.
        -13    1    3    3    0    0  0.98190537623E+02  0.36675435231E+03  0.14280494054E+03  0.40563947990E+03  0.00000000000E+00 0. -1.
         22    1    1    2    0    0 -0.35237221050E+03 -0.11548523045E+04  0.30117123369E+03  0.12444091498E+04  0.00000000000E+00 0. -1.
<mgrwt>
<rscale>  0 0.24183091E+04</rscale>
<asrwt>0</asrwt>
<pdfrwt beam="1">  1        1 0.23998424E+00 0.24183091E+04</pdfrwt>
<pdfrwt beam="2">  1       -1 0.14419633E+00 0.24183091E+04</pdfrwt>
<totfact> 0.20630412E+00</totfact>
</mgrwt>
</event>
<event>
 6    1  0.1588846E-005  0.5697300E+04  0.7818608E-02  0.7729109E-01
         -2   -1    0    0    0  501 -0.00000000000E+00  0.00000000000E+00  0.21552700444E+04  0.21552700444E+04  0.00000000000E+00 0.  1.
          2   -1    0    0  501    0  0.00000000000E+00 -0.00000000000E+00 -0.37651003957E+04  0.37651003957E+04  0.00000000000E+00 0. -1.
         23    2    1    2    0    0 -0.10333052654E+04 -0.75232793387E+03  0.18395111715E+04  0.22418280614E+04  0.90964910499E+02 0.  0.
         11    1    3    3    0    0 -0.92338120295E+03 -0.63515410619E+03  0.16089840130E+04  0.19608373565E+04  0.00000000000E+00 0. -1.
        -11    1    3    3    0    0 -0.10992406249E+03 -0.11717382767E+03  0.23052715849E+03  0.28099070484E+03  0.00000000000E+00 0.  1.
         22    1    1    2    0    0  0.10333052654E+04  0.75232793387E+03 -0.34493415227E+04  0.36785423787E+04  0.00000000000E+00 0. -1.
<mgrwt>
<rscale>  0 0.56973004E+04</rscale>
<asrwt>0</asrwt>
<pdfrwt beam="1">  1        2 0.57924621E+00 0.56973004E+04</pdfrwt>
<pdfrwt beam="2">  1       -2 0.33158001E+00 0.56973004E+04</pdfrwt>
<totfact> 0.72724847E-03</totfact>
</mgrwt>
</event>
<event>
 6    1  0.1588846E-005  0.2006386E+04  0.7818608E-02  0.8603641E-01
         -2   -1    0    0    0  501 -0.00000000000E+00  0.00000000000E+00  0.69833027777E+03  0.69833027777E+03  0.00000000000E+00 0.  1.
          2   -1    0    0  501    0  0.00000000000E+00 -0.00000000000E+00 -0.14411468894E+04  0.14411468894E+04  0.00000000000E+00 0. -1.
         23    2    1    2    0    0 -0.17258725204E+03 -0.88593869929E+03 -0.83380831456E+03  0.12323094713E+04  0.93148210121E+02 0.  0.
         13    1    3    3    0    0 -0.54424151201E+02 -0.49259800671E+03 -0.48585312612E+03  0.69402308651E+03  0.00000000000E+00 0. -1.
        -13    1    3    3    0    0 -0.11816310083E+03 -0.39334069258E+03 -0.34795518843E+03  0.53828638474E+03  0.00000000000E+00 0.  1.
         22    1    1    2    0    0  0.17258725204E+03  0.88593869929E+03  0.90991702949E+02  0.90716769589E+03  0.00000000000E+00 0. -1.
<mgrwt>
<rscale>  0 0.20063863E+04</rscale>
<asrwt>0</asrwt>
<pdfrwt beam="1">  1        2 0.22171490E+00 0.20063863E+04</pdfrwt>
<pdfrwt beam="2">  1       -2 0.10743543E+00 0.20063863E+04</pdfrwt>
<totfact> 0.88557172E+00</totfact>
</mgrwt>
</event>
<event>
 6    1  0.1588846E-005  0.1395901E+04  0.7818608E-02  0.8956791E-01
          1   -1    0    0  501    0  0.00000000000E+00  0.00000000000E+00  0.10467912761E+04  0.10467912761E+04  0.00000000000E+00 0. -1.
         -1   -1    0    0    0  501 -0.00000000000E+00 -0.00000000000E+00 -0.46535993076E+03  0.46535993076E+03  0.00000000000E+00 0.  1.
         23    2    1    2    0    0  0.19988704308E+03  0.36465868727E+03 -0.31134662814E+03  0.52727390580E+03  0.90278794230E+02 0.  0.
         13    1    3    3    0    0  0.80801016541E+02  0.23586279853E+03 -0.19860735044E+03  0.31875530373E+03  0.00000000000E+00 0.  1.
        -13    1    3    3    0    0  0.11908602654E+03  0.12879588874E+03 -0.11273927770E+03  0.20851860207E+03  0.00000000000E+00 0. -1.
         22    1    1    2    0    0 -0.19988704308E+03 -0.36465868727E+03  0.89277797346E+03  0.98487730103E+03  0.00000000000E+00 0. -1.
<mgrwt>
<rscale>  0 0.13959007E+04</rscale>
<asrwt>0</asrwt>
<pdfrwt beam="1">  1        1 0.16104481E+00 0.13959007E+04</pdfrwt>
<pdfrwt beam="2">  1       -1 0.71593836E-01 0.13959007E+04</pdfrwt>
<totfact> 0.26741487E+01</totfact>
</mgrwt>
</event>
<event>
 6    1  0.1588846E-005  0.1962634E+04  0.7818608E-02  0.8624293E-01
         -2   -1    0    0    0  501 -0.00000000000E+00  0.00000000000E+00  0.39360486442E+03  0.39360486442E+03  0.00000000000E+00 0.  1.
          2   -1    0    0  501    0  0.00000000000E+00 -0.00000000000E+00 -0.24465721901E+04  0.24465721901E+04  0.00000000000E+00 0. -1.
         23    2    1    2    0    0 -0.51003693369E+02  0.96646205375E+03 -0.12439656775E+04  0.15787754750E+04  0.91821106433E+02 0.  0.
         11    1    3    3    0    0 -0.61924485487E+01  0.45671031044E+03 -0.51841036754E+03  0.69092109770E+03  0.00000000000E+00 0.  1.
        -11    1    3    3    0    0 -0.44811244821E+02  0.50975174331E+03 -0.72555530997E+03  0.88785437730E+03  0.00000000000E+00 0. -1.
         22    1    1    2    0    0  0.51003693369E+02 -0.96646205375E+03 -0.80900164820E+03  0.12614015795E+04  0.00000000000E+00 0.  1.
<mgrwt>
<rscale>  0 0.19626337E+04</rscale>
<asrwt>0</asrwt>
<pdfrwt beam="1">  1        2 0.37639571E+00 0.19626337E+04</pdfrwt>
<pdfrwt beam="2">  1       -2 0.60554596E-01 0.19626337E+04</pdfrwt>
<totfact> 0.88514282E+00</totfact>
</mgrwt>
</event>
<event>
 6    1  0.1600982E-005  0.2744310E+04  0.7818608E-02  0.8320770E-01
          2   -1    0    0  501    0  0.00000000000E+00  0.00000000000E+00  0.21849060283E+04  0.21849060283E+04  0.00000000000E+00 0.  1.
         -2   -1    0    0    0  501 -0.00000000000E+00 -0.00000000000E+00 -0.86173461009E+03  0.86173461009E+03  0.00000000000E+00 0. -1.
         23    2    1    2    0    0 -0.96311346528E+03 -0.97442675873E+03  0.70595019377E+03  0.15439573401E+04  0.91342962724E+02 0.  0.
         11    1    3    3    0    0 -0.39895059490E+03 -0.36054089063E+03  0.31376747184E+03  0.62257637071E+03  0.00000000000E+00 0. -1.
        -11    1    3    3    0    0 -0.56416287038E+03 -0.61388586811E+03  0.39218272193E+03  0.92138096939E+03  0.00000000000E+00 0.  1.
         22    1    1    2    0    0  0.96311346528E+03  0.97442675873E+03  0.61722122447E+03  0.15026832983E+04  0.00000000000E+00 0. -1.
<mgrwt>
<rscale>  0 0.27443099E+04</rscale>
<asrwt>0</asrwt>
<pdfrwt beam="1">  1        2 0.33613939E+00 0.27443099E+04</pdfrwt>
<pdfrwt beam="2">  1       -2 0.13257456E+00 0.27443099E+04</pdfrwt>
<totfact> 0.19018255E+00</totfact>
</mgrwt>
</event>
<event>
 6    1  0.1588846E-005  0.3682147E+04  0.7818608E-02  0.8071930E-01
          1   -1    0    0  501    0  0.00000000000E+00  0.00000000000E+00  0.41616796011E+04  0.41616796011E+04  0.00000000000E+00 0. -1.
         -1   -1    0    0    0  501 -0.00000000000E+00 -0.00000000000E+00 -0.81446712568E+03  0.81446712568E+03  0.00000000000E+00 0.  1.
         23    2    1    2    0    0  0.27924965497E+03 -0.14665056971E+04  0.31280915313E+04  0.34672950715E+04  0.92515700677E+02 0.  0.
         13    1    3    3    0    0  0.56740677987E+02 -0.36338077246E+03  0.86125388801E+03  0.93649524822E+03  0.00000000000E+00 0. -1.
        -13    1    3    3    0    0  0.22250897698E+03 -0.11031249247E+04  0.22668376433E+04  0.25307998233E+04  0.00000000000E+00 0.  1.
         22    1    1    2    0    0 -0.27924965497E+03  0.14665056971E+04  0.21912094408E+03  0.15088516553E+04  0.00000000000E+00 0.  1.
<mgrwt>
<rscale>  0 0.36821468E+04</rscale>
<asrwt>0</asrwt>
<pdfrwt beam="1">  1        1 0.64025839E+00 0.36821468E+04</pdfrwt>
<pdfrwt beam="2">  1       -1 0.12530264E+00 0.36821468E+04</pdfrwt>
<totfact> 0.30571563E-02</totfact>
</mgrwt>
</event>
<event>
 6    1  0.1588846E-005  0.8078561E+03  0.7818608E-02  0.9548715E-01
          2   -1    0    0  501    0  0.00000000000E+00  0.00000000000E+00  0.18322170897E+03  0.18322170897E+03  0.00000000000E+00 0. -1.
         -2   -1    0    0    0  501 -0.00000000000E+00 -0.00000000000E+00 -0.89049417121E+03  0.89049417121E+03  0.00000000000E+00 0.  1.
         23    2    1    2    0    0  0.22745321588E+03 -0.31558734443E+03 -0.47500990089E+03  0.62064167568E+03  0.90726767057E+02 0.  0.
         13    1    3    3    0    0  0.16980568384E+03 -0.27166292623E+03 -0.33837076064E+03  0.46597155214E+03  0.00000000000E+00 0.  1.
        -13    1    3    3    0    0  0.57647532045E+02 -0.43924418208E+02 -0.13663914025E+03  0.15467012354E+03  0.00000000000E+00 0. -1.
         22    1    1    2    0    0 -0.22745321588E+03  0.31558734443E+03 -0.23226256135E+03  0.45307420450E+03  0.00000000000E+00 0. -1.
<mgrwt>
<rscale>  0 0.80785609E+03</rscale>
<asrwt>0</asrwt>
<pdfrwt beam="1">  1        2 0.28187955E-01 0.80785609E+03</pdfrwt>
<pdfrwt beam="2">  1       -2 0.13699910E+00 0.80785609E+03</pdfrwt>
<totfact> 0.73104087E+01</totfact>
</mgrwt>
</event>
<event>
 6    1  0.1588846E-005  0.2639892E+04  0.7818608E-02  0.8354776E-01
         -2   -1    0    0    0  501 -0.00000000000E+00  0.00000000000E+00  0.10307905347E+04  0.10307905347E+04  0.00000000000E+00 0.  1.
          2   -1    0    0  501    0  0.00000000000E+00 -0.00000000000E+00 -0.16902149837E+04  0.16902149837E+04  0.00000000000E+00 0. -1.
         23    2    1    2    0    0 -0.47877554197E+03 -0.15484835358E+03 -0.15861323352E+04  0.16664954243E+04  0.90483048907E+02 0.  0.
         13    1    3    3    0    0 -0.29895228710E+03 -0.64637691054E+02 -0.84950550161E+03  0.90288985947E+03  0.00000000000E+00 0.  1.
        -13    1    3    3    0    0 -0.17982325488E+03 -0.90210662530E+02 -0.73662683357E+03  0.76360556478E+03  0.00000000000E+00 0. -1.
         22    1    1    2    0    0  0.47877554197E+03  0.15484835358E+03  0.92670788627E+03  0.10545100942E+04  0.00000000000E+00 0.  1.
<mgrwt>
<rscale>  0 0.26398921E+04</rscale>
<asrwt>0</asrwt>
<pdfrwt beam="1">  1        2 0.26003307E+00 0.26398921E+04</pdfrwt>
<pdfrwt beam="2">  1       -2 0.15858316E+00 0.26398921E+04</pdfrwt>
<totfact> 0.22598328E+00</totfact>
</mgrwt>
</event>
<event>
 6    1  0.1588846E-005  0.1957878E+04  0.7818608E-02  0.8626571E-01
         -3   -1    0    0    0  501 -0.00000000000E+00  0.00000000000E+00  0.13270065532E+04  0.13270065532E+04  0.00000000000E+00 0.  1.
          3   -1    0    0  501    0  0.00000000000E+00 -0.00000000000E+00 -0.72216795483E+03  0.72216795483E+03  0.00000000000E+00 0. -1.
         23    2    1    2    0    0 -0.84746627887E+03  0.33505373456E+03  0.67110489097E+03  0.11354725214E+04  0.91956366364E+02 0.  0.
         11    1    3    3    0    0 -0.15056077734E+03  0.22860876596E+02  0.11147843039E+03  0.18872892676E+03  0.00000000000E+00 0.  1.
        -11    1    3    3    0    0 -0.69690550153E+03  0.31219285797E+03  0.55962646058E+03  0.94674359465E+03  0.00000000000E+00 0. -1.
         22    1    1    2    0    0  0.84746627887E+03 -0.33505373456E+03 -0.66266292583E+02  0.91370198665E+03  0.00000000000E+00 0. -1.
<mgrwt>
<rscale>  0 0.19578780E+04</rscale>
<asrwt>0</asrwt>
<pdfrwt beam="1">  1        3 0.11110276E+00 0.19578780E+04</pdfrwt>
<pdfrwt beam="2">  1       -3 0.20415485E+00 0.19578780E+04</pdfrwt>
<totfact> 0.22903021E-01</totfact>
</mgrwt>
</event>
<event>
 6    1  0.1588846E-005  0.2082450E+04  0.7818608E-02  0.8569014E-01
         -2   -1    0    0    0  501 -0.00000000000E+00  0.00000000000E+00  0.82986979803E+03  0.82986979803E+03  0.00000000000E+00 0.  1.
          2   -1    0    0  501    0  0.00000000000E+00 -0.00000000000E+00 -0.13064091075E+04  0.13064091075E+04  0.00000000000E+00 0. -1.
         23    2    1    2    0    0  0.10975995199E+03  0.89983655133E+03 -0.75993172222E+03  0.11865082355E+04  0.92479750572E+02 0.  0.
         11    1    3    3    0    0  0.10093546471E+03  0.48209306480E+03 -0.38588721892E+03  0.62570810838E+03  0.00000000000E+00 0.  1.
        -11    1    3    3    0    0  0.88244872842E+01  0.41774348653E+03 -0.37404450330E+03  0.56080012711E+03  0.00000000000E+00 0. -1.
         22    1    1    2    0    0 -0.10975995199E+03 -0.89983655133E+03  0.28339241271E+03  0.94977067009E+03  0.00000000000E+00 0.  1.
<mgrwt>
<rscale>  0 0.20824500E+04</rscale>
<asrwt>0</asrwt>
<pdfrwt beam="1">  1        2 0.20098602E+00 0.20824500E+04</pdfrwt>
<pdfrwt beam="2">  1       -2 0.12767228E+00 0.20824500E+04</pdfrwt>
<totfact> 0.68773897E+00</totfact>
</mgrwt>
</event>
<event>
 6    1  0.1588846E-005  0.4915140E+04  0.7818608E-02  0.7841733E-01
          2   -1    0    0  501    0  0.00000000000E+00  0.00000000000E+00  0.24874368339E+04  0.24874368339E+04  0.00000000000E+00 0. -1.
         -2   -1    0    0    0  501 -0.00000000000E+00 -0.00000000000E+00 -0.24280620728E+04  0.24280620728E+04  0.00000000000E+00 0.  1.
         23    2    1    2    0    0 -0.14831762730E+04 -0.12926736466E+04  0.15011098261E+04  0.24763562273E+04  0.90512104523E+02 0.  0.
         11    1    3    3    0    0 -0.11874709819E+04 -0.10000083508E+04  0.11508108166E+04  0.19324775730E+04  0.00000000000E+00 0.  1.
        -11    1    3    3    0    0 -0.29570529104E+03 -0.29266529572E+03  0.35029900949E+03  0.54387865422E+03  0.00000000000E+00 0. -1.
         22    1    1    2    0    0  0.14831762730E+04  0.12926736466E+04 -0.14417350649E+04  0.24391426794E+04  0.00000000000E+00 0.  1.
<mgrwt>
<rscale>  0 0.49151403E+04</rscale>
<asrwt>0</asrwt>
<pdfrwt beam="1">  1        2 0.38268259E+00 0.49151403E+04</pdfrwt>
<pdfrwt beam="2">  1       -2 0.37354801E+00 0.49151403E+04</pdfrwt>
<totfact> 0.28592245E-02</totfact>
</mgrwt>
</event>
<event>
 6    1  0.1588846E-005  0.3426446E+04  0.7818608E-02  0.8131446E-01
         -1   -1    0    0    0  501 -0.00000000000E+00  0.00000000000E+00  0.13464529868E+04  0.13464529868E+04  0.00000000000E+00 0.  1.
          1   -1    0    0  501    0  0.00000000000E+00 -0.00000000000E+00 -0.21798997868E+04  0.21798997868E+04  0.00000000000E+00 0. -1.
         23    2    1    2    0    0 -0.75909918188E+03 -0.79966840314E+03 -0.17648930709E+04  0.20829909761E+04  0.91119327007E+02 0.  0.
         13    1    3    3    0    0 -0.69729930458E+03 -0.75986553112E+03 -0.16726677221E+04  0.19650545169E+04  0.00000000000E+00 0.  1.
        -13    1    3    3    0    0 -0.61799877303E+02 -0.39802872018E+02 -0.92225348738E+02  0.11793645919E+03  0.00000000000E+00 0. -1.
         22    1    1    2    0    0  0.75909918188E+03  0.79966840314E+03  0.93144627091E+03  0.14433617975E+04  0.00000000000E+00 0.  1.
<mgrwt>
<rscale>  0 0.34264457E+04</rscale>
<asrwt>0</asrwt>
<pdfrwt beam="1">  1        1 0.33536920E+00 0.34264457E+04</pdfrwt>
<pdfrwt beam="2">  1       -1 0.20714661E+00 0.34264457E+04</pdfrwt>
<totfact> 0.24813160E-01</totfact>
</mgrwt>
</event>
<event>
 6    1  0.1588846E-005  0.1042925E+04  0.7818608E-02  0.9262679E-01
         -1   -1    0    0    0  501 -0.00000000000E+00  0.00000000000E+00  0.13634985541E+03  0.13634985541E+03  0.00000000000E+00 0.  1.
          1   -1    0    0  501    0  0.00000000000E+00 -0.00000000000E+00 -0.19943041714E+04  0.19943041714E+04  0.00000000000E+00 0. -1.
         23    2    1    2    0    0  0.91456799778E+02  0.36891894814E+03 -0.21868284784E+03  0.44789543366E+03  0.91228257869E+02 0.  0.
         11    1    3    3    0    0  0.15446924488E+02  0.22380127647E+03 -0.15224747465E+03  0.27111789385E+03  0.00000000000E+00 0. -1.
        -11    1    3    3    0    0  0.76009875290E+02  0.14511767167E+03 -0.66435373183E+02  0.17677753981E+03  0.00000000000E+00 0.  1.
         22    1    1    2    0    0 -0.91456799778E+02 -0.36891894814E+03 -0.16392714681E+04  0.16827585931E+04  0.00000000000E+00 0. -1.
<mgrwt>
<rscale>  0 0.10429249E+04</rscale>
<asrwt>0</asrwt>
<pdfrwt beam="1">  1        1 0.30681602E+00 0.10429249E+04</pdfrwt>
<pdfrwt beam="2">  1       -1 0.20976901E-01 0.10429249E+04</pdfrwt>
<totfact> 0.56981250E+01</totfact>
</mgrwt>
</event>
<event>
 6    1  0.1588846E-005  0.1634004E+04  0.7818608E-02  0.8799926E-01
         -1   -1    0    0    0  501 -0.00000000000E+00  0.00000000000E+00  0.41469381495E+03  0.41469381495E+03  0.00000000000E+00 0.  1.
          1   -1    0    0  501    0  0.00000000000E+00 -0.00000000000E+00 -0.16096026422E+04  0.16096026422E+04  0.00000000000E+00 0. -1.
         23    2    1    2    0    0 -0.65277413613E+03  0.66537090781E+02 -0.11238367700E+01  0.66206892082E+03  0.88276472857E+02 0.  0.
         13    1    3    3    0    0 -0.33331059156E+03  0.28958344017E+02  0.43274110541E+02  0.33735320478E+03  0.00000000000E+00 0.  1.
        -13    1    3    3    0    0 -0.31946354458E+03  0.37578746764E+02 -0.44397947311E+02  0.32471571604E+03  0.00000000000E+00 0. -1.
         22    1    1    2    0    0  0.65277413613E+03 -0.66537090781E+02 -0.11937849905E+04  0.13622275364E+04  0.00000000000E+00 0. -1.
<mgrwt>
<rscale>  0 0.16340040E+04</rscale>
<asrwt>0</asrwt>
<pdfrwt beam="1">  1        1 0.24763117E+00 0.16340040E+04</pdfrwt>
<pdfrwt beam="2">  1       -1 0.63799049E-01 0.16340040E+04</pdfrwt>
<totfact> 0.13102451E+01</totfact>
</mgrwt>
</event>
<event>
 6    1  0.1588846E-005  0.3099927E+04  0.7818608E-02  0.8215758E-01
          1   -1    0    0  501    0  0.00000000000E+00  0.00000000000E+00  0.24287157290E+04  0.24287157290E+04  0.00000000000E+00 0. -1.
         -1   -1    0    0    0  501 -0.00000000000E+00 -0.00000000000E+00 -0.98915938345E+03  0.98915938345E+03  0.00000000000E+00 0.  1.
         23    2    1    2    0    0  0.36539340927E+03  0.14921956070E+04  0.93452156129E+03  0.18007108641E+04  0.95231268322E+02 0.  0.
         11    1    3    3    0    0  0.35245264456E+03  0.14227921314E+04  0.86695413484E+03  0.17029884872E+04  0.00000000000E+00 0. -1.
        -11    1    3    3    0    0  0.12940764713E+02  0.69403475598E+02  0.67567426457E+02  0.97722376836E+02  0.00000000000E+00 0.  1.
         22    1    1    2    0    0 -0.36539340927E+03 -0.14921956070E+04  0.50503478427E+03  0.16171642484E+04  0.00000000000E+00 0.  1.
<mgrwt>
<rscale>  0 0.30999271E+04</rscale>
<asrwt>0</asrwt>
<pdfrwt beam="1">  1        1 0.37364857E+00 0.30999271E+04</pdfrwt>
<pdfrwt beam="2">  1       -1 0.15217837E+00 0.30999271E+04</pdfrwt>
<totfact> 0.42962341E-01</totfact>
</mgrwt>
</event>
<event>
 6    1  0.1588846E-005  0.8942163E+03  0.7818608E-02  0.9432840E-01
          2   -1    0    0  501    0  0.00000000000E+00  0.00000000000E+00  0.19490670563E+04  0.19490670563E+04  0.00000000000E+00 0. -1.
         -2   -1    0    0    0  501 -0.00000000000E+00 -0.00000000000E+00 -0.10256481549E+03  0.10256481549E+03  0.00000000000E+00 0.  1.
         23    2    1    2    0    0  0.31964703410E+03 -0.30303267935E+03  0.82668060661E+03  0.94075870317E+03  0.87310257594E+02 0.  0.
         11    1    3    3    0    0  0.14828448362E+03 -0.92730066187E+02  0.27343502400E+03  0.32458260213E+03  0.00000000000E+00 0. -1.
        -11    1    3    3    0    0  0.17136255047E+03 -0.21030261317E+03  0.55324558261E+03  0.61617610104E+03  0.00000000000E+00 0.  1.
         22    1    1    2    0    0 -0.31964703410E+03  0.30303267935E+03  0.10198216342E+04  0.11108731686E+04  0.00000000000E+00 0. -1.
<mgrwt>
<rscale>  0 0.89421631E+03</rscale>
<asrwt>0</asrwt>
<pdfrwt beam="1">  1        2 0.29985644E+00 0.89421631E+03</pdfrwt>
<pdfrwt beam="2">  1       -2 0.15779204E-01 0.89421631E+03</pdfrwt>
<totfact> 0.23183890E+02</totfact>
</mgrwt>
</event>
<event>
 6    1  0.1588846E-005  0.3845653E+04  0.7818608E-02  0.8036428E-01
         -1   -1    0    0    0  501 -0.00000000000E+00  0.00000000000E+00  0.49948695235E+04  0.49948695235E+04  0.00000000000E+00 0.  1.
          1   -1    0    0  501    0  0.00000000000E+00 -0.00000000000E+00 -0.74021197834E+03  0.74021197834E+03  0.00000000000E+00 0. -1.
         23    2    1    2    0    0 -0.97083876961E+03 -0.84596378124E+03  0.69672472463E+00  0.12904931860E+04  0.84791166204E+02 0.  0.
         13    1    3    3    0    0 -0.26054244940E+03 -0.27531182865E+03  0.13073675400E+02  0.37927548289E+03  0.00000000000E+00 0. -1.
        -13    1    3    3    0    0 -0.71029632021E+03 -0.57065195259E+03 -0.12376950675E+02  0.91121770308E+03  0.00000000000E+00 0.  1.
         22    1    1    2    0    0  0.97083876961E+03  0.84596378124E+03  0.42539608205E+04  0.44445883159E+04  0.00000000000E+00 0.  1.
<mgrwt>
<rscale>  0 0.38456533E+04</rscale>
<asrwt>0</asrwt>
<pdfrwt beam="1">  1        1 0.11387877E+00 0.38456533E+04</pdfrwt>
<pdfrwt beam="2">  1       -1 0.76844144E+00 0.38456533E+04</pdfrwt>
<totfact> 0.20682838E-03</totfact>
</mgrwt>
</event>
<event>
 6    1  0.1588846E-005  0.1761099E+04  0.7818608E-02  0.8727264E-01
          2   -1    0    0  501    0  0.00000000000E+00  0.00000000000E+00  0.16215558968E+04  0.16215558968E+04  0.00000000000E+00 0. -1.
         -2   -1    0    0    0  501 -0.00000000000E+00 -0.00000000000E+00 -0.47816288706E+03  0.47816288706E+03  0.00000000000E+00 0.  1.
         23    2    1    2    0    0 -0.54198273600E+03  0.61810113418E+03  0.94072551448E+03  0.12530379633E+04  0.96671328443E+02 0.  0.
         11    1    3    3    0    0 -0.22316525097E+03  0.29634248246E+03  0.48363581930E+03  0.60952867189E+03  0.00000000000E+00 0. -1.
        -11    1    3    3    0    0 -0.31881748503E+03  0.32175865171E+03  0.45708969518E+03  0.64350929143E+03  0.00000000000E+00 0.  1.
         22    1    1    2    0    0  0.54198273600E+03 -0.61810113418E+03  0.20266749523E+03  0.84668082051E+03  0.00000000000E+00 0.  1.
<mgrwt>
<rscale>  0 0.17610995E+04</rscale>
<asrwt>0</asrwt>
<pdfrwt beam="1">  1        2 0.24947013E+00 0.17610995E+04</pdfrwt>
<pdfrwt beam="2">  1       -2 0.73563522E-01 0.17610995E+04</pdfrwt>
<totfact> 0.17117986E+01</totfact>
</mgrwt>
</event>
<event>
 6    1  0.1588846E-005  0.3911853E+04  0.7818608E-02  0.8022569E-01
         -1   -1    0    0    0  501 -0.00000000000E+00  0.00000000000E+00  0.10857495748E+04  0.10857495748E+04  0.00000000000E+00 0.  1.
          1   -1    0    0  501    0  0.00000000000E+00 -0.00000000000E+00 -0.35235090288E+04  0.35235090288E+04  0.00000000000E+00 0. -1.
         23    2    1    2    0    0 -0.82656540403E+03 -0.59885886648E+03  0.74482686154E+03  0.12669991933E+04  0.93153599595E+02 0.  0.
         11    1    3    3    0    0 -0.10784971245E+03 -0.79290687265E+02  0.13899166375E+03  0.19296957313E+03  0.00000000000E+00 0.  1.
        -11    1    3    3    0    0 -0.71871569158E+03 -0.51956817922E+03  0.60583519779E+03  0.10740296202E+04  0.00000000000E+00 0. -1.
         22    1    1    2    0    0  0.82656540403E+03  0.59885886648E+03 -0.31825863156E+04  0.33422594102E+04  0.00000000000E+00 0. -1.
<mgrwt>
<rscale>  0 0.39118530E+04</rscale>
<asrwt>0</asrwt>
<pdfrwt beam="1">  1        1 0.54207831E+00 0.39118530E+04</pdfrwt>
<pdfrwt beam="2">  1       -1 0.16703840E+00 0.39118530E+04</pdfrwt>
<totfact> 0.48760773E-02</totfact>
</mgrwt>
</event>
<event>
 6    1  0.1588846E-005  0.2050685E+04  0.7818608E-02  0.8583284E-01
         -2   -1    0    0    0  501 -0.00000000000E+00  0.00000000000E+00  0.55855267629E+03  0.55855267629E+03  0.00000000000E+00 0.  1.
          2   -1    0    0  501    0  0.00000000000E+00 -0.00000000000E+00 -0.18822338928E+04  0.18822338928E+04  0.00000000000E+00 0. -1.
         23    2    1    2    0    0  0.34710143339E+03  0.90551324122E+03 -0.27382634203E+03  0.10115808832E+04  0.88777151570E+02 0.  0.
         13    1    3    3    0    0  0.28847353535E+03  0.64166621836E+03 -0.19909530415E+03  0.73115761400E+03  0.00000000000E+00 0. -1.
        -13    1    3    3    0    0  0.58627898040E+02  0.26384702286E+03 -0.74731037883E+02  0.28042326923E+03  0.00000000000E+00 0.  1.
         22    1    1    2    0    0 -0.34710143339E+03 -0.90551324122E+03 -0.10498548745E+04  0.14292056859E+04  0.00000000000E+00 0. -1.
<mgrwt>
<rscale>  0 0.20506845E+04</rscale>
<asrwt>0</asrwt>
<pdfrwt beam="1">  1        2 0.28957445E+00 0.20506845E+04</pdfrwt>
<pdfrwt beam="2">  1       -2 0.85931180E-01 0.20506845E+04</pdfrwt>
<totfact> 0.84467165E+00</totfact>
</mgrwt>
</event>
<event>
 6    1  0.1588846E-005  0.2002964E+04  0.7818608E-02  0.8605236E-01
          2   -1    0    0  501    0  0.00000000000E+00  0.00000000000E+00  0.14617055640E+04  0.14617055640E+04  0.00000000000E+00 0. -1.
         -2   -1    0    0    0  501 -0.00000000000E+00 -0.00000000000E+00 -0.68616169132E+03  0.68616169132E+03  0.00000000000E+00 0.  1.
         23    2    1    2    0    0  0.20724118297E+03 -0.93542653223E+03  0.69362449058E+03  0.11862631318E+04  0.90186356309E+02 0.  0.
         13    1    3    3    0    0  0.35348977948E+02 -0.55618976572E+02  0.47414632858E+02  0.81186009915E+02  0.00000000000E+00 0. -1.
        -13    1    3    3    0    0  0.17189220502E+03 -0.87980755566E+03  0.64620985772E+03  0.11050771219E+04  0.00000000000E+00 0.  1.
         22    1    1    2    0    0 -0.20724118297E+03  0.93542653223E+03  0.81919382063E+02  0.96160412347E+03  0.00000000000E+00 0.  1.
<mgrwt>
<rscale>  0 0.20029642E+04</rscale>
<asrwt>0</asrwt>
<pdfrwt beam="1">  1        2 0.22487778E+00 0.20029642E+04</pdfrwt>
<pdfrwt beam="2">  1       -2 0.10556334E+00 0.20029642E+04</pdfrwt>
<totfact> 0.89958095E+00</totfact>
</mgrwt>
</event>
<event>
 6    1  0.1588846E-005  0.1346135E+04  0.7818608E-02  0.8993759E-01
          2   -1    0    0  501    0  0.00000000000E+00  0.00000000000E+00  0.10474151233E+04  0.10474151233E+04  0.00000000000E+00 0. -1.
         -2   -1    0    0    0  501 -0.00000000000E+00 -0.00000000000E+00 -0.43251230212E+03  0.43251230212E+03  0.00000000000E+00 0.  1.
         23    2    1    2    0    0  0.20288216005E+01  0.66935676154E+03  0.26897718384E+03  0.72646399768E+03  0.85782423420E+02 0.  0.
         13    1    3    3    0    0 -0.16063197492E+02  0.14094350589E+03  0.91245963118E+02  0.16866808812E+03  0.00000000000E+00 0. -1.
        -13    1    3    3    0    0  0.18092019092E+02  0.52841325565E+03  0.17773122072E+03  0.55779590956E+03  0.00000000000E+00 0.  1.
         22    1    1    2    0    0 -0.20288216005E+01 -0.66935676154E+03  0.34592563730E+03  0.75346342769E+03  0.00000000000E+00 0. -1.
<mgrwt>
<rscale>  0 0.13461351E+04</rscale>
<asrwt>0</asrwt>
<pdfrwt beam="1">  1        2 0.16114079E+00 0.13461351E+04</pdfrwt>
<pdfrwt beam="2">  1       -2 0.66540354E-01 0.13461351E+04</pdfrwt>
<totfact> 0.47656591E+01</totfact>
</mgrwt>
</event>
<event>
 6    1  0.1588846E-005  0.3086677E+04  0.7818608E-02  0.8219404E-01
         -1   -1    0    0    0  501 -0.00000000000E+00  0.00000000000E+00  0.11607539040E+04  0.11607539040E+04  0.00000000000E+00 0.  1.
          1   -1    0    0  501    0  0.00000000000E+00 -0.00000000000E+00 -0.20520229991E+04  0.20520229991E+04  0.00000000000E+00 0. -1.
         23    2    1    2    0    0  0.92670347630E+03  0.12205038903E+04 -0.62426153669E+03  0.16572377311E+04  0.91243367461E+02 0.  0.
         13    1    3    3    0    0  0.26653588008E+03  0.32534962239E+03 -0.13107125008E+03  0.44053765418E+03  0.00000000000E+00 0. -1.
        -13    1    3    3    0    0  0.66016759622E+03  0.89515426791E+03 -0.49319028661E+03  0.12167000770E+04  0.00000000000E+00 0.  1.
         22    1    1    2    0    0 -0.92670347630E+03 -0.12205038903E+04 -0.26700755838E+03  0.15555391719E+04  0.00000000000E+00 0.  1.
<mgrwt>
<rscale>  0 0.30866770E+04</rscale>
<asrwt>0</asrwt>
<pdfrwt beam="1">  1        1 0.31569585E+00 0.30866770E+04</pdfrwt>
<pdfrwt beam="2">  1       -1 0.17857752E+00 0.30866770E+04</pdfrwt>
<totfact> 0.49449725E-01</totfact>
</mgrwt>
</event>
<event>
 6    1  0.1588846E-005  0.2502557E+04  0.7818608E-02  0.8402075E-01
          1   -1    0    0  501    0  0.00000000000E+00  0.00000000000E+00  0.29503077324E+04  0.29503077324E+04  0.00000000000E+00 0. -1.
         -1   -1    0    0    0  501 -0.00000000000E+00 -0.00000000000E+00 -0.53068975299E+03  0.53068975299E+03  0.00000000000E+00 0.  1.
         23    2    1    2    0    0 -0.92450700776E+03  0.84069543403E+03  0.12231515547E+04  0.17509645592E+04  0.91077668108E+02 0.  0.
         11    1    3    3    0    0 -0.57524092853E+03  0.48080702215E+03  0.77706227403E+03  0.10797700200E+04  0.00000000000E+00 0.  1.
        -11    1    3    3    0    0 -0.34926607923E+03  0.35988841189E+03  0.44608928066E+03  0.67119453919E+03  0.00000000000E+00 0. -1.
         22    1    1    2    0    0  0.92450700776E+03 -0.84069543403E+03  0.11964664247E+04  0.17300329262E+04  0.00000000000E+00 0. -1.
<mgrwt>
<rscale>  0 0.25025572E+04</rscale>
<asrwt>0</asrwt>
<pdfrwt beam="1">  1        1 0.45389349E+00 0.25025572E+04</pdfrwt>
<pdfrwt beam="2">  1       -1 0.81644579E-01 0.25025572E+04</pdfrwt>
<totfact> 0.86171739E-01</totfact>
</mgrwt>
</event>
<event>
 6    1  0.1588846E-005  0.2999190E+04  0.7818608E-02  0.8243962E-01
         -2   -1    0    0    0  501 -0.00000000000E+00  0.00000000000E+00  0.20650930529E+04  0.20650930529E+04  0.00000000000E+00 0.  1.
          2   -1    0    0  501    0  0.00000000000E+00 -0.00000000000E+00 -0.10889506951E+04  0.10889506951E+04  0.00000000000E+00 0. -1.
         23    2    1    2    0    0 -0.45341761178E+03 -0.10825238427E+04  0.14677820299E+04  0.18815835451E+04  0.92342566070E+02 0.  0.
         13    1    3    3    0    0 -0.10148322977E+03 -0.24079793591E+03  0.39077818361E+03  0.47009582071E+03  0.00000000000E+00 0. -1.
        -13    1    3    3    0    0 -0.35193438202E+03 -0.84172590680E+03  0.10770038462E+04  0.14114877244E+04  0.00000000000E+00 0.  1.
         22    1    1    2    0    0  0.45341761178E+03  0.10825238427E+04 -0.49163967201E+03  0.12724602028E+04  0.00000000000E+00 0. -1.
<mgrwt>
<rscale>  0 0.29991896E+04</rscale>
<asrwt>0</asrwt>
<pdfrwt beam="1">  1        2 0.16753088E+00 0.29991896E+04</pdfrwt>
<pdfrwt beam="2">  1       -2 0.31770662E+00 0.29991896E+04</pdfrwt>
<totfact> 0.46864510E-01</totfact>
</mgrwt>
</event>
<event>
 6    1  0.1588846E-005  0.2100909E+04  0.7818608E-02  0.8560843E-01
         -1   -1    0    0    0  501 -0.00000000000E+00  0.00000000000E+00  0.74830354217E+03  0.74830354217E+03  0.00000000000E+00 0.  1.
          1   -1    0    0  501    0  0.00000000000E+00 -0.00000000000E+00 -0.14746082769E+04  0.14746082769E+04  0.00000000000E+00 0. -1.
         23    2    1    2    0    0  0.86991351649E+03  0.19233757871E+03  0.22135448163E+03  0.92221921099E+03  0.88018158557E+02 0.  0.
         11    1    3    3    0    0  0.70003817279E+03  0.18981662238E+03  0.17553081521E+03  0.74625388480E+03  0.00000000000E+00 0.  1.
        -11    1    3    3    0    0  0.16987534370E+03  0.25209563296E+01  0.45823666419E+02  0.17596532619E+03  0.00000000000E+00 0. -1.
         22    1    1    2    0    0 -0.86991351649E+03 -0.19233757871E+03 -0.94765921634E+03  0.13006926081E+04  0.00000000000E+00 0. -1.
<mgrwt>
<rscale>  0 0.21009089E+04</rscale>
<asrwt>0</asrwt>
<pdfrwt beam="1">  1        1 0.22686281E+00 0.21009089E+04</pdfrwt>
<pdfrwt beam="2">  1       -1 0.11512362E+00 0.21009089E+04</pdfrwt>
<totfact> 0.42893632E+00</totfact>
</mgrwt>
</event>
<event>
 6    1  0.1588846E-005  0.1291171E+04  0.7818608E-02  0.9036596E-01
          2   -1    0    0  501    0  0.00000000000E+00  0.00000000000E+00  0.16662418306E+04  0.16662418306E+04  0.00000000000E+00 0. -1.
         -2   -1    0    0    0  501 -0.00000000000E+00 -0.00000000000E+00 -0.25013213747E+03  0.25013213747E+03  0.00000000000E+00 0.  1.
         23    2    1    2    0    0 -0.50964382691E+02  0.29978071023E+03 -0.12826584373E+03  0.34234676329E+03  0.91012840520E+02 0.  0.
         11    1    3    3    0    0 -0.52775383479E+02  0.12969968058E+03 -0.94517767514E+02  0.16894039369E+03  0.00000000000E+00 0. -1.
        -11    1    3    3    0    0  0.18110007876E+01  0.17008102965E+03 -0.33748076214E+02  0.17340636960E+03  0.00000000000E+00 0.  1.
         22    1    1    2    0    0  0.50964382691E+02 -0.29978071023E+03  0.15443755369E+04  0.15740272048E+04  0.00000000000E+00 0. -1.
<mgrwt>
<rscale>  0 0.12911710E+04</rscale>
<asrwt>0</asrwt>
<pdfrwt beam="1">  1        2 0.25634489E+00 0.12911710E+04</pdfrwt>
<pdfrwt beam="2">  1       -2 0.38481868E-01 0.12911710E+04</pdfrwt>
<totfact> 0.64052939E+01</totfact>
</mgrwt>
</event>
<event>
 6    1  0.1588846E-005  0.3082729E+04  0.7818608E-02  0.8220494E-01
         -1   -1    0    0    0  501 -0.00000000000E+00  0.00000000000E+00  0.15498938102E+04  0.15498938102E+04  0.00000000000E+00 0.  1.
          1   -1    0    0  501    0  0.00000000000E+00 -0.00000000000E+00 -0.15328818066E+04  0.15328818066E+04  0.00000000000E+00 0. -1.
         23    2    1    2    0    0 -0.19008425917E+03 -0.87511580794E+03 -0.12441106449E+04  0.15360403332E+04  0.98228843045E+02 0.  0.
         11    1    3    3    0    0 -0.71676035008E+02 -0.35236986290E+03 -0.58268972609E+03  0.68471110051E+03  0.00000000000E+00 0. -1.
        -11    1    3    3    0    0 -0.11840822416E+03 -0.52274594504E+03 -0.66142091878E+03  0.85132923267E+03  0.00000000000E+00 0.  1.
         22    1    1    2    0    0  0.19008425917E+03  0.87511580794E+03  0.12611226485E+04  0.15467352836E+04  0.00000000000E+00 0.  1.
<mgrwt>
<rscale>  0 0.30827287E+04</rscale>
<asrwt>0</asrwt>
<pdfrwt beam="1">  1        1 0.23582797E+00 0.30827287E+04</pdfrwt>
<pdfrwt beam="2">  1       -1 0.23844520E+00 0.30827287E+04</pdfrwt>
<totfact> 0.43543466E-01</totfact>
</mgrwt>
</event>
<event>
 6    1  0.1588846E-005  0.7017078E+04  0.7818608E-02  0.7575677E-01
          2   -1    0    0  501    0  0.00000000000E+00  0.00000000000E+00  0.49044491819E+04  0.49044491819E+04  0.00000000000E+00 0.  1.
         -2   -1    0    0    0  501 -0.00000000000E+00 -0.00000000000E+00 -0.25099345729E+04  0.25099345729E+04  0.00000000000E+00 0. -1.
         23    2    1    2    0    0  0.10267970056E+04  0.45020783499E+03  0.47095724992E+04  0.48421294477E+04  0.95630944434E+02 0.  0.
         13    1    3    3    0    0  0.13576070072E+03  0.59752925526E+02  0.49556136079E+03  0.51728371545E+03  0.00000000000E+00 0.  1.
        -13    1    3    3    0    0  0.89103630490E+03  0.39045490947E+03  0.42140111384E+04  0.43248457322E+04  0.00000000000E+00 0. -1.
         22    1    1    2    0    0 -0.10267970056E+04 -0.45020783499E+03 -0.23150578902E+04  0.25722543071E+04  0.00000000000E+00 0. -1.
<mgrwt>
<rscale>  0 0.70170782E+04</rscale>
<asrwt>0</asrwt>
<pdfrwt beam="1">  1        2 0.75453064E+00 0.70170782E+04</pdfrwt>
<pdfrwt beam="2">  1       -2 0.38614378E+00 0.70170782E+04</pdfrwt>
<totfact> 0.25073205E-04</totfact>
</mgrwt>
</event>
<event>
 6    1  0.1588846E-005  0.2117494E+04  0.7818608E-02  0.8553576E-01
         -2   -1    0    0    0  501 -0.00000000000E+00  0.00000000000E+00  0.56603848467E+03  0.56603848467E+03  0.00000000000E+00 0. -1.
          2   -1    0    0  501    0  0.00000000000E+00 -0.00000000000E+00 -0.19803336071E+04  0.19803336071E+04  0.00000000000E+00 0.  1.
         23    2    1    2    0    0  0.28907300069E+02 -0.96668012094E+03 -0.19686180403E+03  0.99155699892E+03  0.95522897735E+02 0.  0.
         13    1    3    3    0    0 -0.35039544373E+02 -0.40374694020E+03 -0.82325328442E+02  0.41354180090E+03  0.00000000000E+00 0.  1.
        -13    1    3    3    0    0  0.63946844442E+02 -0.56293318075E+03 -0.11453647559E+03  0.57801519802E+03  0.00000000000E+00 0. -1.
         22    1    1    2    0    0 -0.28907300069E+02  0.96668012094E+03 -0.12174333184E+04  0.15548150929E+04  0.00000000000E+00 0.  1.
<mgrwt>
<rscale>  0 0.21174938E+04</rscale>
<asrwt>0</asrwt>
<pdfrwt beam="1">  1        2 0.30466671E+00 0.21174938E+04</pdfrwt>
<pdfrwt beam="2">  1       -2 0.87082845E-01 0.21174938E+04</pdfrwt>
<totfact> 0.71875621E+00</totfact>
</mgrwt>
</event>
<event>
 6    1  0.1588846E-005  0.4454032E+04  0.7818608E-02  0.7918734E-01
          2   -1    0    0  501    0  0.00000000000E+00  0.00000000000E+00  0.23389746434E+04  0.23389746434E+04  0.00000000000E+00 0. -1.
         -2   -1    0    0    0  501 -0.00000000000E+00 -0.00000000000E+00 -0.21204162029E+04  0.21204162029E+04  0.00000000000E+00 0.  1.
         23    2    1    2    0    0  0.21438207731E+04 -0.12479772744E+03  0.69638555085E+03  0.22594224994E+04  0.92169493516E+02 0.  0.
         11    1    3    3    0    0  0.72113224924E+03 -0.72079401832E+02  0.26819957710E+03  0.77276010134E+03  0.00000000000E+00 0. -1.
        -11    1    3    3    0    0  0.14226885239E+04 -0.52718325605E+02  0.42818597376E+03  0.14866623981E+04  0.00000000000E+00 0.  1.
         22    1    1    2    0    0 -0.21438207731E+04  0.12479772744E+03 -0.47782711028E+03  0.21999683469E+04  0.00000000000E+00 0.  1.
<mgrwt>
<rscale>  0 0.44540318E+04</rscale>
<asrwt>0</asrwt>
<pdfrwt beam="1">  1        2 0.35984225E+00 0.44540318E+04</pdfrwt>
<pdfrwt beam="2">  1       -2 0.32621788E+00 0.44540318E+04</pdfrwt>
<totfact> 0.71792944E-02</totfact>
</mgrwt>
</event>
<event>
 6    1  0.1588846E-005  0.2668406E+04  0.7818608E-02  0.8345329E-01
          1   -1    0    0  501    0  0.00000000000E+00  0.00000000000E+00  0.19116612508E+04  0.19116612508E+04  0.00000000000E+00 0. -1.
         -1   -1    0    0    0  501 -0.00000000000E+00 -0.00000000000E+00 -0.93117845886E+03  0.93117845886E+03  0.00000000000E+00 0.  1.
         23    2    1    2    0    0 -0.95468443442E+03  0.77655349533E+03  0.10355378742E+04  0.16109757713E+04  0.91905095236E+02 0.  0.
         11    1    3    3    0    0 -0.73748852079E+03  0.64388881354E+03  0.84075834146E+03  0.12904870054E+04  0.00000000000E+00 0.  1.
        -11    1    3    3    0    0 -0.21719591363E+03  0.13266468179E+03  0.19477953275E+03  0.32048876590E+03  0.00000000000E+00 0. -1.
         22    1    1    2    0    0  0.95468443442E+03 -0.77655349533E+03 -0.55055082255E+02  0.12318639383E+04  0.00000000000E+00 0.  1.
<mgrwt>
<rscale>  0 0.26684061E+04</rscale>
<asrwt>0</asrwt>
<pdfrwt beam="1">  1        1 0.29410173E+00 0.26684061E+04</pdfrwt>
<pdfrwt beam="2">  1       -1 0.14325822E+00 0.26684061E+04</pdfrwt>
<totfact> 0.11816420E+00</totfact>
</mgrwt>
</event>
<event>
 6    1  0.1588846E-005  0.2484544E+04  0.7818608E-02  0.8408513E-01
          2   -1    0    0  501    0  0.00000000000E+00  0.00000000000E+00  0.12890767175E+04  0.12890767175E+04  0.00000000000E+00 0. -1.
         -2   -1    0    0    0  501 -0.00000000000E+00 -0.00000000000E+00 -0.11971666545E+04  0.11971666545E+04  0.00000000000E+00 0.  1.
         23    2    1    2    0    0  0.33365829934E+03 -0.11367180992E+04 -0.32249960846E+03  0.12311771293E+04  0.91297471950E+02 0.  0.
         11    1    3    3    0    0  0.10676699938E+03 -0.23235954163E+03 -0.63302673694E+02  0.26343381947E+03  0.00000000000E+00 0. -1.
        -11    1    3    3    0    0  0.22689129995E+03 -0.90435855760E+03 -0.25919693476E+03  0.96774330982E+03  0.00000000000E+00 0.  1.
         22    1    1    2    0    0 -0.33365829934E+03  0.11367180992E+04  0.41440967151E+03  0.12550662427E+04  0.00000000000E+00 0.  1.
<mgrwt>
<rscale>  0 0.24845440E+04</rscale>
<asrwt>0</asrwt>
<pdfrwt beam="1">  1        2 0.19831949E+00 0.24845440E+04</pdfrwt>
<pdfrwt beam="2">  1       -2 0.18417949E+00 0.24845440E+04</pdfrwt>
<totfact> 0.25428589E+00</totfact>
</mgrwt>
</event>
<event>
 6    1  0.1588846E-005  0.2950437E+04  0.7818608E-02  0.8258027E-01
         -1   -1    0    0    0  501 -0.00000000000E+00  0.00000000000E+00  0.16980506742E+04  0.16980506742E+04  0.00000000000E+00 0.  1.
          1   -1    0    0  501    0  0.00000000000E+00 -0.00000000000E+00 -0.12816278537E+04  0.12816278537E+04  0.00000000000E+00 0. -1.
         23    2    1    2    0    0 -0.63504005960E+03 -0.10206205011E+03  0.15476910936E+04  0.16783482681E+04  0.88389188403E+02 0.  0.
         11    1    3    3    0    0 -0.28242536265E+03 -0.73536367365E+02  0.78860822995E+03  0.84087729374E+03  0.00000000000E+00 0. -1.
        -11    1    3    3    0    0 -0.35261469696E+03 -0.28525682749E+02  0.75908286361E+03  0.83747097437E+03  0.00000000000E+00 0.  1.
         22    1    1    2    0    0  0.63504005960E+03  0.10206205011E+03 -0.11312682730E+04  0.13013302598E+04  0.00000000000E+00 0. -1.
<mgrwt>
<rscale>  0 0.29504366E+04</rscale>
<asrwt>0</asrwt>
<pdfrwt beam="1">  1        1 0.19717352E+00 0.29504366E+04</pdfrwt>
<pdfrwt beam="2">  1       -1 0.26123856E+00 0.29504366E+04</pdfrwt>
<totfact> 0.46935676E-01</totfact>
</mgrwt>
</event>
<event>
 6    1  0.1588846E-005  0.9639349E+03  0.7818608E-02  0.9349009E-01
         -2   -1    0    0    0  501 -0.00000000000E+00  0.00000000000E+00  0.11924557985E+03  0.11924557985E+03  0.00000000000E+00 0.  1.
          2   -1    0    0  501    0  0.00000000000E+00 -0.00000000000E+00 -0.19480187208E+04  0.19480187208E+04  0.00000000000E+00 0. -1.
         23    2    1    2    0    0 -0.44176594694E+03  0.95139711639E+02 -0.12539320655E+04  0.13360659837E+04  0.92292856854E+02 0.  0.
         13    1    3    3    0    0 -0.12822372303E+03  0.64903906284E+02 -0.46004642120E+03  0.48197152390E+03  0.00000000000E+00 0. -1.
        -13    1    3    3    0    0 -0.31354222392E+03  0.30235805356E+02 -0.79388564429E+03  0.85409445983E+03  0.00000000000E+00 0.  1.
         22    1    1    2    0    0  0.44176594694E+03 -0.95139711639E+02 -0.57484107543E+03  0.73119831688E+03  0.00000000000E+00 0.  1.
<mgrwt>
<rscale>  0 0.96393490E+03</rscale>
<asrwt>0</asrwt>
<pdfrwt beam="1">  1        2 0.29969519E+00 0.96393490E+03</pdfrwt>
<pdfrwt beam="2">  1       -2 0.18345474E-01 0.96393490E+03</pdfrwt>
<totfact> 0.17822034E+02</totfact>
</mgrwt>
</event>
<event>
 6    1  0.1588846E-005  0.2020033E+04  0.7818608E-02  0.8597312E-01
         -1   -1    0    0    0  501 -0.00000000000E+00  0.00000000000E+00  0.15334695233E+04  0.15334695233E+04  0.00000000000E+00 0.  1.
          1   -1    0    0  501    0  0.00000000000E+00 -0.00000000000E+00 -0.66524500110E+03  0.66524500110E+03  0.00000000000E+00 0. -1.
         23    2    1    2    0    0  0.98414142020E+02  0.56419031802E+03 -0.46785197812E+03  0.74506516055E+03  0.90777539886E+02 0.  0.
         11    1    3    3    0    0  0.41492508143E+02  0.22835673450E+03 -0.24793426154E+03  0.33961717340E+03  0.00000000000E+00 0.  1.
        -11    1    3    3    0    0  0.56921633878E+02  0.33583358352E+03 -0.21991771658E+03  0.40544798716E+03  0.00000000000E+00 0. -1.
         22    1    1    2    0    0 -0.98414142020E+02 -0.56419031802E+03  0.13360765003E+04  0.14536493638E+04  0.00000000000E+00 0.  1.
<mgrwt>
<rscale>  0 0.20200326E+04</rscale>
<asrwt>0</asrwt>
<pdfrwt beam="1">  1        1 0.10234538E+00 0.20200326E+04</pdfrwt>
<pdfrwt beam="2">  1       -1 0.23591839E+00 0.20200326E+04</pdfrwt>
<totfact> 0.23497942E+00</totfact>
</mgrwt>
</event>
<event>
 6    1  0.1912769E-005  0.3381017E+04  0.7818608E-02  0.8142581E-01
          1   -1    0    0  501    0  0.00000000000E+00  0.00000000000E+00  0.28382382238E+04  0.28382382238E+04  0.00000000000E+00 0. -1.
         -1   -1    0    0    0  501 -0.00000000000E+00 -0.00000000000E+00 -0.10068988034E+04  0.10068988034E+04  0.00000000000E+00 0.  1.
         23    2    1    2    0    0 -0.12426440301E+04 -0.11247761104E+04  0.11487320939E+04  0.20353750963E+04  0.11781712605E+03 0.  0.
         13    1    3    3    0    0 -0.98321647412E+03 -0.95146346838E+03  0.93973697606E+03  0.16598502796E+04  0.00000000000E+00 0.  1.
        -13    1    3    3    0    0 -0.25942755593E+03 -0.17331264205E+03  0.20899511783E+03  0.37552481669E+03  0.00000000000E+00 0. -1.
         22    1    1    2    0    0  0.12426440301E+04  0.11247761104E+04  0.68260732656E+03  0.18097619308E+04  0.00000000000E+00 0.  1.
<mgrwt>
<rscale>  0 0.33810168E+04</rscale>
<asrwt>0</asrwt>
<pdfrwt beam="1">  1        1 0.43665203E+00 0.33810168E+04</pdfrwt>
<pdfrwt beam="2">  1       -1 0.15490751E+00 0.33810168E+04</pdfrwt>
<totfact> 0.20599283E-01</totfact>
</mgrwt>
</event>
<event>
 6    1  0.1588846E-005  0.3165521E+04  0.7818608E-02  0.8197983E-01
          2   -1    0    0  501    0  0.00000000000E+00  0.00000000000E+00  0.12814654506E+04  0.12814654506E+04  0.00000000000E+00 0. -1.
         -2   -1    0    0    0  501 -0.00000000000E+00 -0.00000000000E+00 -0.19548950558E+04  0.19548950558E+04  0.00000000000E+00 0.  1.
         23    2    1    2    0    0  0.95572297010E+03  0.93318071092E+03 -0.12027039376E+04  0.17995710459E+04  0.87900813787E+02 0.  0.
         13    1    3    3    0    0  0.48018985454E+03  0.44604970228E+03 -0.53513436580E+03  0.84611549021E+03  0.00000000000E+00 0.  1.
        -13    1    3    3    0    0  0.47553311556E+03  0.48713100863E+03 -0.66756957175E+03  0.95345555570E+03  0.00000000000E+00 0. -1.
         22    1    1    2    0    0 -0.95572297010E+03 -0.93318071092E+03  0.52927433243E+03  0.14367894605E+04  0.00000000000E+00 0. -1.
<mgrwt>
<rscale>  0 0.31655208E+04</rscale>
<asrwt>0</asrwt>
<pdfrwt beam="1">  1        2 0.19714853E+00 0.31655208E+04</pdfrwt>
<pdfrwt beam="2">  1       -2 0.30075309E+00 0.31655208E+04</pdfrwt>
<totfact> 0.45006704E-01</totfact>
</mgrwt>
</event>
<event>
 6    1  0.1588846E-005  0.1476256E+04  0.7818608E-02  0.8900398E-01
          1   -1    0    0  501    0  0.00000000000E+00  0.00000000000E+00  0.85915669817E+03  0.85915669817E+03  0.00000000000E+00 0. -1.
         -1   -1    0    0    0  501 -0.00000000000E+00 -0.00000000000E+00 -0.63414828539E+03  0.63414828539E+03  0.00000000000E+00 0.  1.
         23    2    1    2    0    0  0.75714802718E+02  0.37219272576E+03 -0.52393219896E+03  0.65355966720E+03  0.91515752907E+02 0.  0.
         11    1    3    3    0    0  0.56764885296E+02  0.19295203547E+03 -0.34647844239E+03  0.40062457643E+03  0.00000000000E+00 0. -1.
        -11    1    3    3    0    0  0.18949917422E+02  0.17924069029E+03 -0.17745375656E+03  0.25293509077E+03  0.00000000000E+00 0.  1.
         22    1    1    2    0    0 -0.75714802718E+02 -0.37219272576E+03  0.74894061173E+03  0.83974531637E+03  0.00000000000E+00 0. -1.
<mgrwt>
<rscale>  0 0.14762557E+04</rscale>
<asrwt>0</asrwt>
<pdfrwt beam="1">  1        1 0.13217795E+00 0.14762557E+04</pdfrwt>
<pdfrwt beam="2">  1       -1 0.97561274E-01 0.14762557E+04</pdfrwt>
<totfact> 0.19234040E+01</totfact>
</mgrwt>
</event>
<event>
 6    1  0.1588846E-005  0.1530785E+04  0.7818608E-02  0.8864235E-01
         -1   -1    0    0    0  501 -0.00000000000E+00  0.00000000000E+00  0.12113593482E+04  0.12113593482E+04  0.00000000000E+00 0.  1.
          1   -1    0    0  501    0  0.00000000000E+00 -0.00000000000E+00 -0.48361013551E+03  0.48361013551E+03  0.00000000000E+00 0. -1.
         23    2    1    2    0    0  0.71971253785E+03 -0.16241069373E+03  0.15279916589E+03  0.75959205889E+03  0.96276374321E+02 0.  0.
         13    1    3    3    0    0  0.46080746964E+03 -0.76263013444E+02  0.13479687450E+03  0.48613760261E+03  0.00000000000E+00 0. -1.
        -13    1    3    3    0    0  0.25890506821E+03 -0.86147680285E+02  0.18002291389E+02  0.27345445628E+03  0.00000000000E+00 0.  1.
         22    1    1    2    0    0 -0.71971253785E+03  0.16241069373E+03  0.57495004683E+03  0.93537742486E+03  0.00000000000E+00 0.  1.
<mgrwt>
<rscale>  0 0.15307850E+04</rscale>
<asrwt>0</asrwt>
<pdfrwt beam="1">  1        1 0.74401559E-01 0.15307850E+04</pdfrwt>
<pdfrwt beam="2">  1       -1 0.18636298E+00 0.15307850E+04</pdfrwt>
<totfact> 0.83927010E+00</totfact>
</mgrwt>
</event>
<event>
 6    1  0.1588846E-005  0.2048295E+04  0.7818608E-02  0.8584368E-01
         -2   -1    0    0    0  501 -0.00000000000E+00  0.00000000000E+00  0.52925901074E+03  0.52925901074E+03  0.00000000000E+00 0.  1.
          2   -1    0    0  501    0  0.00000000000E+00 -0.00000000000E+00 -0.19817852848E+04  0.19817852848E+04  0.00000000000E+00 0. -1.
         23    2    1    2    0    0 -0.72398804725E+03 -0.15477339506E+03 -0.15915941691E+04  0.17577492831E+04  0.91635402387E+02 0.  0.
         11    1    3    3    0    0 -0.97040026167E+02 -0.12282784727E+02 -0.14734781697E+03  0.17685873641E+03  0.00000000000E+00 0.  1.
        -11    1    3    3    0    0 -0.62694802108E+03 -0.14249061034E+03 -0.14442463521E+04  0.15808905467E+04  0.00000000000E+00 0. -1.
         22    1    1    2    0    0  0.72398804725E+03  0.15477339506E+03  0.13906789496E+03  0.75329501245E+03  0.00000000000E+00 0.  1.
<mgrwt>
<rscale>  0 0.20482946E+04</rscale>
<asrwt>0</asrwt>
<pdfrwt beam="1">  1        2 0.30489004E+00 0.20482946E+04</pdfrwt>
<pdfrwt beam="2">  1       -2 0.81424463E-01 0.20482946E+04</pdfrwt>
<totfact> 0.84064225E+00</totfact>
</mgrwt>
</event>
<event>
 6    1  0.1588846E-005  0.2075066E+04  0.7818608E-02  0.8572307E-01
          2   -1    0    0  501    0  0.00000000000E+00  0.00000000000E+00  0.22206409186E+04  0.22206409186E+04  0.00000000000E+00 0. -1.
         -2   -1    0    0    0  501 -0.00000000000E+00 -0.00000000000E+00 -0.48475863605E+03  0.48475863605E+03  0.00000000000E+00 0.  1.
         23    2    1    2    0    0  0.41260280727E+03  0.17244941631E+03  0.20873659470E+04  0.21366108029E+04  0.89606075427E+02 0.  0.
         11    1    3    3    0    0  0.13119843575E+03  0.21328077553E+02  0.74508298271E+03  0.75684646234E+03  0.00000000000E+00 0.  1.
        -11    1    3    3    0    0  0.28140437152E+03  0.15112133875E+03  0.13422829643E+04  0.13797643406E+04  0.00000000000E+00 0. -1.
         22    1    1    2    0    0 -0.41260280727E+03 -0.17244941631E+03 -0.35148366442E+03  0.56878875174E+03  0.00000000000E+00 0.  1.
<mgrwt>
<rscale>  0 0.20750661E+04</rscale>
<asrwt>0</asrwt>
<pdfrwt beam="1">  1        2 0.34163706E+00 0.20750661E+04</pdfrwt>
<pdfrwt beam="2">  1       -2 0.74578253E-01 0.20750661E+04</pdfrwt>
<totfact> 0.75061400E+00</totfact>
</mgrwt>
</event>
<event>
 6    1  0.1588846E-005  0.2715268E+04  0.7818608E-02  0.8330068E-01
          1   -1    0    0  501    0  0.00000000000E+00  0.00000000000E+00  0.14428464490E+04  0.14428464490E+04  0.00000000000E+00 0. -1.
         -1   -1    0    0    0  501 -0.00000000000E+00 -0.00000000000E+00 -0.12774543365E+04  0.12774543365E+04  0.00000000000E+00 0.  1.
         23    2    1    2    0    0  0.12891593112E+03  0.12758112354E+04 -0.35947761919E+03  0.13347316387E+04  0.89279129630E+02 0.  0.
         13    1    3    3    0    0  0.13075836181E+03  0.88686380495E+03 -0.24841657692E+03  0.93023435403E+03  0.00000000000E+00 0. -1.
        -13    1    3    3    0    0 -0.18424306931E+01  0.38894743042E+03 -0.11106104227E+03  0.40449728465E+03  0.00000000000E+00 0.  1.
         22    1    1    2    0    0 -0.12891593112E+03 -0.12758112354E+04  0.52486973166E+03  0.13855691469E+04  0.00000000000E+00 0.  1.
<mgrwt>
<rscale>  0 0.27152683E+04</rscale>
<asrwt>0</asrwt>
<pdfrwt beam="1">  1        1 0.22197638E+00 0.27152683E+04</pdfrwt>
<pdfrwt beam="2">  1       -1 0.19653144E+00 0.27152683E+04</pdfrwt>
<totfact> 0.99451148E-01</totfact>
</mgrwt>
</event>
<event>
 6    1  0.1588846E-005  0.3236325E+04  0.7818608E-02  0.8179289E-01
          2   -1    0    0  501    0  0.00000000000E+00  0.00000000000E+00  0.15943475736E+04  0.15943475736E+04  0.00000000000E+00 0.  1.
         -2   -1    0    0    0  501 -0.00000000000E+00 -0.00000000000E+00 -0.16423336329E+04  0.16423336329E+04  0.00000000000E+00 0. -1.
         23    2    1    2    0    0  0.30605507251E+03 -0.10466023077E+04  0.11695620357E+04  0.16022181566E+04  0.10090375686E+03 0.  0.
         11    1    3    3    0    0  0.27446205611E+03 -0.78524653425E+03  0.89023764631E+03  0.12183860664E+04  0.00000000000E+00 0.  1.
        -11    1    3    3    0    0  0.31593016398E+02 -0.26135577347E+03  0.27932438940E+03  0.38383209027E+03  0.00000000000E+00 0. -1.
         22    1    1    2    0    0 -0.30605507251E+03  0.10466023077E+04 -0.12175480949E+04  0.16344630499E+04  0.00000000000E+00 0. -1.
<mgrwt>
<rscale>  0 0.32363255E+04</rscale>
<asrwt>0</asrwt>
<pdfrwt beam="1">  1        2 0.24528424E+00 0.32363255E+04</pdfrwt>
<pdfrwt beam="2">  1       -2 0.25266671E+00 0.32363255E+04</pdfrwt>
<totfact> 0.58360957E-01</totfact>
</mgrwt>
</event>
<event>
 6    1  0.1588846E-005  0.6102014E+04  0.7818608E-02  0.7677881E-01
         -1   -1    0    0    0  501 -0.00000000000E+00  0.00000000000E+00  0.26046857302E+04  0.26046857302E+04  0.00000000000E+00 0.  1.
          1   -1    0    0  501    0  0.00000000000E+00 -0.00000000000E+00 -0.35738065074E+04  0.35738065074E+04  0.00000000000E+00 0. -1.
         23    2    1    2    0    0  0.11647921612E+04 -0.17266759307E+04 -0.27411274325E+04  0.34438701185E+04  0.91166019114E+02 0.  0.
         13    1    3    3    0    0  0.62890373279E+03 -0.88196603623E+03 -0.13658483739E+04  0.17432514949E+04  0.00000000000E+00 0.  1.
        -13    1    3    3    0    0  0.53588842840E+03 -0.84470989448E+03 -0.13752790587E+04  0.17006186235E+04  0.00000000000E+00 0. -1.
         22    1    1    2    0    0 -0.11647921612E+04  0.17266759307E+04  0.17720066553E+04  0.27346221192E+04  0.00000000000E+00 0.  1.
<mgrwt>
<rscale>  0 0.61020137E+04</rscale>
<asrwt>0</asrwt>
<pdfrwt beam="1">  1        1 0.54981638E+00 0.61020137E+04</pdfrwt>
<pdfrwt beam="2">  1       -1 0.40072088E+00 0.61020137E+04</pdfrwt>
<totfact> 0.10232258E-03</totfact>
</mgrwt>
</event>
<event>
 6    1  0.1588846E-005  0.3091987E+04  0.7818608E-02  0.8217941E-01
         -2   -1    0    0    0  501 -0.00000000000E+00  0.00000000000E+00  0.78705815026E+03  0.78705815026E+03  0.00000000000E+00 0.  1.
          2   -1    0    0  501    0  0.00000000000E+00 -0.00000000000E+00 -0.30367457522E+04  0.30367457522E+04  0.00000000000E+00 0. -1.
         23    2    1    2    0    0 -0.48227120036E+03  0.14439784930E+04 -0.14490193717E+04  0.21037082615E+04  0.90950047967E+02 0.  0.
         11    1    3    3    0    0 -0.15882880967E+03  0.53558883168E+03 -0.47761967186E+03  0.73498471981E+03  0.00000000000E+00 0.  1.
        -11    1    3    3    0    0 -0.32344239068E+03  0.90838966134E+03 -0.97139969980E+03  0.13687235417E+04  0.00000000000E+00 0. -1.
         22    1    1    2    0    0  0.48227120036E+03 -0.14439784930E+04 -0.80066823031E+03  0.17200956410E+04  0.00000000000E+00 0. -1.
<mgrwt>
<rscale>  0 0.30919867E+04</rscale>
<asrwt>0</asrwt>
<pdfrwt beam="1">  1        2 0.46719165E+00 0.30919867E+04</pdfrwt>
<pdfrwt beam="2">  1       -2 0.12108587E+00 0.30919867E+04</pdfrwt>
<totfact> 0.72771016E-01</totfact>
</mgrwt>
</event>
<event>
 6    1  0.1588846E-005  0.1288943E+04  0.7818608E-02  0.9038380E-01
         -2   -1    0    0    0  501 -0.00000000000E+00  0.00000000000E+00  0.55476943116E+03  0.55476943116E+03  0.00000000000E+00 0. -1.
          2   -1    0    0  501    0  0.00000000000E+00 -0.00000000000E+00 -0.74867732834E+03  0.74867732834E+03  0.00000000000E+00 0.  1.
         23    2    1    2    0    0 -0.26013588577E+03  0.56953193105E+03  0.42626745430E+02  0.63412924388E+03  0.90915119555E+02 0.  0.
         11    1    3    3    0    0 -0.12508146109E+03  0.17781780325E+03 -0.18025401229E+01  0.21741157332E+03  0.00000000000E+00 0.  1.
        -11    1    3    3    0    0 -0.13505442469E+03  0.39171412780E+03  0.44429285553E+02  0.41671767056E+03  0.00000000000E+00 0. -1.
         22    1    1    2    0    0  0.26013588577E+03 -0.56953193105E+03 -0.23653464261E+03  0.66931751562E+03  0.00000000000E+00 0. -1.
<mgrwt>
<rscale>  0 0.12889427E+04</rscale>
<asrwt>0</asrwt>
<pdfrwt beam="1">  1        2 0.11518113E+00 0.12889427E+04</pdfrwt>
<pdfrwt beam="2">  1       -2 0.85349144E-01 0.12889427E+04</pdfrwt>
<totfact> 0.44028657E+01</totfact>
</mgrwt>
</event>
<event>
 6    1  0.1588846E-005  0.1203724E+04  0.7818608E-02  0.9109603E-01
          2   -1    0    0  501    0  0.00000000000E+00  0.00000000000E+00  0.33750695222E+03  0.33750695222E+03  0.00000000000E+00 0. -1.
         -2   -1    0    0    0  501 -0.00000000000E+00 -0.00000000000E+00 -0.10732756113E+04  0.10732756113E+04  0.00000000000E+00 0.  1.
         23    2    1    2    0    0  0.51178021369E+03 -0.39027948434E+02 -0.73059316080E+03  0.89749029423E+03  0.90996119445E+02 0.  0.
         11    1    3    3    0    0  0.20662386284E+03 -0.42835351882E+02 -0.23852703155E+03  0.31847045836E+03  0.00000000000E+00 0. -1.
        -11    1    3    3    0    0  0.30515635085E+03  0.38074034483E+01 -0.49206612925E+03  0.57901983587E+03  0.00000000000E+00 0.  1.
         22    1    1    2    0    0 -0.51178021369E+03  0.39027948434E+02 -0.51754982403E+01  0.51329226924E+03  0.00000000000E+00 0.  1.
<mgrwt>
<rscale>  0 0.12037242E+04</rscale>
<asrwt>0</asrwt>
<pdfrwt beam="1">  1        2 0.51924146E-01 0.12037242E+04</pdfrwt>
<pdfrwt beam="2">  1       -2 0.16511933E+00 0.12037242E+04</pdfrwt>
<totfact> 0.21912781E+01</totfact>
</mgrwt>
</event>
<event>
 6    1  0.1588846E-005  0.5556032E+04  0.7818608E-02  0.7748026E-01
         -2   -1    0    0    0  501 -0.00000000000E+00  0.00000000000E+00  0.29943430109E+04  0.29943430109E+04  0.00000000000E+00 0.  1.
          2   -1    0    0  501    0  0.00000000000E+00 -0.00000000000E+00 -0.25773179125E+04  0.25773179125E+04  0.00000000000E+00 0. -1.
         23    2    1    2    0    0  0.12653727050E+04 -0.23634960283E+04  0.93530833669E+03  0.28411116978E+04  0.99158643777E+02 0.  0.
         11    1    3    3    0    0  0.11972406354E+04 -0.22147041291E+04  0.90052304332E+03  0.26738065132E+04  0.00000000000E+00 0.  1.
        -11    1    3    3    0    0  0.68132069589E+02 -0.14879189916E+03  0.34785293372E+02  0.16730518461E+03  0.00000000000E+00 0. -1.
         22    1    1    2    0    0 -0.12653727050E+04  0.23634960283E+04 -0.51828323833E+03  0.27305492256E+04  0.00000000000E+00 0. -1.
<mgrwt>
<rscale>  0 0.55560324E+04</rscale>
<asrwt>0</asrwt>
<pdfrwt beam="1">  1        2 0.39651045E+00 0.55560324E+04</pdfrwt>
<pdfrwt beam="2">  1       -2 0.46066816E+00 0.55560324E+04</pdfrwt>
<totfact> 0.64854255E-03</totfact>
</mgrwt>
</event>
<event>
 6    1  0.1683301E-005  0.3140360E+04  0.7818608E-02  0.8204748E-01
         -1   -1    0    0    0  501 -0.00000000000E+00  0.00000000000E+00  0.94607640865E+03  0.94607640865E+03  0.00000000000E+00 0.  1.
          1   -1    0    0  501    0  0.00000000000E+00 -0.00000000000E+00 -0.26059897147E+04  0.26059897147E+04  0.00000000000E+00 0. -1.
         23    2    1    2    0    0  0.57492392431E+03 -0.44944164624E+02  0.81981726303E+03  0.10061632988E+04  0.87788054415E+02 0.  0.
         13    1    3    3    0    0  0.14209313147E+03  0.14213882878E+02  0.25319723772E+03  0.29069113105E+03  0.00000000000E+00 0.  1.
        -13    1    3    3    0    0  0.43283079283E+03 -0.59158047502E+02  0.56662002530E+03  0.71547216779E+03  0.00000000000E+00 0. -1.
         22    1    1    2    0    0 -0.57492392431E+03  0.44944164624E+02 -0.24797305691E+04  0.25459028245E+04  0.00000000000E+00 0. -1.
<mgrwt>
<rscale>  0 0.31403601E+04</rscale>
<asrwt>0</asrwt>
<pdfrwt beam="1">  1        1 0.40092148E+00 0.31403601E+04</pdfrwt>
<pdfrwt beam="2">  1       -1 0.14555022E+00 0.31403601E+04</pdfrwt>
<totfact> 0.36332064E-01</totfact>
</mgrwt>
</event>
<event>
 6    1  0.1588846E-005  0.1459599E+04  0.7818608E-02  0.8911773E-01
          1   -1    0    0  501    0  0.00000000000E+00  0.00000000000E+00  0.14904614733E+04  0.14904614733E+04  0.00000000000E+00 0. -1.
         -1   -1    0    0    0  501 -0.00000000000E+00 -0.00000000000E+00 -0.35734376502E+03  0.35734376502E+03  0.00000000000E+00 0.  1.
         23    2    1    2    0    0  0.96649082862E+02  0.12741332872E+03  0.14663574923E+04  0.14781784601E+04  0.96083625388E+02 0.  0.
         11    1    3    3    0    0  0.85110693034E+02  0.91192843237E+02  0.71059000448E+03  0.72145555594E+03  0.00000000000E+00 0. -1.
        -11    1    3    3    0    0  0.11538389828E+02  0.36220485480E+02  0.75576748780E+03  0.75672290412E+03  0.00000000000E+00 0.  1.
         22    1    1    2    0    0 -0.96649082862E+02 -0.12741332872E+03 -0.33323978401E+03  0.36962677825E+03  0.00000000000E+00 0.  1.
<mgrwt>
<rscale>  0 0.14595987E+04</rscale>
<asrwt>0</asrwt>
<pdfrwt beam="1">  1        1 0.22930176E+00 0.14595987E+04</pdfrwt>
<pdfrwt beam="2">  1       -1 0.54975965E-01 0.14595987E+04</pdfrwt>
<totfact> 0.21554112E+01</totfact>
</mgrwt>
</event>
<event>
 6    1  0.1588846E-005  0.2236235E+04  0.7818608E-02  0.8503496E-01
          1   -1    0    0  501    0  0.00000000000E+00  0.00000000000E+00  0.12977007701E+04  0.12977007701E+04  0.00000000000E+00 0. -1.
         -1   -1    0    0    0  501 -0.00000000000E+00 -0.00000000000E+00 -0.96338582590E+03  0.96338582590E+03  0.00000000000E+00 0.  1.
         23    2    1    2    0    0  0.88690869037E+03  0.67754068480E+03  0.18375134533E+03  0.11348815516E+04  0.92321041692E+02 0.  0.
         13    1    3    3    0    0  0.53880440532E+03  0.46039080866E+03  0.94225383336E+02  0.71494636635E+03  0.00000000000E+00 0.  1.
        -13    1    3    3    0    0  0.34810428505E+03  0.21714987613E+03  0.89525961991E+02  0.41993518529E+03  0.00000000000E+00 0. -1.
         22    1    1    2    0    0 -0.88690869037E+03 -0.67754068480E+03  0.15056359885E+03  0.11262050443E+04  0.00000000000E+00 0.  1.
<mgrwt>
<rscale>  0 0.22362348E+04</rscale>
<asrwt>0</asrwt>
<pdfrwt beam="1">  1        1 0.19964627E+00 0.22362348E+04</pdfrwt>
<pdfrwt beam="2">  1       -1 0.14821320E+00 0.22362348E+04</pdfrwt>
<totfact> 0.29739286E+00</totfact>
</mgrwt>
</event>
<event>
 6    1  0.1588846E-005  0.2952145E+04  0.7818608E-02  0.8257530E-01
          1   -1    0    0  501    0  0.00000000000E+00  0.00000000000E+00  0.11318459003E+04  0.11318459003E+04  0.00000000000E+00 0. -1.
         -1   -1    0    0    0  501 -0.00000000000E+00 -0.00000000000E+00 -0.19249878330E+04  0.19249878330E+04  0.00000000000E+00 0.  1.
         23    2    1    2    0    0 -0.13016733851E+04 -0.30943607905E+03 -0.10387957844E+04  0.16965212312E+04  0.94780366913E+02 0.  0.
         11    1    3    3    0    0 -0.44592882480E+03 -0.99544743172E+02 -0.41183873931E+03  0.61512016702E+03  0.00000000000E+00 0.  1.
        -11    1    3    3    0    0 -0.85574456027E+03 -0.20989133588E+03 -0.62695704509E+03  0.10814010642E+04  0.00000000000E+00 0. -1.
         22    1    1    2    0    0  0.13016733851E+04  0.30943607905E+03  0.24565385175E+03  0.13603125021E+04  0.00000000000E+00 0. -1.
<mgrwt>
<rscale>  0 0.29521447E+04</rscale>
<asrwt>0</asrwt>
<pdfrwt beam="1">  1        1 0.17413014E+00 0.29521447E+04</pdfrwt>
<pdfrwt beam="2">  1       -1 0.29615197E+00 0.29521447E+04</pdfrwt>
<totfact> 0.35864301E-01</totfact>
</mgrwt>
</event>
<event>
 6    1  0.1588846E-005  0.1485805E+04  0.7818608E-02  0.8893947E-01
          1   -1    0    0  501    0  0.00000000000E+00  0.00000000000E+00  0.14229042568E+04  0.14229042568E+04  0.00000000000E+00 0. -1.
         -1   -1    0    0    0  501 -0.00000000000E+00 -0.00000000000E+00 -0.38787177490E+03  0.38787177490E+03  0.00000000000E+00 0.  1.
         23    2    1    2    0    0  0.72360144024E+03 -0.87627337912E+02  0.36142424416E+03  0.81829144613E+03  0.87725776577E+02 0.  0.
         13    1    3    3    0    0  0.29304656399E+03 -0.21329829126E+01  0.17544352575E+03  0.34155712408E+03  0.00000000000E+00 0.  1.
        -13    1    3    3    0    0  0.43055487625E+03 -0.85494354999E+02  0.18598071840E+03  0.47673432205E+03  0.00000000000E+00 0. -1.
         22    1    1    2    0    0 -0.72360144024E+03  0.87627337912E+02  0.67360823777E+03  0.99248458560E+03  0.00000000000E+00 0. -1.
<mgrwt>
<rscale>  0 0.14858054E+04</rscale>
<asrwt>0</asrwt>
<pdfrwt beam="1">  1        1 0.21890834E+00 0.14858054E+04</pdfrwt>
<pdfrwt beam="2">  1       -1 0.59672582E-01 0.14858054E+04</pdfrwt>
<totfact> 0.20413610E+01</totfact>
</mgrwt>
</event>
<event>
 6    1  0.1588846E-005  0.2168755E+04  0.7818608E-02  0.8531547E-01
          1   -1    0    0  501    0  0.00000000000E+00  0.00000000000E+00  0.19189213290E+04  0.19189213290E+04  0.00000000000E+00 0. -1.
         -1   -1    0    0    0  501 -0.00000000000E+00 -0.00000000000E+00 -0.61277879363E+03  0.61277879363E+03  0.00000000000E+00 0.  1.
         23    2    1    2    0    0 -0.40804420725E+03 -0.88808251645E+03  0.11061988389E+03  0.98752881045E+03  0.88236963129E+02 0.  0.
         11    1    3    3    0    0 -0.15867304652E+03 -0.41443145423E+03  0.83500465698E+02  0.45155608037E+03  0.00000000000E+00 0. -1.
        -11    1    3    3    0    0 -0.24937116073E+03 -0.47365106222E+03  0.27119418189E+02  0.53597273008E+03  0.00000000000E+00 0.  1.
         22    1    1    2    0    0  0.40804420725E+03  0.88808251645E+03  0.11955226515E+04  0.15441713121E+04  0.00000000000E+00 0. -1.
<mgrwt>
<rscale>  0 0.21687548E+04</rscale>
<asrwt>0</asrwt>
<pdfrwt beam="1">  1        1 0.29521866E+00 0.21687548E+04</pdfrwt>
<pdfrwt beam="2">  1       -1 0.94273661E-01 0.21687548E+04</pdfrwt>
<totfact> 0.33682498E+00</totfact>
</mgrwt>
</event>
<event>
 6    1  0.1588846E-005  0.2871100E+04  0.7818608E-02  0.8281528E-01
          2   -1    0    0  501    0  0.00000000000E+00  0.00000000000E+00  0.27560048537E+04  0.27560048537E+04  0.00000000000E+00 0. -1.
         -2   -1    0    0    0  501 -0.00000000000E+00 -0.00000000000E+00 -0.74775064032E+03  0.74775064032E+03  0.00000000000E+00 0.  1.
         23    2    1    2    0    0 -0.34791625962E+02  0.85711700067E+03  0.24076162874E+04  0.25575260947E+04  0.91997432637E+02 0.  0.
         11    1    3    3    0    0 -0.55127792202E+02  0.52966462791E+03  0.14010646187E+04  0.14988548153E+04  0.00000000000E+00 0.  1.
        -11    1    3    3    0    0  0.20336166240E+02  0.32745237276E+03  0.10065516686E+04  0.10586712793E+04  0.00000000000E+00 0. -1.
         22    1    1    2    0    0  0.34791625962E+02 -0.85711700067E+03 -0.39936207399E+03  0.94622939936E+03  0.00000000000E+00 0.  1.
<mgrwt>
<rscale>  0 0.28711004E+04</rscale>
<asrwt>0</asrwt>
<pdfrwt beam="1">  1        2 0.42400074E+00 0.28711004E+04</pdfrwt>
<pdfrwt beam="2">  1       -2 0.11503856E+00 0.28711004E+04</pdfrwt>
<totfact> 0.12524398E+00</totfact>
</mgrwt>
</event>
<event>
 6    1  0.1588846E-005  0.2836024E+04  0.7818608E-02  0.8292171E-01
         -2   -1    0    0    0  501 -0.00000000000E+00  0.00000000000E+00  0.19038874959E+04  0.19038874959E+04  0.00000000000E+00 0.  1.
          2   -1    0    0  501    0  0.00000000000E+00 -0.00000000000E+00 -0.10561329056E+04  0.10561329056E+04  0.00000000000E+00 0. -1.
         23    2    1    2    0    0 -0.28332134874E+03 -0.13637429023E+04  0.15527363549E+03  0.14045154793E+04  0.92131098638E+02 0.  0.
         11    1    3    3    0    0 -0.19350643410E+03 -0.10115608866E+04  0.15190841763E+03  0.10410457890E+04  0.00000000000E+00 0. -1.
        -11    1    3    3    0    0 -0.89814914639E+02 -0.35218201572E+03  0.33652178568E+01  0.36346969032E+03  0.00000000000E+00 0.  1.
         22    1    1    2    0    0  0.28332134874E+03  0.13637429023E+04  0.69248095480E+03  0.15555049222E+04  0.00000000000E+00 0.  1.
<mgrwt>
<rscale>  0 0.28360241E+04</rscale>
<asrwt>0</asrwt>
<pdfrwt beam="1">  1        2 0.16248199E+00 0.28360241E+04</pdfrwt>
<pdfrwt beam="2">  1       -2 0.29290577E+00 0.28360241E+04</pdfrwt>
<totfact> 0.70700071E-01</totfact>
</mgrwt>
</event>
<event>
 6    1  0.1588846E-005  0.7070440E+03  0.7818608E-02  0.9705261E-01
          3   -1    0    0  501    0  0.00000000000E+00  0.00000000000E+00  0.36415823964E+03  0.36415823964E+03  0.00000000000E+00 0. -1.
         -3   -1    0    0    0  501 -0.00000000000E+00 -0.00000000000E+00 -0.34319642171E+03  0.34319642171E+03  0.00000000000E+00 0.  1.
         23    2    1    2    0    0  0.33371755079E+03 -0.86681134083E+02 -0.34279735852E+02  0.35816609914E+03  0.90701882976E+02 0.  0.
         11    1    3    3    0    0  0.14723816998E+03 -0.85034465610E+02 -0.15310502031E+02  0.17071716526E+03  0.00000000000E+00 0. -1.
        -11    1    3    3    0    0  0.18647938081E+03 -0.16466684731E+01 -0.18969233821E+02  0.18744893389E+03  0.00000000000E+00 0.  1.
         22    1    1    2    0    0 -0.33371755079E+03  0.86681134083E+02  0.55241553778E+02  0.34918856220E+03  0.00000000000E+00 0.  1.
<mgrwt>
<rscale>  0 0.70704400E+03</rscale>
<asrwt>0</asrwt>
<pdfrwt beam="1">  1        3 0.56024344E-01 0.70704400E+03</pdfrwt>
<pdfrwt beam="2">  1       -3 0.52799450E-01 0.70704400E+03</pdfrwt>
<totfact> 0.29315361E+01</totfact>
</mgrwt>
</event>
<event>
 6    1  0.1588846E-005  0.2728963E+04  0.7818608E-02  0.8325668E-01
          2   -1    0    0  501    0  0.00000000000E+00  0.00000000000E+00  0.11665128185E+04  0.11665128185E+04  0.00000000000E+00 0. -1.
         -2   -1    0    0    0  501 -0.00000000000E+00 -0.00000000000E+00 -0.15960472927E+04  0.15960472927E+04  0.00000000000E+00 0.  1.
         23    2    1    2    0    0 -0.10492458157E+04  0.71054395206E+03 -0.72303450658E+03  0.14618173394E+04  0.91332067455E+02 0.  0.
         13    1    3    3    0    0 -0.37858579191E+03  0.20523874207E+03 -0.23514619467E+03  0.49065657639E+03  0.00000000000E+00 0. -1.
        -13    1    3    3    0    0 -0.67066002375E+03  0.50530521000E+03 -0.48788831191E+03  0.97116076301E+03  0.00000000000E+00 0.  1.
         22    1    1    2    0    0  0.10492458157E+04 -0.71054395206E+03  0.29350003234E+03  0.13007427718E+04  0.00000000000E+00 0. -1.
<mgrwt>
<rscale>  0 0.27289629E+04</rscale>
<asrwt>0</asrwt>
<pdfrwt beam="1">  1        2 0.17946351E+00 0.27289629E+04</pdfrwt>
<pdfrwt beam="2">  1       -2 0.24554574E+00 0.27289629E+04</pdfrwt>
<totfact> 0.11886268E+00</totfact>
</mgrwt>
</event>
<event>
 6    1  0.1588846E-005  0.2322623E+04  0.7818608E-02  0.8469054E-01
          1   -1    0    0  501    0  0.00000000000E+00  0.00000000000E+00  0.10050440132E+04  0.10050440132E+04  0.00000000000E+00 0. -1.
         -1   -1    0    0    0  501 -0.00000000000E+00 -0.00000000000E+00 -0.13418759084E+04  0.13418759084E+04  0.00000000000E+00 0.  1.
         23    2    1    2    0    0 -0.94100722984E+03 -0.21258151176E+03 -0.81875294980E+03  0.12685260192E+04  0.90090858674E+02 0.  0.
         11    1    3    3    0    0 -0.32053498639E+03 -0.11315840184E+03 -0.26613265072E+03  0.43171065447E+03  0.00000000000E+00 0. -1.
        -11    1    3    3    0    0 -0.62047224345E+03 -0.99423109913E+02 -0.55262029908E+03  0.83681536472E+03  0.00000000000E+00 0.  1.
         22    1    1    2    0    0  0.94100722984E+03  0.21258151176E+03  0.48192105463E+03  0.10783939024E+04  0.00000000000E+00 0. -1.
<mgrwt>
<rscale>  0 0.23226230E+04</rscale>
<asrwt>0</asrwt>
<pdfrwt beam="1">  1        1 0.15462216E+00 0.23226230E+04</pdfrwt>
<pdfrwt beam="2">  1       -1 0.20644245E+00 0.23226230E+04</pdfrwt>
<totfact> 0.18386454E+00</totfact>
</mgrwt>
</event>
<event>
 6    1  0.1588846E-005  0.9190644E+03  0.7818608E-02  0.9402059E-01
         -1   -1    0    0    0  501 -0.00000000000E+00  0.00000000000E+00  0.31821061063E+03  0.31821061063E+03  0.00000000000E+00 0.  1.
          1   -1    0    0  501    0  0.00000000000E+00 -0.00000000000E+00 -0.66361653616E+03  0.66361653616E+03  0.00000000000E+00 0. -1.
         23    2    1    2    0    0 -0.16760427160E+03 -0.39491429854E+03 -0.33718141997E+03  0.55273958284E+03  0.88211345154E+02 0.  0.
         13    1    3    3    0    0 -0.33577586056E+02 -0.19123811563E+03 -0.14857644059E+03  0.24448809757E+03  0.00000000000E+00 0.  1.
        -13    1    3    3    0    0 -0.13402668555E+03 -0.20367618290E+03 -0.18860497938E+03  0.30825148526E+03  0.00000000000E+00 0. -1.
         22    1    1    2    0    0  0.16760427160E+03  0.39491429854E+03 -0.82245055488E+01  0.42908756395E+03  0.00000000000E+00 0.  1.
<mgrwt>
<rscale>  0 0.91906436E+03</rscale>
<asrwt>0</asrwt>
<pdfrwt beam="1">  1        1 0.10209485E+00 0.91906436E+03</pdfrwt>
<pdfrwt beam="2">  1       -1 0.48955479E-01 0.91906436E+03</pdfrwt>
<totfact> 0.12419559E+02</totfact>
</mgrwt>
</event>
<event>
 6    1  0.1588846E-005  0.3262978E+04  0.7818608E-02  0.8172380E-01
          3   -1    0    0  501    0  0.00000000000E+00  0.00000000000E+00  0.12878724730E+04  0.12878724730E+04  0.00000000000E+00 0. -1.
         -3   -1    0    0    0  501 -0.00000000000E+00 -0.00000000000E+00 -0.20667852843E+04  0.20667852843E+04  0.00000000000E+00 0.  1.
         23    2    1    2    0    0 -0.39090400277E+03  0.15806322129E+04 -0.47318983819E+03  0.16979529955E+04  0.89059643277E+02 0.  0.
         11    1    3    3    0    0 -0.22006053349E+03  0.70548318681E+03 -0.21169973799E+03  0.76873268718E+03  0.00000000000E+00 0. -1.
        -11    1    3    3    0    0 -0.17084346928E+03  0.87514902608E+03 -0.26149010019E+03  0.92922030829E+03  0.00000000000E+00 0.  1.
         22    1    1    2    0    0  0.39090400277E+03 -0.15806322129E+04 -0.30572297313E+03  0.16567047619E+04  0.00000000000E+00 0. -1.
<mgrwt>
<rscale>  0 0.32629777E+04</rscale>
<asrwt>0</asrwt>
<pdfrwt beam="1">  1        3 0.19813423E+00 0.32629777E+04</pdfrwt>
<pdfrwt beam="2">  1       -3 0.31796696E+00 0.32629777E+04</pdfrwt>
<totfact> 0.98954968E-03</totfact>
</mgrwt>
</event>
<event>
 6    1  0.1588846E-005  0.1474661E+04  0.7818608E-02  0.8901480E-01
         -4   -1    0    0    0  501 -0.00000000000E+00  0.00000000000E+00  0.57604978421E+03  0.57604978421E+03  0.00000000000E+00 0. -1.
          4   -1    0    0  501    0  0.00000000000E+00 -0.00000000000E+00 -0.94376645258E+03  0.94376645258E+03  0.00000000000E+00 0.  1.
         23    2    1    2    0    0  0.10175269133E+03 -0.36419708402E+03 -0.83342456401E+03  0.91991877032E+03  0.93064031075E+02 0.  0.
         11    1    3    3    0    0 -0.13410323603E+02 -0.95088158173E+02 -0.23012695325E+03  0.24935919718E+03  0.00000000000E+00 0. -1.
        -11    1    3    3    0    0  0.11516301494E+03 -0.26910892585E+03 -0.60329761076E+03  0.67055957314E+03  0.00000000000E+00 0.  1.
         22    1    1    2    0    0 -0.10175269133E+03  0.36419708402E+03  0.46570789564E+03  0.59989746646E+03  0.00000000000E+00 0. -1.
<mgrwt>
<rscale>  0 0.14746613E+04</rscale>
<asrwt>0</asrwt>
<pdfrwt beam="1">  1        4 0.14519484E+00 0.14746613E+04</pdfrwt>
<pdfrwt beam="2">  1       -4 0.88623045E-01 0.14746613E+04</pdfrwt>
<totfact> 0.68937139E-01</totfact>
</mgrwt>
</event>
<event>
 6    1  0.1588846E-005  0.3884388E+04  0.7818608E-02  0.8028284E-01
         -2   -1    0    0    0  501 -0.00000000000E+00  0.00000000000E+00  0.11989917915E+04  0.11989917915E+04  0.00000000000E+00 0.  1.
          2   -1    0    0  501    0  0.00000000000E+00 -0.00000000000E+00 -0.31460748132E+04  0.31460748132E+04  0.00000000000E+00 0. -1.
         23    2    1    2    0    0 -0.39676709654E+02  0.15147862863E+04 -0.23312449017E+04  0.27818225148E+04  0.87646891077E+02 0.  0.
         11    1    3    3    0    0  0.16208329483E+02  0.92963184609E+03 -0.14526973087E+04  0.17247630417E+04  0.00000000000E+00 0.  1.
        -11    1    3    3    0    0 -0.55885039137E+02  0.58515444023E+03 -0.87854759298E+03  0.10570594731E+04  0.00000000000E+00 0. -1.
         22    1    1    2    0    0  0.39676709654E+02 -0.15147862863E+04  0.38416188007E+03  0.15632440899E+04  0.00000000000E+00 0.  1.
<mgrwt>
<rscale>  0 0.38843882E+04</rscale>
<asrwt>0</asrwt>
<pdfrwt beam="1">  1        2 0.48401151E+00 0.38843882E+04</pdfrwt>
<pdfrwt beam="2">  1       -2 0.18446027E+00 0.38843882E+04</pdfrwt>
<totfact> 0.18896661E-01</totfact>
</mgrwt>
</event>
<event>
 6    1  0.1588846E-005  0.2184728E+04  0.7818608E-02  0.8524812E-01
          1   -1    0    0  501    0  0.00000000000E+00  0.00000000000E+00  0.74859185137E+03  0.74859185137E+03  0.00000000000E+00 0. -1.
         -1   -1    0    0    0  501 -0.00000000000E+00 -0.00000000000E+00 -0.15940051157E+04  0.15940051157E+04  0.00000000000E+00 0.  1.
         23    2    1    2    0    0 -0.58202860780E+03  0.47237263635E+03  0.42623400180E+03  0.86646012472E+03  0.84761521775E+02 0.  0.
         13    1    3    3    0    0 -0.33534107450E+03  0.22316245952E+03  0.24901049181E+03  0.47356239781E+03  0.00000000000E+00 0.  1.
        -13    1    3    3    0    0 -0.24668753330E+03  0.24921017683E+03  0.17722350999E+03  0.39289772691E+03  0.00000000000E+00 0. -1.
         22    1    1    2    0    0  0.58202860780E+03 -0.47237263635E+03 -0.12716472661E+04  0.14761368423E+04  0.00000000000E+00 0.  1.
<mgrwt>
<rscale>  0 0.21847281E+04</rscale>
<asrwt>0</asrwt>
<pdfrwt beam="1">  1        1 0.11516798E+00 0.21847281E+04</pdfrwt>
<pdfrwt beam="2">  1       -1 0.24523155E+00 0.21847281E+04</pdfrwt>
<totfact> 0.16798798E+00</totfact>
</mgrwt>
</event>
<event>
 6    1  0.1588846E-005  0.4437807E+04  0.7818608E-02  0.7921616E-01
         -2   -1    0    0    0  501 -0.00000000000E+00  0.00000000000E+00  0.19213791872E+04  0.19213791872E+04  0.00000000000E+00 0. -1.
          2   -1    0    0  501    0  0.00000000000E+00 -0.00000000000E+00 -0.25624987650E+04  0.25624987650E+04  0.00000000000E+00 0.  1.
         23    2    1    2    0    0  0.34252843739E+03 -0.16045966063E+04 -0.18287511369E+04  0.24584089399E+04  0.85952288804E+02 0.  0.
         11    1    3    3    0    0  0.62258440755E+02 -0.41358345009E+03 -0.42542464892E+03  0.59658487706E+03  0.00000000000E+00 0.  1.
        -11    1    3    3    0    0  0.28026999664E+03 -0.11910131562E+04 -0.14033264880E+04  0.18618240629E+04  0.00000000000E+00 0. -1.
         22    1    1    2    0    0 -0.34252843739E+03  0.16045966063E+04  0.11876315591E+04  0.20254690123E+04  0.00000000000E+00 0. -1.
<mgrwt>
<rscale>  0 0.44378066E+04</rscale>
<asrwt>0</asrwt>
<pdfrwt beam="1">  1        2 0.39423058E+00 0.44378066E+04</pdfrwt>
<pdfrwt beam="2">  1       -2 0.29559680E+00 0.44378066E+04</pdfrwt>
<totfact> 0.82440243E-02</totfact>
</mgrwt>
</event>
<event>
 6    1  0.1588846E-005  0.3674443E+04  0.7818608E-02  0.8073649E-01
          2   -1    0    0  501    0  0.00000000000E+00  0.00000000000E+00  0.15642973446E+04  0.15642973446E+04  0.00000000000E+00 0.  1.
         -2   -1    0    0    0  501 -0.00000000000E+00 -0.00000000000E+00 -0.21577627711E+04  0.21577627711E+04  0.00000000000E+00 0. -1.
         23    2    1    2    0    0 -0.11051918533E+04  0.13169828748E+04 -0.94975058661E+03  0.19662605712E+04  0.90892968780E+02 0.  0.
         11    1    3    3    0    0 -0.87115307543E+03  0.99719102266E+03 -0.69884483814E+03  0.14972246740E+04  0.00000000000E+00 0. -1.
        -11    1    3    3    0    0 -0.23403877788E+03  0.31979185216E+03 -0.25090574847E+03  0.46903589722E+03  0.00000000000E+00 0.  1.
         22    1    1    2    0    0  0.11051918533E+04 -0.13169828748E+04  0.35628516012E+03  0.17557995445E+04  0.00000000000E+00 0.  1.
<mgrwt>
<rscale>  0 0.36744429E+04</rscale>
<asrwt>0</asrwt>
<pdfrwt beam="1">  1        2 0.24066113E+00 0.36744429E+04</pdfrwt>
<pdfrwt beam="2">  1       -2 0.33196350E+00 0.36744429E+04</pdfrwt>
<totfact> 0.19088602E-01</totfact>
</mgrwt>
</event>
<event>
 6    1  0.1588846E-005  0.2833605E+04  0.7818608E-02  0.8292911E-01
         -2   -1    0    0    0  501 -0.00000000000E+00  0.00000000000E+00  0.17244450615E+04  0.17244450615E+04  0.00000000000E+00 0.  1.
          2   -1    0    0  501    0  0.00000000000E+00 -0.00000000000E+00 -0.11640437134E+04  0.11640437134E+04  0.00000000000E+00 0. -1.
         23    2    1    2    0    0  0.75356934618E+03 -0.98765567671E+03  0.97180541637E+03  0.15798315231E+04  0.90174158816E+02 0.  0.
         13    1    3    3    0    0  0.31158379000E+03 -0.38794950936E+03  0.44342378997E+03  0.66649376405E+03  0.00000000000E+00 0.  1.
        -13    1    3    3    0    0  0.44198555618E+03 -0.59970616735E+03  0.52838162640E+03  0.91333775907E+03  0.00000000000E+00 0. -1.
         22    1    1    2    0    0 -0.75356934618E+03  0.98765567671E+03 -0.41140406826E+03  0.13086572518E+04  0.00000000000E+00 0. -1.
<mgrwt>
<rscale>  0 0.28336051E+04</rscale>
<asrwt>0</asrwt>
<pdfrwt beam="1">  1        2 0.17908365E+00 0.28336051E+04</pdfrwt>
<pdfrwt beam="2">  1       -2 0.26529924E+00 0.28336051E+04</pdfrwt>
<totfact> 0.89454657E-01</totfact>
</mgrwt>
</event>
<event>
 6    1  0.1588846E-005  0.3893809E+04  0.7818608E-02  0.8026318E-01
          1   -1    0    0  501    0  0.00000000000E+00  0.00000000000E+00  0.14662149961E+04  0.14662149961E+04  0.00000000000E+00 0. -1.
         -1   -1    0    0    0  501 -0.00000000000E+00 -0.00000000000E+00 -0.25851853100E+04  0.25851853100E+04  0.00000000000E+00 0.  1.
         23    2    1    2    0    0  0.16725831534E+04  0.14918512432E+03  0.46309683359E+03  0.17442966966E+04  0.91223254750E+02 0.  0.
         11    1    3    3    0    0  0.11801566428E+04  0.11534666155E+03  0.28488438930E+03  0.12195219019E+04  0.00000000000E+00 0. -1.
        -11    1    3    3    0    0  0.49242651052E+03  0.33838462766E+02  0.17821244428E+03  0.52477479468E+03  0.00000000000E+00 0.  1.
         22    1    1    2    0    0 -0.16725831534E+04 -0.14918512432E+03 -0.15820671475E+04  0.23071036096E+04  0.00000000000E+00 0.  1.
<mgrwt>
<rscale>  0 0.38938092E+04</rscale>
<asrwt>0</asrwt>
<pdfrwt beam="1">  1        1 0.22557154E+00 0.38938092E+04</pdfrwt>
<pdfrwt beam="2">  1       -1 0.39772082E+00 0.38938092E+04</pdfrwt>
<totfact> 0.40393184E-02</totfact>
</mgrwt>
</event>
<event>
 6    1  0.1588846E-005  0.3462578E+04  0.7818608E-02  0.8122716E-01
          1   -1    0    0  501    0  0.00000000000E+00  0.00000000000E+00  0.20382003464E+04  0.20382003464E+04  0.00000000000E+00 0. -1.
         -1   -1    0    0    0  501 -0.00000000000E+00 -0.00000000000E+00 -0.14705922794E+04  0.14705922794E+04  0.00000000000E+00 0.  1.
         23    2    1    2    0    0 -0.13861410115E+04 -0.53815425939E+03  0.11801804285E+04  0.19006129690E+04  0.92232876542E+02 0.  0.
         13    1    3    3    0    0 -0.41042389741E+03 -0.12512398212E+03  0.37498023500E+03  0.56983678637E+03  0.00000000000E+00 0.  1.
        -13    1    3    3    0    0 -0.97571711406E+03 -0.41303027727E+03  0.80520019352E+03  0.13307761826E+04  0.00000000000E+00 0. -1.
         22    1    1    2    0    0  0.13861410115E+04  0.53815425939E+03 -0.61257236145E+03  0.16081796568E+04  0.00000000000E+00 0. -1.
<mgrwt>
<rscale>  0 0.34625781E+04</rscale>
<asrwt>0</asrwt>
<pdfrwt beam="1">  1        1 0.31356928E+00 0.34625781E+04</pdfrwt>
<pdfrwt beam="2">  1       -1 0.22624497E+00 0.34625781E+04</pdfrwt>
<totfact> 0.22969889E-01</totfact>
</mgrwt>
</event>
<event>
 6    1  0.1588846E-005  0.1299456E+04  0.7818608E-02  0.9029997E-01
         -2   -1    0    0    0  501 -0.00000000000E+00  0.00000000000E+00  0.16368342687E+03  0.16368342687E+03  0.00000000000E+00 0.  1.
          2   -1    0    0  501    0  0.00000000000E+00 -0.00000000000E+00 -0.25790418790E+04  0.25790418790E+04  0.00000000000E+00 0. -1.
         23    2    1    2    0    0  0.30298450890E+03  0.46049988093E+03 -0.50068858329E+03  0.75028447624E+03  0.91531332770E+02 0.  0.
         13    1    3    3    0    0  0.71002758751E+02  0.15996470278E+03 -0.11705536210E+03  0.21055178860E+03  0.00000000000E+00 0. -1.
        -13    1    3    3    0    0  0.23198175015E+03  0.30053517815E+03 -0.38363322119E+03  0.53973268764E+03  0.00000000000E+00 0.  1.
         22    1    1    2    0    0 -0.30298450890E+03 -0.46049988093E+03 -0.19146698689E+04  0.19924408297E+04  0.00000000000E+00 0. -1.
<mgrwt>
<rscale>  0 0.12994559E+04</rscale>
<asrwt>0</asrwt>
<pdfrwt beam="1">  1        2 0.39677568E+00 0.12994559E+04</pdfrwt>
<pdfrwt beam="2">  1       -2 0.25182066E-01 0.12994559E+04</pdfrwt>
<totfact> 0.43693880E+01</totfact>
</mgrwt>
</event>
<event>
 6    1  0.1588846E-005  0.3484539E+04  0.7818608E-02  0.8117464E-01
          2   -1    0    0  501    0  0.00000000000E+00  0.00000000000E+00  0.33185121680E+04  0.33185121680E+04  0.00000000000E+00 0. -1.
         -2   -1    0    0    0  501 -0.00000000000E+00 -0.00000000000E+00 -0.91471787563E+03  0.91471787563E+03  0.00000000000E+00 0.  1.
         23    2    1    2    0    0 -0.81301507681E+03  0.14816248018E+04  0.69466791498E+03  0.18296247219E+04  0.93581742152E+02 0.  0.
         13    1    3    3    0    0 -0.54703451637E+03  0.90273034462E+03  0.43145245241E+03  0.11403157703E+04  0.00000000000E+00 0. -1.
        -13    1    3    3    0    0 -0.26598056044E+03  0.57889445723E+03  0.26321546257E+03  0.68930895169E+03  0.00000000000E+00 0.  1.
         22    1    1    2    0    0  0.81301507681E+03 -0.14816248018E+04  0.17091263774E+04  0.24036053217E+04  0.00000000000E+00 0.  1.
<mgrwt>
<rscale>  0 0.34845386E+04</rscale>
<asrwt>0</asrwt>
<pdfrwt beam="1">  1        2 0.51054033E+00 0.34845386E+04</pdfrwt>
<pdfrwt beam="2">  1       -2 0.14072583E+00 0.34845386E+04</pdfrwt>
<totfact> 0.31521562E-01</totfact>
</mgrwt>
</event>
<event>
 6    1  0.1588846E-005  0.1833628E+04  0.7818608E-02  0.8688618E-01
         -2   -1    0    0    0  501 -0.00000000000E+00  0.00000000000E+00  0.33423015125E+03  0.33423015125E+03  0.00000000000E+00 0.  1.
          2   -1    0    0  501    0  0.00000000000E+00 -0.00000000000E+00 -0.25148784441E+04  0.25148784441E+04  0.00000000000E+00 0. -1.
         23    2    1    2    0    0  0.32245588341E+03 -0.22989269162E+03  0.18783803377E+03  0.44774316590E+03  0.91445991023E+02 0.  0.
         13    1    3    3    0    0  0.76375765983E+02 -0.52587893108E+02  0.89555041572E+02  0.12891411716E+03  0.00000000000E+00 0. -1.
        -13    1    3    3    0    0  0.24608011742E+03 -0.17730479851E+03  0.98282992193E+02  0.31882904874E+03  0.00000000000E+00 0.  1.
         22    1    1    2    0    0 -0.32245588341E+03  0.22989269162E+03 -0.23684863266E+04  0.24013654295E+04  0.00000000000E+00 0. -1.
<mgrwt>
<rscale>  0 0.18336283E+04</rscale>
<asrwt>0</asrwt>
<pdfrwt beam="1">  1        2 0.38690439E+00 0.18336283E+04</pdfrwt>
<pdfrwt beam="2">  1       -2 0.51420021E-01 0.18336283E+04</pdfrwt>
<totfact> 0.11493560E+01</totfact>
</mgrwt>
</event>
<event>
 6    1  0.1588846E-005  0.3350034E+04  0.7818608E-02  0.8150280E-01
         -1   -1    0    0    0  501 -0.00000000000E+00  0.00000000000E+00  0.18393194957E+04  0.18393194957E+04  0.00000000000E+00 0.  1.
          1   -1    0    0  501    0  0.00000000000E+00 -0.00000000000E+00 -0.15253915057E+04  0.15253915057E+04  0.00000000000E+00 0. -1.
         23    2    1    2    0    0  0.50860139086E+03  0.80095465837E+03  0.15420558694E+04  0.18127761356E+04  0.89539232013E+02 0.  0.
         11    1    3    3    0    0  0.35605656648E+03  0.56430915900E+03  0.10039115287E+04  0.12054291613E+04  0.00000000000E+00 0. -1.
        -11    1    3    3    0    0  0.15254482438E+03  0.23664549937E+03  0.53814434067E+03  0.60734697432E+03  0.00000000000E+00 0.  1.
         22    1    1    2    0    0 -0.50860139086E+03 -0.80095465837E+03 -0.12281278794E+04  0.15519348658E+04  0.00000000000E+00 0. -1.
<mgrwt>
<rscale>  0 0.33500342E+04</rscale>
<asrwt>0</asrwt>
<pdfrwt beam="1">  1        1 0.23467562E+00 0.33500342E+04</pdfrwt>
<pdfrwt beam="2">  1       -1 0.28297223E+00 0.33500342E+04</pdfrwt>
<totfact> 0.22095552E-01</totfact>
</mgrwt>
</event>
<event>
 6    1  0.1588846E-005  0.1066492E+04  0.7818608E-02  0.9238481E-01
         -1   -1    0    0    0  501 -0.00000000000E+00  0.00000000000E+00  0.40387089566E+03  0.40387089566E+03  0.00000000000E+00 0.  1.
          1   -1    0    0  501    0  0.00000000000E+00 -0.00000000000E+00 -0.70406492947E+03  0.70406492947E+03  0.00000000000E+00 0. -1.
         23    2    1    2    0    0  0.67807389882E+02  0.45268595290E+03 -0.42756172496E+03  0.63280958630E+03  0.90091785374E+02 0.  0.
         11    1    3    3    0    0  0.12784844666E+02  0.18310707905E+03 -0.22911380528E+03  0.29357246196E+03  0.00000000000E+00 0.  1.
        -11    1    3    3    0    0  0.55022545216E+02  0.26957887385E+03 -0.19844791968E+03  0.33923712434E+03  0.00000000000E+00 0. -1.
         22    1    1    2    0    0 -0.67807389882E+02 -0.45268595290E+03  0.12736769115E+03  0.47512623883E+03  0.00000000000E+00 0.  1.
<mgrwt>
<rscale>  0 0.10664921E+04</rscale>
<asrwt>0</asrwt>
<pdfrwt beam="1">  1        1 0.10831768E+00 0.10664921E+04</pdfrwt>
<pdfrwt beam="2">  1       -1 0.62133985E-01 0.10664921E+04</pdfrwt>
<totfact> 0.70863058E+01</totfact>
</mgrwt>
</event>
<event>
 6    1  0.1588846E-005  0.5890424E+03  0.7818608E-02  0.9928404E-01
         -1   -1    0    0    0  501 -0.00000000000E+00  0.00000000000E+00  0.23435423648E+03  0.23435423648E+03  0.00000000000E+00 0.  1.
          1   -1    0    0  501    0  0.00000000000E+00 -0.00000000000E+00 -0.37013514637E+03  0.37013514637E+03  0.00000000000E+00 0. -1.
         23    2    1    2    0    0  0.42389136636E+02  0.20592987232E+03 -0.27061931512E+03  0.35471879462E+03  0.91578700156E+02 0.  0.
         13    1    3    3    0    0  0.26699896890E+02  0.29961839618E+02 -0.10560632135E+03  0.11297473804E+03  0.00000000000E+00 0. -1.
        -13    1    3    3    0    0  0.15689239746E+02  0.17596803270E+03 -0.16501299377E+03  0.24174405658E+03  0.00000000000E+00 0.  1.
         22    1    1    2    0    0 -0.42389136636E+02 -0.20592987232E+03  0.13483840524E+03  0.24977058823E+03  0.00000000000E+00 0.  1.
<mgrwt>
<rscale>  0 0.58904241E+03</rscale>
<asrwt>0</asrwt>
<pdfrwt beam="1">  1        1 0.56943868E-01 0.58904241E+03</pdfrwt>
<pdfrwt beam="2">  1       -1 0.36054498E-01 0.58904241E+03</pdfrwt>
<totfact> 0.49470543E+02</totfact>
</mgrwt>
</event>
<event>
 6    1  0.1588846E-005  0.6939975E+03  0.7818608E-02  0.9727553E-01
          2   -1    0    0  501    0  0.00000000000E+00  0.00000000000E+00  0.17239224127E+04  0.17239224127E+04  0.00000000000E+00 0. -1.
         -2   -1    0    0    0  501 -0.00000000000E+00 -0.00000000000E+00 -0.69845446444E+02  0.69845446444E+02  0.00000000000E+00 0.  1.
         23    2    1    2    0    0 -0.17061528860E+03 -0.29486986918E+03  0.78465348827E+03  0.85998255163E+03  0.88493366979E+02 0.  0.
         11    1    3    3    0    0 -0.17143015976E+02 -0.10770730461E+03  0.21641811199E+03  0.24234592148E+03  0.00000000000E+00 0. -1.
        -11    1    3    3    0    0 -0.15347227263E+03 -0.18716256458E+03  0.56823537629E+03  0.61763663015E+03  0.00000000000E+00 0.  1.
         22    1    1    2    0    0  0.17061528860E+03  0.29486986918E+03  0.86942347802E+03  0.93378530754E+03  0.00000000000E+00 0.  1.
<mgrwt>
<rscale>  0 0.69399749E+03</rscale>
<asrwt>0</asrwt>
<pdfrwt beam="1">  1        2 0.26521880E+00 0.69399749E+03</pdfrwt>
<pdfrwt beam="2">  1       -2 0.10745455E-01 0.69399749E+03</pdfrwt>
<totfact> 0.59231704E+02</totfact>
</mgrwt>
</event>
<event>
 6    1  0.1588846E-005  0.9949434E+03  0.7818608E-02  0.9314108E-01
         -2   -1    0    0    0  501 -0.00000000000E+00  0.00000000000E+00  0.83774356020E+02  0.83774356020E+02  0.00000000000E+00 0.  1.
          2   -1    0    0  501    0  0.00000000000E+00 -0.00000000000E+00 -0.29541034524E+04  0.29541034524E+04  0.00000000000E+00 0. -1.
         23    2    1    2    0    0  0.48475686347E+03  0.87633934676E+02 -0.15402787160E+04  0.16195326679E+04  0.88083008268E+02 0.  0.
         11    1    3    3    0    0  0.54049988924E+02  0.62264297595E+01 -0.97680123152E+02  0.11181044759E+03  0.00000000000E+00 0. -1.
        -11    1    3    3    0    0  0.43070687455E+03  0.81407504917E+02 -0.14425985929E+04  0.15077222204E+04  0.00000000000E+00 0.  1.
         22    1    1    2    0    0 -0.48475686347E+03 -0.87633934676E+02 -0.13300503803E+04  0.14183451405E+04  0.00000000000E+00 0. -1.
<mgrwt>
<rscale>  0 0.99494344E+03</rscale>
<asrwt>0</asrwt>
<pdfrwt beam="1">  1        2 0.45447746E+00 0.99494344E+03</pdfrwt>
<pdfrwt beam="2">  1       -2 0.12888362E-01 0.99494344E+03</pdfrwt>
<totfact> 0.86159868E+01</totfact>
</mgrwt>
</event>
<event>
 6    1  0.1588846E-005  0.4947058E+04  0.7818608E-02  0.7836726E-01
          1   -1    0    0  501    0  0.00000000000E+00  0.00000000000E+00  0.50682751748E+04  0.50682751748E+04  0.00000000000E+00 0. -1.
         -1   -1    0    0    0  501 -0.00000000000E+00 -0.00000000000E+00 -0.12071851032E+04  0.12071851032E+04  0.00000000000E+00 0.  1.
         23    2    1    2    0    0 -0.66345303512E+03 -0.10672119092E+04  0.46325468681E+04  0.48009241550E+04  0.96286385427E+02 0.  0.
         11    1    3    3    0    0 -0.51766720291E+03 -0.83399849971E+03  0.34592094087E+04  0.35957839985E+04  0.00000000000E+00 0. -1.
        -11    1    3    3    0    0 -0.14578583221E+03 -0.23321340952E+03  0.11733374594E+04  0.12051401566E+04  0.00000000000E+00 0.  1.
         22    1    1    2    0    0  0.66345303512E+03  0.10672119092E+04 -0.77145679654E+03  0.14745361230E+04  0.00000000000E+00 0.  1.
<mgrwt>
<rscale>  0 0.49470582E+04</rscale>
<asrwt>0</asrwt>
<pdfrwt beam="1">  1        1 0.77973463E+00 0.49470582E+04</pdfrwt>
<pdfrwt beam="2">  1       -1 0.18572079E+00 0.49470582E+04</pdfrwt>
<totfact> 0.95212287E-04</totfact>
</mgrwt>
</event>
<event>
 6    1  0.1588846E-005  0.1530640E+04  0.7818608E-02  0.8864330E-01
         -2   -1    0    0    0  501 -0.00000000000E+00  0.00000000000E+00  0.69681951132E+03  0.69681951132E+03  0.00000000000E+00 0.  1.
          2   -1    0    0  501    0  0.00000000000E+00 -0.00000000000E+00 -0.84055413874E+03  0.84055413874E+03  0.00000000000E+00 0. -1.
         23    2    1    2    0    0 -0.75452198380E+03 -0.57278091256E+02 -0.16760705536E+03  0.78030423673E+03  0.90544867765E+02 0.  0.
         13    1    3    3    0    0 -0.39111729563E+03 -0.65448340147E+02 -0.11592289035E+03  0.41315171629E+03  0.00000000000E+00 0. -1.
        -13    1    3    3    0    0 -0.36340468817E+03  0.81702488910E+01 -0.51684165005E+02  0.36715252043E+03  0.00000000000E+00 0.  1.
         22    1    1    2    0    0  0.75452198380E+03  0.57278091256E+02  0.23872427935E+02  0.75706941332E+03  0.00000000000E+00 0. -1.
<mgrwt>
<rscale>  0 0.15306398E+04</rscale>
<asrwt>0</asrwt>
<pdfrwt beam="1">  1        2 0.12931602E+00 0.15306398E+04</pdfrwt>
<pdfrwt beam="2">  1       -2 0.10720300E+00 0.15306398E+04</pdfrwt>
<totfact> 0.21725218E+01</totfact>
</mgrwt>
</event>
<event>
 6    1  0.1588846E-005  0.1725043E+04  0.7818608E-02  0.8747209E-01
         -1   -1    0    0    0  501 -0.00000000000E+00  0.00000000000E+00  0.26598391604E+03  0.26598391604E+03  0.00000000000E+00 0.  1.
          1   -1    0    0  501    0  0.00000000000E+00 -0.00000000000E+00 -0.27969501206E+04  0.27969501206E+04  0.00000000000E+00 0. -1.
         23    2    1    2    0    0 -0.45880513116E+03 -0.22439808919E+03 -0.24978017109E+04  0.25511171413E+04  0.91261330897E+02 0.  0.
         13    1    3    3    0    0 -0.22163812168E+03 -0.11091168485E+03 -0.14371639596E+04  0.14583775593E+04  0.00000000000E+00 0. -1.
        -13    1    3    3    0    0 -0.23716700948E+03 -0.11348640434E+03 -0.10606377514E+04  0.10927395819E+04  0.00000000000E+00 0.  1.
         22    1    1    2    0    0  0.45880513116E+03  0.22439808919E+03 -0.33164493677E+02  0.51181689543E+03  0.00000000000E+00 0.  1.
<mgrwt>
<rscale>  0 0.17250435E+04</rscale>
<asrwt>0</asrwt>
<pdfrwt beam="1">  1        1 0.43030000E+00 0.17250435E+04</pdfrwt>
<pdfrwt beam="2">  1       -1 0.40920604E-01 0.17250435E+04</pdfrwt>
<totfact> 0.46586658E+00</totfact>
</mgrwt>
</event>
<event>
 6    1  0.1588846E-005  0.3049942E+04  0.7818608E-02  0.8229612E-01
         -1   -1    0    0    0  501 -0.00000000000E+00  0.00000000000E+00  0.74908693128E+03  0.74908693128E+03  0.00000000000E+00 0.  1.
          1   -1    0    0  501    0  0.00000000000E+00 -0.00000000000E+00 -0.31044950836E+04  0.31044950836E+04  0.00000000000E+00 0. -1.
         23    2    1    2    0    0 -0.13801550082E+04 -0.49194258743E+03 -0.65092636777E+03  0.16058957579E+04  0.91436824582E+02 0.  0.
         13    1    3    3    0    0 -0.29865390410E+03 -0.70411934299E+02 -0.11969023978E+03  0.32935960351E+03  0.00000000000E+00 0. -1.
        -13    1    3    3    0    0 -0.10815011041E+04 -0.42153065313E+03 -0.53123612799E+03  0.12765361544E+04  0.00000000000E+00 0.  1.
         22    1    1    2    0    0  0.13801550082E+04  0.49194258743E+03 -0.17044817845E+04  0.22476862570E+04  0.00000000000E+00 0. -1.
<mgrwt>
<rscale>  0 0.30499421E+04</rscale>
<asrwt>0</asrwt>
<pdfrwt beam="1">  1        1 0.47761463E+00 0.30499421E+04</pdfrwt>
<pdfrwt beam="2">  1       -1 0.11524414E+00 0.30499421E+04</pdfrwt>
<totfact> 0.28958548E-01</totfact>
</mgrwt>
</event>
<event>
 6    1  0.1588846E-005  0.3129544E+04  0.7818608E-02  0.8207676E-01
         -2   -1    0    0    0  501 -0.00000000000E+00  0.00000000000E+00  0.15413092658E+04  0.15413092658E+04  0.00000000000E+00 0.  1.
          2   -1    0    0  501    0  0.00000000000E+00 -0.00000000000E+00 -0.15885920693E+04  0.15885920693E+04  0.00000000000E+00 0. -1.
         23    2    1    2    0    0  0.12737248499E+04  0.86697032385E+03 -0.28932234869E+03  0.15702232667E+04  0.88775842153E+02 0.  0.
         13    1    3    3    0    0  0.11000280767E+04  0.78291316524E+03 -0.26107498591E+03  0.13751999644E+04  0.00000000000E+00 0. -1.
        -13    1    3    3    0    0  0.17369677322E+03  0.84057158611E+02 -0.28247362778E+02  0.19502330231E+03  0.00000000000E+00 0.  1.
         22    1    1    2    0    0 -0.12737248499E+04 -0.86697032385E+03  0.24203954519E+03  0.15596780684E+04  0.00000000000E+00 0.  1.
<mgrwt>
<rscale>  0 0.31295442E+04</rscale>
<asrwt>0</asrwt>
<pdfrwt beam="1">  1        2 0.24439878E+00 0.31295442E+04</pdfrwt>
<pdfrwt beam="2">  1       -2 0.23712450E+00 0.31295442E+04</pdfrwt>
<totfact> 0.73984538E-01</totfact>
</mgrwt>
</event>
<event>
 6    1  0.1588846E-005  0.5949969E+03  0.7818608E-02  0.9915841E-01
         -2   -1    0    0    0  501 -0.00000000000E+00  0.00000000000E+00  0.13211876970E+03  0.13211876970E+03  0.00000000000E+00 0. -1.
          2   -1    0    0  501    0  0.00000000000E+00 -0.00000000000E+00 -0.66989209241E+03  0.66989209241E+03  0.00000000000E+00 0.  1.
         23    2    1    2    0    0 -0.33357512345E+02 -0.16397775035E+03 -0.59548170510E+03  0.62500328137E+03  0.89605883620E+02 0.  0.
         11    1    3    3    0    0  0.59314419989E+01 -0.48926675240E+02 -0.32155118251E+03  0.32530626266E+03  0.00000000000E+00 0. -1.
        -11    1    3    3    0    0 -0.39288954344E+02 -0.11505107511E+03 -0.27393052259E+03  0.29969701871E+03  0.00000000000E+00 0.  1.
         22    1    1    2    0    0  0.33357512345E+02  0.16397775035E+03  0.57708382389E+02  0.17700758074E+03  0.00000000000E+00 0. -1.
<mgrwt>
<rscale>  0 0.59499687E+03</rscale>
<asrwt>0</asrwt>
<pdfrwt beam="1">  1        2 0.10306032E+00 0.59499687E+03</pdfrwt>
<pdfrwt beam="2">  1       -2 0.20325965E-01 0.59499687E+03</pdfrwt>
<totfact> 0.90235495E+02</totfact>
</mgrwt>
</event>
<event>
 6    1  0.1588846E-005  0.1716819E+04  0.7818608E-02  0.8751830E-01
          1   -1    0    0  501    0  0.00000000000E+00  0.00000000000E+00  0.15591775610E+04  0.15591775610E+04  0.00000000000E+00 0. -1.
         -1   -1    0    0    0  501 -0.00000000000E+00 -0.00000000000E+00 -0.47259962996E+03  0.47259962996E+03  0.00000000000E+00 0.  1.
         23    2    1    2    0    0 -0.22081124118E+03 -0.39936305444E+01  0.15236031735E+04  0.15421195393E+04  0.89400727272E+02 0.  0.
         11    1    3    3    0    0 -0.11872783731E+03 -0.41875974744E+02  0.68453783540E+03  0.69601863819E+03  0.00000000000E+00 0. -1.
        -11    1    3    3    0    0 -0.10208340387E+03  0.37882344200E+02  0.83906533808E+03  0.84610090115E+03  0.00000000000E+00 0.  1.
         22    1    1    2    0    0  0.22081124118E+03  0.39936305444E+01 -0.43702524241E+03  0.48965765165E+03  0.00000000000E+00 0.  1.
<mgrwt>
<rscale>  0 0.17168188E+04</rscale>
<asrwt>0</asrwt>
<pdfrwt beam="1">  1        1 0.23987347E+00 0.17168188E+04</pdfrwt>
<pdfrwt beam="2">  1       -1 0.72707636E-01 0.17168188E+04</pdfrwt>
<totfact> 0.10790635E+01</totfact>
</mgrwt>
</event>
<event>
 6    1  0.1588846E-005  0.3312236E+04  0.7818608E-02  0.8159789E-01
         -2   -1    0    0    0  501 -0.00000000000E+00  0.00000000000E+00  0.33084417229E+04  0.33084417229E+04  0.00000000000E+00 0.  1.
          2   -1    0    0  501    0  0.00000000000E+00 -0.00000000000E+00 -0.82900868524E+03  0.82900868524E+03  0.00000000000E+00 0. -1.
         23    2    1    2    0    0 -0.15001929120E+04 -0.13013245830E+03  0.38249406881E+03  0.15558489151E+04  0.82770187379E+02 0.  0.
         13    1    3    3    0    0 -0.52987693917E+03 -0.25955099527E+02  0.99604247436E+02  0.53978166323E+03  0.00000000000E+00 0. -1.
        -13    1    3    3    0    0 -0.97031597284E+03 -0.10417735878E+03  0.28288982137E+03  0.10160672518E+04  0.00000000000E+00 0.  1.
         22    1    1    2    0    0  0.15001929120E+04  0.13013245830E+03  0.20969389689E+04  0.25816014931E+04  0.00000000000E+00 0.  1.
<mgrwt>
<rscale>  0 0.33122361E+04</rscale>
<asrwt>0</asrwt>
<pdfrwt beam="1">  1        2 0.12753980E+00 0.33122361E+04</pdfrwt>
<pdfrwt beam="2">  1       -2 0.50899103E+00 0.33122361E+04</pdfrwt>
<totfact> 0.39707613E-02</totfact>
</mgrwt>
</event>
<event>
 6    1  0.1588846E-005  0.3758423E+04  0.7818608E-02  0.8055137E-01
          2   -1    0    0  501    0  0.00000000000E+00  0.00000000000E+00  0.21590690022E+04  0.21590690022E+04  0.00000000000E+00 0. -1.
         -2   -1    0    0    0  501 -0.00000000000E+00 -0.00000000000E+00 -0.16356288588E+04  0.16356288588E+04  0.00000000000E+00 0.  1.
         23    2    1    2    0    0  0.12743482003E+04  0.58081990784E+03 -0.10016290961E+04  0.17241541434E+04  0.90175181130E+02 0.  0.
         11    1    3    3    0    0  0.12549048930E+04  0.57883783658E+03 -0.97574556284E+03  0.16917207024E+04  0.00000000000E+00 0. -1.
        -11    1    3    3    0    0  0.19443307302E+02  0.19820712650E+01 -0.25883533224E+02  0.32433441037E+02  0.00000000000E+00 0.  1.
         22    1    1    2    0    0 -0.12743482003E+04 -0.58081990784E+03  0.15250692395E+04  0.20705437176E+04  0.00000000000E+00 0. -1.
<mgrwt>
<rscale>  0 0.37584228E+04</rscale>
<asrwt>0</asrwt>
<pdfrwt beam="1">  1        2 0.33216446E+00 0.37584228E+04</pdfrwt>
<pdfrwt beam="2">  1       -2 0.25163521E+00 0.37584228E+04</pdfrwt>
<totfact> 0.27507553E-01</totfact>
</mgrwt>
</event>
<event>
 6    1  0.1588846E-005  0.5682857E+03  0.7818608E-02  0.9973479E-01
         -2   -1    0    0    0  501 -0.00000000000E+00  0.00000000000E+00  0.83580652933E+02  0.83580652933E+02  0.00000000000E+00 0.  1.
          2   -1    0    0  501    0  0.00000000000E+00 -0.00000000000E+00 -0.96597887735E+03  0.96597887735E+03  0.00000000000E+00 0. -1.
         23    2    1    2    0    0  0.22152219108E+03 -0.14730998113E+03 -0.57746682188E+03  0.64489241779E+03  0.10791658107E+03 0.  0.
         11    1    3    3    0    0  0.37955773694E+02  0.16041767183E+02 -0.90589211715E+02  0.99520773360E+02  0.00000000000E+00 0.  1.
        -11    1    3    3    0    0  0.18356641738E+03 -0.16335174831E+03 -0.48687761016E+03  0.54537164443E+03  0.00000000000E+00 0. -1.
         22    1    1    2    0    0 -0.22152219108E+03  0.14730998113E+03 -0.30493140253E+03  0.40466711249E+03  0.00000000000E+00 0.  1.
<mgrwt>
<rscale>  0 0.56828565E+03</rscale>
<asrwt>0</asrwt>
<pdfrwt beam="1">  1        2 0.14861213E+00 0.56828565E+03</pdfrwt>
<pdfrwt beam="2">  1       -2 0.12858563E-01 0.56828565E+03</pdfrwt>
<totfact> 0.12113621E+03</totfact>
</mgrwt>
</event>
<event>
 6    1  0.1588846E-005  0.3327684E+04  0.7818608E-02  0.8155887E-01
         -2   -1    0    0    0  501 -0.00000000000E+00  0.00000000000E+00  0.10888479386E+04  0.10888479386E+04  0.00000000000E+00 0.  1.
          2   -1    0    0  501    0  0.00000000000E+00 -0.00000000000E+00 -0.25424767634E+04  0.25424767634E+04  0.00000000000E+00 0. -1.
         23    2    1    2    0    0 -0.12820539005E+04 -0.34184388930E+03  0.36583584752E+03  0.13794430128E+04  0.92237246911E+02 0.  0.
         13    1    3    3    0    0 -0.60986055089E+03 -0.13690507542E+03  0.13204589221E+03  0.63883410120E+03  0.00000000000E+00 0.  1.
        -13    1    3    3    0    0 -0.67219334960E+03 -0.20493881388E+03  0.23378995532E+03  0.74060891156E+03  0.00000000000E+00 0. -1.
         22    1    1    2    0    0  0.12820539005E+04  0.34184388930E+03 -0.18194646723E+04  0.22518816892E+04  0.00000000000E+00 0. -1.
<mgrwt>
<rscale>  0 0.33276842E+04</rscale>
<asrwt>0</asrwt>
<pdfrwt beam="1">  1        2 0.39115027E+00 0.33276842E+04</pdfrwt>
<pdfrwt beam="2">  1       -2 0.16751507E+00 0.33276842E+04</pdfrwt>
<totfact> 0.60836971E-01</totfact>
</mgrwt>
</event>
<event>
 6    1  0.1588846E-005  0.2137258E+04  0.7818608E-02  0.8545006E-01
         -2   -1    0    0    0  501 -0.00000000000E+00  0.00000000000E+00  0.38275231247E+03  0.38275231247E+03  0.00000000000E+00 0.  1.
          2   -1    0    0  501    0  0.00000000000E+00 -0.00000000000E+00 -0.29835681708E+04  0.29835681708E+04  0.00000000000E+00 0. -1.
         23    2    1    2    0    0 -0.32717972849E+01 -0.19916283711E+03 -0.29533143830E+04  0.29614356229E+04  0.91425179019E+02 0.  0.
         13    1    3    3    0    0 -0.14546157325E+02 -0.41046737510E+02 -0.12507165107E+04  0.12514744166E+04  0.00000000000E+00 0.  1.
        -13    1    3    3    0    0  0.11274360040E+02 -0.15811609960E+03 -0.17025978723E+04  0.17099612062E+04  0.00000000000E+00 0. -1.
         22    1    1    2    0    0  0.32717972849E+01  0.19916283711E+03  0.35249852463E+03  0.40488486043E+03  0.00000000000E+00 0.  1.
<mgrwt>
<rscale>  0 0.21372577E+04</rscale>
<asrwt>0</asrwt>
<pdfrwt beam="1">  1        2 0.45901048E+00 0.21372577E+04</pdfrwt>
<pdfrwt beam="2">  1       -2 0.58884972E-01 0.21372577E+04</pdfrwt>
<totfact> 0.44206775E+00</totfact>
</mgrwt>
</event>
<event>
 6    1  0.1588846E-005  0.3747363E+04  0.7818608E-02  0.8057546E-01
         -2   -1    0    0    0  501 -0.00000000000E+00  0.00000000000E+00  0.21641814688E+04  0.21641814688E+04  0.00000000000E+00 0.  1.
          2   -1    0    0  501    0  0.00000000000E+00 -0.00000000000E+00 -0.16221756766E+04  0.16221756766E+04  0.00000000000E+00 0. -1.
         23    2    1    2    0    0  0.11425750620E+03  0.13404411475E+04 -0.10450522451E+04  0.17058306589E+04  0.88807625256E+02 0.  0.
         11    1    3    3    0    0  0.66245608405E+02  0.10972111311E+04 -0.82550475369E+03  0.13746704497E+04  0.00000000000E+00 0.  1.
        -11    1    3    3    0    0  0.48011897799E+02  0.24323001642E+03 -0.21954749138E+03  0.33116020925E+03  0.00000000000E+00 0. -1.
         22    1    1    2    0    0 -0.11425750620E+03 -0.13404411475E+04  0.15870580372E+04  0.20805264866E+04  0.00000000000E+00 0.  1.
<mgrwt>
<rscale>  0 0.37473631E+04</rscale>
<asrwt>0</asrwt>
<pdfrwt beam="1">  1        2 0.24956549E+00 0.37473631E+04</pdfrwt>
<pdfrwt beam="2">  1       -2 0.33295099E+00 0.37473631E+04</pdfrwt>
<totfact> 0.17362529E-01</totfact>
</mgrwt>
</event>
<event>
 6    1  0.1588846E-005  0.1069050E+04  0.7818608E-02  0.9235894E-01
          2   -1    0    0  501    0  0.00000000000E+00  0.00000000000E+00  0.40949185430E+03  0.40949185430E+03  0.00000000000E+00 0. -1.
         -2   -1    0    0    0  501 -0.00000000000E+00 -0.00000000000E+00 -0.69773597560E+03  0.69773597560E+03  0.00000000000E+00 0.  1.
         23    2    1    2    0    0 -0.62321720276E+02  0.13812503531E+03  0.38188538856E+03  0.42017900908E+03  0.88042191479E+02 0.  0.
         13    1    3    3    0    0 -0.20512279209E+02  0.25584832128E+02  0.19715908706E+03  0.19986756326E+03  0.00000000000E+00 0. -1.
        -13    1    3    3    0    0 -0.41809441067E+02  0.11254020318E+03  0.18472630150E+03  0.22031144582E+03  0.00000000000E+00 0.  1.
         22    1    1    2    0    0  0.62321720276E+02 -0.13812503531E+03 -0.67012950986E+03  0.68704882082E+03  0.00000000000E+00 0.  1.
<mgrwt>
<rscale>  0 0.10690504E+04</rscale>
<asrwt>0</asrwt>
<pdfrwt beam="1">  1        2 0.62998747E-01 0.10690504E+04</pdfrwt>
<pdfrwt beam="2">  1       -2 0.10734400E+00 0.10690504E+04</pdfrwt>
<totfact> 0.53688154E+01</totfact>
</mgrwt>
</event>
<event>
 6    1  0.1588846E-005  0.9652493E+03  0.7818608E-02  0.9347502E-01
         -2   -1    0    0    0  501 -0.00000000000E+00  0.00000000000E+00  0.39977624011E+03  0.39977624011E+03  0.00000000000E+00 0.  1.
          2   -1    0    0  501    0  0.00000000000E+00 -0.00000000000E+00 -0.58264236850E+03  0.58264236850E+03  0.00000000000E+00 0. -1.
         23    2    1    2    0    0  0.18221436692E+03  0.10645811499E+03  0.34548404399E+03  0.41348160822E+03  0.84097621388E+02 0.  0.
         13    1    3    3    0    0  0.18114990583E+03  0.92313005439E+02  0.34349690692E+03  0.39915799431E+03  0.00000000000E+00 0. -1.
        -13    1    3    3    0    0  0.10644610899E+01  0.14145109552E+02  0.19871370660E+01  0.14323613907E+02  0.00000000000E+00 0.  1.
         22    1    1    2    0    0 -0.18221436692E+03 -0.10645811499E+03 -0.52835017238E+03  0.56893700039E+03  0.00000000000E+00 0. -1.
<mgrwt>
<rscale>  0 0.96524935E+03</rscale>
<asrwt>0</asrwt>
<pdfrwt beam="1">  1        2 0.89637287E-01 0.96524935E+03</pdfrwt>
<pdfrwt beam="2">  1       -2 0.61504037E-01 0.96524935E+03</pdfrwt>
<totfact> 0.12637839E+02</totfact>
</mgrwt>
</event>
<event>
 6    1  0.1588846E-005  0.2380315E+04  0.7818608E-02  0.8446910E-01
         -2   -1    0    0    0  501 -0.00000000000E+00  0.00000000000E+00  0.11624517685E+04  0.11624517685E+04  0.00000000000E+00 0.  1.
          2   -1    0    0  501    0  0.00000000000E+00 -0.00000000000E+00 -0.12185239356E+04  0.12185239356E+04  0.00000000000E+00 0. -1.
         23    2    1    2    0    0 -0.10298442690E+04 -0.58414646166E+03 -0.13147561560E+03  0.11945980294E+04  0.89287777592E+02 0.  0.
         13    1    3    3    0    0 -0.65699010354E+03 -0.36247874974E+03 -0.12558203039E+03  0.76078754362E+03  0.00000000000E+00 0. -1.
        -13    1    3    3    0    0 -0.37285416544E+03 -0.22166771192E+03 -0.58935852081E+01  0.43381048574E+03  0.00000000000E+00 0.  1.
         22    1    1    2    0    0  0.10298442690E+04  0.58414646166E+03  0.75403448529E+02  0.11863776747E+04  0.00000000000E+00 0.  1.
<mgrwt>
<rscale>  0 0.23803154E+04</rscale>
<asrwt>0</asrwt>
<pdfrwt beam="1">  1        2 0.18746522E+00 0.23803154E+04</pdfrwt>
<pdfrwt beam="2">  1       -2 0.17883873E+00 0.23803154E+04</pdfrwt>
<totfact> 0.30720480E+00</totfact>
</mgrwt>
</event>
<event>
 6    1  0.1588846E-005  0.1676185E+04  0.7818608E-02  0.8775064E-01
         -2   -1    0    0    0  501 -0.00000000000E+00  0.00000000000E+00  0.37605093855E+03  0.37605093855E+03  0.00000000000E+00 0.  1.
          2   -1    0    0  501    0  0.00000000000E+00 -0.00000000000E+00 -0.18678303240E+04  0.18678303240E+04  0.00000000000E+00 0. -1.
         23    2    1    2    0    0 -0.11979328100E+03 -0.73828448915E+03 -0.12467750873E+04  0.14568351882E+04  0.92229225765E+02 0.  0.
         11    1    3    3    0    0 -0.95778477988E+02 -0.39004347599E+03 -0.60294756219E+03  0.72446752361E+03  0.00000000000E+00 0.  1.
        -11    1    3    3    0    0 -0.24014803012E+02 -0.34824101316E+03 -0.64382752510E+03  0.73236766455E+03  0.00000000000E+00 0. -1.
         22    1    1    2    0    0  0.11979328100E+03  0.73828448915E+03 -0.24500429816E+03  0.78704607439E+03  0.00000000000E+00 0.  1.
<mgrwt>
<rscale>  0 0.16761854E+04</rscale>
<asrwt>0</asrwt>
<pdfrwt beam="1">  1        2 0.28735851E+00 0.16761854E+04</pdfrwt>
<pdfrwt beam="2">  1       -2 0.57853991E-01 0.16761854E+04</pdfrwt>
<totfact> 0.21094929E+01</totfact>
</mgrwt>
</event>
<event>
 6    1  0.1588846E-005  0.1478928E+04  0.7818608E-02  0.8898588E-01
          1   -1    0    0  501    0  0.00000000000E+00  0.00000000000E+00  0.32877033613E+04  0.32877033613E+04  0.00000000000E+00 0. -1.
         -1   -1    0    0    0  501 -0.00000000000E+00 -0.00000000000E+00 -0.16631876379E+03  0.16631876379E+03  0.00000000000E+00 0.  1.
         23    2    1    2    0    0  0.40969328282E+03 -0.57291257790E+03  0.20707908194E+04  0.21891803585E+04  0.90876929995E+02 0.  0.
         13    1    3    3    0    0  0.21897011856E+03 -0.23336839067E+03  0.98296810096E+03  0.10337480380E+04  0.00000000000E+00 0. -1.
        -13    1    3    3    0    0  0.19072316427E+03 -0.33954418722E+03  0.10878227184E+04  0.11554323205E+04  0.00000000000E+00 0.  1.
         22    1    1    2    0    0 -0.40969328282E+03  0.57291257790E+03  0.10505937781E+04  0.12648417666E+04  0.00000000000E+00 0.  1.
<mgrwt>
<rscale>  0 0.14789277E+04</rscale>
<asrwt>0</asrwt>
<pdfrwt beam="1">  1        1 0.50580047E+00 0.14789277E+04</pdfrwt>
<pdfrwt beam="2">  1       -1 0.25587505E-01 0.14789277E+04</pdfrwt>
<totfact> 0.48046958E+00</totfact>
</mgrwt>
</event>
<event>
 6    1  0.1588846E-005  0.1482591E+04  0.7818608E-02  0.8896113E-01
          2   -1    0    0  501    0  0.00000000000E+00  0.00000000000E+00  0.16844167965E+04  0.16844167965E+04  0.00000000000E+00 0. -1.
         -2   -1    0    0    0  501 -0.00000000000E+00 -0.00000000000E+00 -0.32623688280E+03  0.32623688280E+03  0.00000000000E+00 0.  1.
         23    2    1    2    0    0  0.24057890576E+03  0.11456730156E+03  0.16158095557E+04  0.16400097681E+04  0.88247622057E+02 0.  0.
         11    1    3    3    0    0  0.16417423606E+03  0.65737341797E+02  0.80797939426E+03  0.82710657079E+03  0.00000000000E+00 0. -1.
        -11    1    3    3    0    0  0.76404669702E+02  0.48829959764E+02  0.80783016142E+03  0.81290319733E+03  0.00000000000E+00 0.  1.
         22    1    1    2    0    0 -0.24057890576E+03 -0.11456730156E+03 -0.25762964197E+03  0.37064391120E+03  0.00000000000E+00 0.  1.
<mgrwt>
<rscale>  0 0.14825908E+04</rscale>
<asrwt>0</asrwt>
<pdfrwt beam="1">  1        2 0.25914104E+00 0.14825908E+04</pdfrwt>
<pdfrwt beam="2">  1       -2 0.50190290E-01 0.14825908E+04</pdfrwt>
<totfact> 0.36340204E+01</totfact>
</mgrwt>
</event>
<event>
 6    1  0.1588846E-005  0.2686052E+04  0.7818608E-02  0.8339545E-01
         -1   -1    0    0    0  501 -0.00000000000E+00  0.00000000000E+00  0.18229613852E+04  0.18229613852E+04  0.00000000000E+00 0. -1.
          1   -1    0    0  501    0  0.00000000000E+00 -0.00000000000E+00 -0.98944469058E+03  0.98944469058E+03  0.00000000000E+00 0.  1.
         23    2    1    2    0    0 -0.23236263438E+03  0.19655379437E+03 -0.95060574908E+03  0.10025114153E+04  0.93552443399E+02 0.  0.
         13    1    3    3    0    0 -0.16095002451E+03  0.14381720401E+03 -0.79053439115E+03  0.81947112344E+03  0.00000000000E+00 0.  1.
        -13    1    3    3    0    0 -0.71412609875E+02  0.52736590361E+02 -0.16007135793E+03  0.18304029186E+03  0.00000000000E+00 0. -1.
         22    1    1    2    0    0  0.23236263438E+03 -0.19655379437E+03  0.17841224437E+04  0.18098946605E+04  0.00000000000E+00 0. -1.
<mgrwt>
<rscale>  0 0.26860525E+04</rscale>
<asrwt>0</asrwt>
<pdfrwt beam="1">  1        1 0.15222226E+00 0.26860525E+04</pdfrwt>
<pdfrwt beam="2">  1       -1 0.28045560E+00 0.26860525E+04</pdfrwt>
<totfact> 0.59595703E-01</totfact>
</mgrwt>
</event>
<event>
 6    1  0.1588846E-005  0.5344956E+03  0.7818608E-02  0.1005148E+00
         -1   -1    0    0    0  501 -0.00000000000E+00  0.00000000000E+00  0.11701484248E+03  0.11701484248E+03  0.00000000000E+00 0.  1.
          1   -1    0    0  501    0  0.00000000000E+00 -0.00000000000E+00 -0.61036178118E+03  0.61036178118E+03  0.00000000000E+00 0. -1.
         23    2    1    2    0    0  0.22825848886E+03 -0.70211230400E+02 -0.39911818184E+03  0.47064599979E+03  0.71977631490E+02 0.  0.
         13    1    3    3    0    0  0.61997235555E+02 -0.38017567039E+02 -0.72254759369E+02  0.10251703698E+03  0.00000000000E+00 0. -1.
        -13    1    3    3    0    0  0.16626125330E+03 -0.32193663362E+02 -0.32686342247E+03  0.36812896281E+03  0.00000000000E+00 0.  1.
         22    1    1    2    0    0 -0.22825848886E+03  0.70211230400E+02 -0.94228756866E+02  0.25673062387E+03  0.00000000000E+00 0.  1.
<mgrwt>
<rscale>  0 0.53449560E+03</rscale>
<asrwt>0</asrwt>
<pdfrwt beam="1">  1        1 0.93901815E-01 0.53449560E+03</pdfrwt>
<pdfrwt beam="2">  1       -1 0.18002283E-01 0.53449560E+03</pdfrwt>
<totfact> 0.82009863E+02</totfact>
</mgrwt>
</event>
<event>
 6    1  0.1588846E-005  0.3278662E+04  0.7818608E-02  0.8168346E-01
          2   -1    0    0  501    0  0.00000000000E+00  0.00000000000E+00  0.20275626049E+04  0.20275626049E+04  0.00000000000E+00 0. -1.
         -2   -1    0    0    0  501 -0.00000000000E+00 -0.00000000000E+00 -0.13254367992E+04  0.13254367992E+04  0.00000000000E+00 0.  1.
         23    2    1    2    0    0  0.86154844286E+03 -0.88137068782E+03 -0.75204377241E+03  0.14467756053E+04  0.92248619539E+02 0.  0.
         13    1    3    3    0    0  0.51765902601E+03 -0.59248847935E+03 -0.48550698852E+03  0.92451636074E+03  0.00000000000E+00 0.  1.
        -13    1    3    3    0    0  0.34388941685E+03 -0.28888220847E+03 -0.26653678390E+03  0.52225924459E+03  0.00000000000E+00 0. -1.
         22    1    1    2    0    0 -0.86154844286E+03  0.88137068782E+03  0.14541695781E+04  0.19062237987E+04  0.00000000000E+00 0. -1.
<mgrwt>
<rscale>  0 0.32786620E+04</rscale>
<asrwt>0</asrwt>
<pdfrwt beam="1">  1        2 0.31193271E+00 0.32786620E+04</pdfrwt>
<pdfrwt beam="2">  1       -2 0.20391335E+00 0.32786620E+04</pdfrwt>
<totfact> 0.67659525E-01</totfact>
</mgrwt>
</event>
<event>
 6    1  0.1588846E-005  0.1161006E+04  0.7818608E-02  0.9147689E-01
          2   -1    0    0  501    0  0.00000000000E+00  0.00000000000E+00  0.53822425055E+03  0.53822425055E+03  0.00000000000E+00 0. -1.
         -2   -1    0    0    0  501 -0.00000000000E+00 -0.00000000000E+00 -0.62610333375E+03  0.62610333375E+03  0.00000000000E+00 0.  1.
         23    2    1    2    0    0  0.43845600895E+03 -0.37453541042E+03 -0.26931727596E+02  0.58446982106E+03  0.91428706347E+02 0.  0.
         13    1    3    3    0    0  0.12435617316E+03 -0.72044877099E+02 -0.36543368697E+02  0.14829140203E+03  0.00000000000E+00 0.  1.
        -13    1    3    3    0    0  0.31409983578E+03 -0.30249053332E+03  0.96116411000E+01  0.43617841903E+03  0.00000000000E+00 0. -1.
         22    1    1    2    0    0 -0.43845600895E+03  0.37453541042E+03 -0.60947355602E+02  0.57985776324E+03  0.00000000000E+00 0. -1.
<mgrwt>
<rscale>  0 0.11610065E+04</rscale>
<asrwt>0</asrwt>
<pdfrwt beam="1">  1        2 0.82803731E-01 0.11610065E+04</pdfrwt>
<pdfrwt beam="2">  1       -2 0.96323589E-01 0.11610065E+04</pdfrwt>
<totfact> 0.50427327E+01</totfact>
</mgrwt>
</event>
<event>
 6    1  0.1588846E-005  0.2300885E+04  0.7818608E-02  0.8477572E-01
         -1   -1    0    0    0  501 -0.00000000000E+00  0.00000000000E+00  0.21846239124E+04  0.21846239124E+04  0.00000000000E+00 0.  1.
          1   -1    0    0  501    0  0.00000000000E+00 -0.00000000000E+00 -0.60583325056E+03  0.60583325056E+03  0.00000000000E+00 0. -1.
         23    2    1    2    0    0  0.38279431481E+03  0.22575348044E+03  0.20752291509E+04  0.21241634629E+04  0.89433030329E+02 0.  0.
         13    1    3    3    0    0  0.18335441360E+03  0.10393984683E+03  0.77756834496E+03  0.80562700043E+03  0.00000000000E+00 0. -1.
        -13    1    3    3    0    0  0.19943990121E+03  0.12181363361E+03  0.12976608060E+04  0.13185364625E+04  0.00000000000E+00 0.  1.
         22    1    1    2    0    0 -0.38279431481E+03 -0.22575348044E+03 -0.49643848904E+03  0.66629370009E+03  0.00000000000E+00 0. -1.
<mgrwt>
<rscale>  0 0.23008849E+04</rscale>
<asrwt>0</asrwt>
<pdfrwt beam="1">  1        1 0.93205117E-01 0.23008849E+04</pdfrwt>
<pdfrwt beam="2">  1       -1 0.33609598E+00 0.23008849E+04</pdfrwt>
<totfact> 0.58629749E-01</totfact>
</mgrwt>
</event>
<event>
 6    1  0.1588846E-005  0.2953058E+04  0.7818608E-02  0.8257264E-01
         -2   -1    0    0    0  501 -0.00000000000E+00  0.00000000000E+00  0.11221702955E+04  0.11221702955E+04  0.00000000000E+00 0.  1.
          2   -1    0    0  501    0  0.00000000000E+00 -0.00000000000E+00 -0.19427868369E+04  0.19427868369E+04  0.00000000000E+00 0. -1.
         23    2    1    2    0    0 -0.43937322612E+03  0.36772057179E+03 -0.18215216452E+04  0.19116669358E+04  0.90896196916E+02 0.  0.
         11    1    3    3    0    0 -0.13646528540E+03  0.16921596354E+03 -0.72467356734E+03  0.75657689340E+03  0.00000000000E+00 0. -1.
        -11    1    3    3    0    0 -0.30290794072E+03  0.19850460825E+03 -0.10968480779E+04  0.11550900424E+04  0.00000000000E+00 0.  1.
         22    1    1    2    0    0  0.43937322612E+03 -0.36772057179E+03  0.10009051038E+04  0.11532901966E+04  0.00000000000E+00 0.  1.
<mgrwt>
<rscale>  0 0.29530579E+04</rscale>
<asrwt>0</asrwt>
<pdfrwt beam="1">  1        2 0.29889028E+00 0.29530579E+04</pdfrwt>
<pdfrwt beam="2">  1       -2 0.17264159E+00 0.29530579E+04</pdfrwt>
<totfact> 0.12612494E+00</totfact>
</mgrwt>
</event>
<event>
 6    1  0.1588846E-005  0.3289215E+04  0.7818608E-02  0.8165645E-01
          1   -1    0    0  501    0  0.00000000000E+00  0.00000000000E+00  0.89080870247E+03  0.89080870247E+03  0.00000000000E+00 0. -1.
         -1   -1    0    0    0  501 -0.00000000000E+00 -0.00000000000E+00 -0.30362673612E+04  0.30362673612E+04  0.00000000000E+00 0.  1.
         23    2    1    2    0    0 -0.92167096142E+03 -0.17667236494E+02 -0.26978670230E+04  0.28523926251E+04  0.88700177743E+02 0.  0.
         13    1    3    3    0    0 -0.73372779018E+03 -0.26227481948E+02 -0.20373367955E+04  0.21655912747E+04  0.00000000000E+00 0. -1.
        -13    1    3    3    0    0 -0.18794317123E+03  0.85602454537E+01 -0.66053022755E+03  0.68680135041E+03  0.00000000000E+00 0.  1.
         22    1    1    2    0    0  0.92167096142E+03  0.17667236494E+02  0.55240836424E+03  0.10746834386E+04  0.00000000000E+00 0. -1.
<mgrwt>
<rscale>  0 0.32892147E+04</rscale>
<asrwt>0</asrwt>
<pdfrwt beam="1">  1        1 0.13704749E+00 0.32892147E+04</pdfrwt>
<pdfrwt beam="2">  1       -1 0.46711806E+00 0.32892147E+04</pdfrwt>
<totfact> 0.37917529E-02</totfact>
</mgrwt>
</event>
<event>
 6    1  0.1588846E-005  0.1797055E+04  0.7818608E-02  0.8707867E-01
          4   -1    0    0  501    0  0.00000000000E+00  0.00000000000E+00  0.10006864519E+04  0.10006864519E+04  0.00000000000E+00 0. -1.
         -4   -1    0    0    0  501 -0.00000000000E+00 -0.00000000000E+00 -0.80679753365E+03  0.80679753365E+03  0.00000000000E+00 0.  1.
         23    2    1    2    0    0 -0.82614402159E+03 -0.23038067125E+03  0.35295372757E+03  0.93519343090E+03  0.12008838955E+03 0.  0.
         11    1    3    3    0    0 -0.35573025559E+03 -0.15945781554E+03  0.14370540389E+03  0.41547810145E+03  0.00000000000E+00 0. -1.
        -11    1    3    3    0    0 -0.47041376600E+03 -0.70922855712E+02  0.20924832368E+03  0.51971532945E+03  0.00000000000E+00 0.  1.
         22    1    1    2    0    0  0.82614402159E+03  0.23038067125E+03 -0.15906480935E+03  0.87229055461E+03  0.00000000000E+00 0.  1.
<mgrwt>
<rscale>  0 0.17970547E+04</rscale>
<asrwt>0</asrwt>
<pdfrwt beam="1">  1        4 0.15395176E+00 0.17970547E+04</pdfrwt>
<pdfrwt beam="2">  1       -4 0.12412270E+00 0.17970547E+04</pdfrwt>
<totfact> 0.25532470E-01</totfact>
</mgrwt>
</event>
<event>
 6    1  0.1588846E-005  0.7669752E+03  0.7818608E-02  0.9609089E-01
         -2   -1    0    0    0  501 -0.00000000000E+00  0.00000000000E+00  0.77922588335E+02  0.77922588335E+02  0.00000000000E+00 0.  1.
          2   -1    0    0  501    0  0.00000000000E+00 -0.00000000000E+00 -0.18872926897E+04  0.18872926897E+04  0.00000000000E+00 0. -1.
         23    2    1    2    0    0  0.34843851237E+03 -0.10408994682E+03 -0.11818959832E+04  0.12399788456E+04  0.91789479542E+02 0.  0.
         13    1    3    3    0    0  0.94579016377E+02  0.71222933502E+01 -0.23696720623E+03  0.25524375453E+03  0.00000000000E+00 0.  1.
        -13    1    3    3    0    0  0.25385949599E+03 -0.11121224017E+03 -0.94492877696E+03  0.98473509108E+03  0.00000000000E+00 0. -1.
         22    1    1    2    0    0 -0.34843851237E+03  0.10408994682E+03 -0.62747411817E+03  0.72523643241E+03  0.00000000000E+00 0.  1.
<mgrwt>
<rscale>  0 0.76697518E+03</rscale>
<asrwt>0</asrwt>
<pdfrwt beam="1">  1        2 0.29035273E+00 0.76697518E+03</pdfrwt>
<pdfrwt beam="2">  1       -2 0.11988090E-01 0.76697518E+03</pdfrwt>
<totfact> 0.40112772E+02</totfact>
</mgrwt>
</event>
<event>
 6    1  0.1588846E-005  0.1539784E+04  0.7818608E-02  0.8858420E-01
          1   -1    0    0  501    0  0.00000000000E+00  0.00000000000E+00  0.18908856343E+04  0.18908856343E+04  0.00000000000E+00 0. -1.
         -1   -1    0    0    0  501 -0.00000000000E+00 -0.00000000000E+00 -0.31346862924E+03  0.31346862924E+03  0.00000000000E+00 0.  1.
         23    2    1    2    0    0  0.52783083881E+03 -0.37202133381E+03  0.19874448707E+03  0.68194066040E+03  0.92403603576E+02 0.  0.
         11    1    3    3    0    0  0.11442982337E+03 -0.71826873251E+02  0.81427219063E+02  0.15774560597E+03  0.00000000000E+00 0.  1.
        -11    1    3    3    0    0  0.41340101544E+03 -0.30019446056E+03  0.11731726801E+03  0.52419505443E+03  0.00000000000E+00 0. -1.
         22    1    1    2    0    0 -0.52783083881E+03  0.37202133381E+03  0.13786725180E+04  0.15224136031E+04  0.00000000000E+00 0. -1.
<mgrwt>
<rscale>  0 0.15397835E+04</rscale>
<asrwt>0</asrwt>
<pdfrwt beam="1">  1        1 0.29090548E+00 0.15397835E+04</pdfrwt>
<pdfrwt beam="2">  1       -1 0.48225944E-01 0.15397835E+04</pdfrwt>
<totfact> 0.14654705E+01</totfact>
</mgrwt>
</event>
<event>
 6    1  0.1588846E-005  0.6572254E+03  0.7818608E-02  0.9793315E-01
         -2   -1    0    0    0  501 -0.00000000000E+00  0.00000000000E+00  0.20175831220E+03  0.20175831220E+03  0.00000000000E+00 0.  1.
          2   -1    0    0  501    0  0.00000000000E+00 -0.00000000000E+00 -0.53522602306E+03  0.53522602306E+03  0.00000000000E+00 0. -1.
         23    2    1    2    0    0  0.29167237862E+03 -0.30028668371E+02 -0.31932953076E+03  0.44342959504E+03  0.93187762946E+02 0.  0.
         13    1    3    3    0    0  0.14326265455E+03 -0.57234233728E+02 -0.18967716496E+03  0.24449411569E+03  0.00000000000E+00 0. -1.
        -13    1    3    3    0    0  0.14840972407E+03  0.27205565358E+02 -0.12965236580E+03  0.19893547935E+03  0.00000000000E+00 0.  1.
         22    1    1    2    0    0 -0.29167237862E+03  0.30028668371E+02 -0.14138180091E+02  0.29355474023E+03  0.00000000000E+00 0.  1.
<mgrwt>
<rscale>  0 0.65722538E+03</rscale>
<asrwt>0</asrwt>
<pdfrwt beam="1">  1        2 0.82342464E-01 0.65722538E+03</pdfrwt>
<pdfrwt beam="2">  1       -2 0.31039741E-01 0.65722538E+03</pdfrwt>
<totfact> 0.55040276E+02</totfact>
</mgrwt>
</event>
<event>
 6    1  0.1588846E-005  0.4352608E+04  0.7818608E-02  0.7936961E-01
         -1   -1    0    0    0  501 -0.00000000000E+00  0.00000000000E+00  0.19880204794E+04  0.19880204794E+04  0.00000000000E+00 0. -1.
          1   -1    0    0  501    0  0.00000000000E+00 -0.00000000000E+00 -0.23824200945E+04  0.23824200945E+04  0.00000000000E+00 0.  1.
         23    2    1    2    0    0  0.13097588789E+04 -0.13564961498E+04 -0.12872773981E+04  0.22841086587E+04  0.67224544644E+02 0.  0.
         11    1    3    3    0    0  0.29396737038E+03 -0.34539143948E+03 -0.31434934171E+03  0.55184016703E+03  0.00000000000E+00 0.  1.
        -11    1    3    3    0    0  0.10157915086E+04 -0.10111047104E+04 -0.97292805639E+03  0.17322684916E+04  0.00000000000E+00 0. -1.
         22    1    1    2    0    0 -0.13097588789E+04  0.13564961498E+04  0.89287778297E+03  0.20863319153E+04  0.00000000000E+00 0. -1.
<mgrwt>
<rscale>  0 0.43526084E+04</rscale>
<asrwt>0</asrwt>
<pdfrwt beam="1">  1        1 0.36652617E+00 0.43526084E+04</pdfrwt>
<pdfrwt beam="2">  1       -1 0.30584931E+00 0.43526084E+04</pdfrwt>
<totfact> 0.37595192E-02</totfact>
</mgrwt>
</event>
<event>
 6    1  0.1588846E-005  0.3129503E+04  0.7818608E-02  0.8207687E-01
         -2   -1    0    0    0  501 -0.00000000000E+00  0.00000000000E+00  0.12338956594E+04  0.12338956594E+04  0.00000000000E+00 0.  1.
          2   -1    0    0  501    0  0.00000000000E+00 -0.00000000000E+00 -0.19843231780E+04  0.19843231780E+04  0.00000000000E+00 0. -1.
         23    2    1    2    0    0 -0.14889197111E+04  0.47369421887E+03 -0.31857169362E+03  0.15971797964E+04  0.90704237561E+02 0.  0.
         11    1    3    3    0    0 -0.39556811486E+03  0.91047771378E+02 -0.10511270022E+03  0.41930002375E+03  0.00000000000E+00 0.  1.
        -11    1    3    3    0    0 -0.10933515963E+04  0.38264644749E+03 -0.21345899340E+03  0.11778797726E+04  0.00000000000E+00 0. -1.
         22    1    1    2    0    0  0.14889197111E+04 -0.47369421887E+03 -0.43185582499E+03  0.16210390411E+04  0.00000000000E+00 0. -1.
<mgrwt>
<rscale>  0 0.31295033E+04</rscale>
<asrwt>0</asrwt>
<pdfrwt beam="1">  1        2 0.30528049E+00 0.31295033E+04</pdfrwt>
<pdfrwt beam="2">  1       -2 0.18983010E+00 0.31295033E+04</pdfrwt>
<totfact> 0.89733382E-01</totfact>
</mgrwt>
</event>
<event>
 6    1  0.1588846E-005  0.1947632E+04  0.7818608E-02  0.8631504E-01
         -1   -1    0    0    0  501 -0.00000000000E+00  0.00000000000E+00  0.87998673482E+03  0.87998673482E+03  0.00000000000E+00 0.  1.
          1   -1    0    0  501    0  0.00000000000E+00 -0.00000000000E+00 -0.10776495794E+04  0.10776495794E+04  0.00000000000E+00 0. -1.
         23    2    1    2    0    0  0.92629246531E+02  0.94657898780E+03  0.10116851556E+03  0.96069492210E+03  0.90042808531E+02 0.  0.
         13    1    3    3    0    0  0.99516437888E+02  0.65819374561E+03  0.48315821409E+02  0.66742561141E+03  0.00000000000E+00 0. -1.
        -13    1    3    3    0    0 -0.68871913577E+01  0.28838524219E+03  0.52852694150E+02  0.29326931070E+03  0.00000000000E+00 0.  1.
         22    1    1    2    0    0 -0.92629246531E+02 -0.94657898780E+03 -0.29883136009E+03  0.99694139207E+03  0.00000000000E+00 0.  1.
<mgrwt>
<rscale>  0 0.19476317E+04</rscale>
<asrwt>0</asrwt>
<pdfrwt beam="1">  1        1 0.16579224E+00 0.19476317E+04</pdfrwt>
<pdfrwt beam="2">  1       -1 0.13538258E+00 0.19476317E+04</pdfrwt>
<totfact> 0.56180168E+00</totfact>
</mgrwt>
</event>
<event>
 6    1  0.1588846E-005  0.1135208E+04  0.7818608E-02  0.9171540E-01
         -2   -1    0    0    0  501 -0.00000000000E+00  0.00000000000E+00  0.12679553650E+03  0.12679553650E+03  0.00000000000E+00 0. -1.
          2   -1    0    0  501    0  0.00000000000E+00 -0.00000000000E+00 -0.25408943871E+04  0.25408943871E+04  0.00000000000E+00 0.  1.
         23    2    1    2    0    0  0.39964669203E+03  0.14780647735E+03 -0.20829409156E+04  0.21280327999E+04  0.91194882992E+02 0.  0.
         13    1    3    3    0    0  0.47877624704E+02  0.50857199872E+02 -0.28440508518E+03  0.29285657617E+03  0.00000000000E+00 0. -1.
        -13    1    3    3    0    0  0.35176906732E+03  0.96949277476E+02 -0.17985358304E+04  0.18351762238E+04  0.00000000000E+00 0.  1.
         22    1    1    2    0    0 -0.39964669203E+03 -0.14780647735E+03 -0.33115793504E+03  0.53965712368E+03  0.00000000000E+00 0. -1.
<mgrwt>
<rscale>  0 0.11352076E+04</rscale>
<asrwt>0</asrwt>
<pdfrwt beam="1">  1        2 0.39090685E+00 0.11352076E+04</pdfrwt>
<pdfrwt beam="2">  1       -2 0.19507005E-01 0.11352076E+04</pdfrwt>
<totfact> 0.73542515E+01</totfact>
</mgrwt>
</event>
<event>
 6    1  0.1588846E-005  0.1026226E+04  0.7818608E-02  0.9280239E-01
         -2   -1    0    0    0  501 -0.00000000000E+00  0.00000000000E+00  0.95174946709E+03  0.95174946709E+03  0.00000000000E+00 0. -1.
          2   -1    0    0  501    0  0.00000000000E+00 -0.00000000000E+00 -0.27663262091E+03  0.27663262091E+03  0.00000000000E+00 0.  1.
         23    2    1    2    0    0  0.24411601720E+03  0.31540534723E+03  0.71885119892E+03  0.82715165978E+03  0.91431171806E+02 0.  0.
         11    1    3    3    0    0  0.17935030741E+03  0.21468041044E+03  0.41425557672E+03  0.49986187516E+03  0.00000000000E+00 0.  1.
        -11    1    3    3    0    0  0.64765709794E+02  0.10072493679E+03  0.30459562220E+03  0.32728978462E+03  0.00000000000E+00 0. -1.
         22    1    1    2    0    0 -0.24411601720E+03 -0.31540534723E+03 -0.43734352736E+02  0.40123042822E+03  0.00000000000E+00 0.  1.
<mgrwt>
<rscale>  0 0.10262260E+04</rscale>
<asrwt>0</asrwt>
<pdfrwt beam="1">  1        2 0.42558865E-01 0.10262260E+04</pdfrwt>
<pdfrwt beam="2">  1       -2 0.14642299E+00 0.10262260E+04</pdfrwt>
<totfact> 0.38232903E+01</totfact>
</mgrwt>
</event>
<event>
 6    1  0.1588846E-005  0.2310911E+04  0.7818608E-02  0.8473631E-01
         -2   -1    0    0    0  501 -0.00000000000E+00  0.00000000000E+00  0.37278657941E+03  0.37278657941E+03  0.00000000000E+00 0.  1.
          2   -1    0    0  501    0  0.00000000000E+00 -0.00000000000E+00 -0.35813460766E+04  0.35813460766E+04  0.00000000000E+00 0. -1.
         23    2    1    2    0    0  0.43771600252E+03  0.10109067090E+04 -0.21931664337E+04  0.24559501750E+04  0.90468684963E+02 0.  0.
         11    1    3    3    0    0  0.93803230688E+02  0.15740306709E+03 -0.31320808962E+03  0.36286923130E+03  0.00000000000E+00 0. -1.
        -11    1    3    3    0    0  0.34391277184E+03  0.85350364188E+03 -0.18799583441E+04  0.20930809437E+04  0.00000000000E+00 0.  1.
         22    1    1    2    0    0 -0.43771600252E+03 -0.10109067090E+04 -0.10153930635E+04  0.14981824811E+04  0.00000000000E+00 0.  1.
<mgrwt>
<rscale>  0 0.23109113E+04</rscale>
<asrwt>0</asrwt>
<pdfrwt beam="1">  1        2 0.55097633E+00 0.23109113E+04</pdfrwt>
<pdfrwt beam="2">  1       -2 0.57351780E-01 0.23109113E+04</pdfrwt>
<totfact> 0.18426133E+00</totfact>
</mgrwt>
</event>
<event>
 6    1  0.1588846E-005  0.5247722E+03  0.7818608E-02  0.1007508E+00
          2   -1    0    0  501    0  0.00000000000E+00  0.00000000000E+00  0.35931993497E+04  0.35931993497E+04  0.00000000000E+00 0. -1.
         -2   -1    0    0    0  501 -0.00000000000E+00 -0.00000000000E+00 -0.19160213064E+02  0.19160213064E+02  0.00000000000E+00 0.  1.
         23    2    1    2    0    0 -0.11839504057E+03  0.15758598155E+03  0.29501102510E+04  0.29580370264E+04  0.89341085343E+02 0.  0.
         13    1    3    3    0    0 -0.45983899035E+02  0.88434376672E+02  0.20404067261E+04  0.20428398777E+04  0.00000000000E+00 0.  1.
        -13    1    3    3    0    0 -0.72411141534E+02  0.69151604877E+02  0.90970352490E+03  0.91519714875E+03  0.00000000000E+00 0. -1.
         22    1    1    2    0    0  0.11839504057E+03 -0.15758598155E+03  0.62392888567E+03  0.65432253636E+03  0.00000000000E+00 0.  1.
<mgrwt>
<rscale>  0 0.52477220E+03</rscale>
<asrwt>0</asrwt>
<pdfrwt beam="1">  1        2 0.55279937E+00 0.52477220E+03</pdfrwt>
<pdfrwt beam="2">  1       -2 0.29477279E-02 0.52477220E+03</pdfrwt>
<totfact> 0.36198959E+02</totfact>
</mgrwt>
</event>
<event>
 6    1  0.1588846E-005  0.4016815E+04  0.7818608E-02  0.8001163E-01
         -1   -1    0    0    0  501 -0.00000000000E+00  0.00000000000E+00  0.10706423594E+04  0.10706423594E+04  0.00000000000E+00 0.  1.
          1   -1    0    0  501    0  0.00000000000E+00 -0.00000000000E+00 -0.37675523982E+04  0.37675523982E+04  0.00000000000E+00 0. -1.
         23    2    1    2    0    0  0.28718609444E+03  0.18856919972E+04 -0.59631469603E+03  0.20007996573E+04  0.96425570890E+02 0.  0.
         11    1    3    3    0    0  0.11101887871E+03  0.10280327096E+04 -0.30533225214E+03  0.10781485183E+04  0.00000000000E+00 0.  1.
        -11    1    3    3    0    0  0.17616721572E+03  0.85765928765E+03 -0.29098244389E+03  0.92265113897E+03  0.00000000000E+00 0. -1.
         22    1    1    2    0    0 -0.28718609444E+03 -0.18856919972E+04 -0.21005953428E+04  0.28373951003E+04  0.00000000000E+00 0. -1.
<mgrwt>
<rscale>  0 0.40168153E+04</rscale>
<asrwt>0</asrwt>
<pdfrwt beam="1">  1        1 0.57962345E+00 0.40168153E+04</pdfrwt>
<pdfrwt beam="2">  1       -1 0.16471421E+00 0.40168153E+04</pdfrwt>
<totfact> 0.31855797E-02</totfact>
</mgrwt>
</event>
<event>
 6    1  0.1588846E-005  0.3865740E+04  0.7818608E-02  0.8032193E-01
         -1   -1    0    0    0  501 -0.00000000000E+00  0.00000000000E+00  0.30470030791E+04  0.30470030791E+04  0.00000000000E+00 0.  1.
          1   -1    0    0  501    0  0.00000000000E+00 -0.00000000000E+00 -0.12261181742E+04  0.12261181742E+04  0.00000000000E+00 0. -1.
         23    2    1    2    0    0  0.15113677413E+04  0.79777982823E+03  0.19059630478E+04  0.25620036670E+04  0.10238430621E+03 0.  0.
         13    1    3    3    0    0  0.11197496798E+03  0.30439375122E+02  0.12387308526E+03  0.16973358615E+03  0.00000000000E+00 0. -1.
        -13    1    3    3    0    0  0.13993927733E+04  0.76734045310E+03  0.17820899625E+04  0.23922700808E+04  0.00000000000E+00 0.  1.
         22    1    1    2    0    0 -0.15113677413E+04 -0.79777982823E+03 -0.85078142957E+02  0.17111175863E+04  0.00000000000E+00 0. -1.
<mgrwt>
<rscale>  0 0.38657397E+04</rscale>
<asrwt>0</asrwt>
<pdfrwt beam="1">  1        1 0.18863357E+00 0.38657397E+04</pdfrwt>
<pdfrwt beam="2">  1       -1 0.46876970E+00 0.38657397E+04</pdfrwt>
<totfact> 0.19468978E-02</totfact>
</mgrwt>
</event>
<event>
 6    1  0.1588846E-005  0.3372894E+04  0.7818608E-02  0.8144591E-01
         -2   -1    0    0    0  501 -0.00000000000E+00  0.00000000000E+00  0.21809950870E+04  0.21809950870E+04  0.00000000000E+00 0.  1.
          2   -1    0    0  501    0  0.00000000000E+00 -0.00000000000E+00 -0.13040395776E+04  0.13040395776E+04  0.00000000000E+00 0. -1.
         23    2    1    2    0    0  0.73829216775E+03 -0.89465521686E+03  0.17018750740E+04  0.20616669784E+04  0.92782974547E+02 0.  0.
         11    1    3    3    0    0  0.43456039736E+03 -0.46722839422E+03  0.88701491320E+03  0.10926758749E+04  0.00000000000E+00 0. -1.
        -11    1    3    3    0    0  0.30373177039E+03 -0.42742682264E+03  0.81486016083E+03  0.96899110355E+03  0.00000000000E+00 0.  1.
         22    1    1    2    0    0 -0.73829216775E+03  0.89465521686E+03 -0.82491956462E+03  0.14233676862E+04  0.00000000000E+00 0. -1.
<mgrwt>
<rscale>  0 0.33728943E+04</rscale>
<asrwt>0</asrwt>
<pdfrwt beam="1">  1        2 0.20062147E+00 0.33728943E+04</pdfrwt>
<pdfrwt beam="2">  1       -2 0.33553771E+00 0.33728943E+04</pdfrwt>
<totfact> 0.26165822E-01</totfact>
</mgrwt>
</event>
<event>
 6    1  0.1588846E-005  0.2015244E+04  0.7818608E-02  0.8599527E-01
         -2   -1    0    0    0  501 -0.00000000000E+00  0.00000000000E+00  0.10933510986E+04  0.10933510986E+04  0.00000000000E+00 0.  1.
          2   -1    0    0  501    0  0.00000000000E+00 -0.00000000000E+00 -0.92861492681E+03  0.92861492681E+03  0.00000000000E+00 0. -1.
         23    2    1    2    0    0 -0.87633484735E+03 -0.49323989203E+03  0.98430107823E+02  0.10141739586E+04  0.87246641520E+02 0.  0.
         13    1    3    3    0    0 -0.53000457838E+03 -0.34636399105E+03  0.56708392164E+02  0.63567972214E+03  0.00000000000E+00 0.  1.
        -13    1    3    3    0    0 -0.34633026897E+03 -0.14687590098E+03  0.41721715659E+02  0.37849423648E+03  0.00000000000E+00 0. -1.
         22    1    1    2    0    0  0.87633484735E+03  0.49323989203E+03  0.66306063969E+02  0.10077920668E+04  0.00000000000E+00 0. -1.
<mgrwt>
<rscale>  0 0.20152441E+04</rscale>
<asrwt>0</asrwt>
<pdfrwt beam="1">  1        2 0.14286383E+00 0.20152441E+04</pdfrwt>
<pdfrwt beam="2">  1       -2 0.16820786E+00 0.20152441E+04</pdfrwt>
<totfact> 0.57120432E+00</totfact>
</mgrwt>
</event>
<event>
 6    1  0.1588846E-005  0.2169754E+04  0.7818608E-02  0.8531124E-01
         -1   -1    0    0    0  501 -0.00000000000E+00  0.00000000000E+00  0.39857248609E+03  0.39857248609E+03  0.00000000000E+00 0.  1.
          1   -1    0    0  501    0  0.00000000000E+00 -0.00000000000E+00 -0.29529325158E+04  0.29529325158E+04  0.00000000000E+00 0. -1.
         23    2    1    2    0    0  0.52860691635E+03 -0.13868329539E+03  0.16374742943E+03  0.57900315556E+03  0.98859016120E+02 0.  0.
         13    1    3    3    0    0  0.32661371199E+03 -0.13200192251E+03  0.87401537567E+02  0.36296012615E+03  0.00000000000E+00 0.  1.
        -13    1    3    3    0    0  0.20199320436E+03 -0.66813728805E+01  0.76345891866E+02  0.21604302941E+03  0.00000000000E+00 0. -1.
         22    1    1    2    0    0 -0.52860691635E+03  0.13868329539E+03 -0.27181074592E+04  0.27725018464E+04  0.00000000000E+00 0. -1.
<mgrwt>
<rscale>  0 0.21697536E+04</rscale>
<asrwt>0</asrwt>
<pdfrwt beam="1">  1        1 0.45429730E+00 0.21697536E+04</pdfrwt>
<pdfrwt beam="2">  1       -1 0.61318846E-01 0.21697536E+04</pdfrwt>
<totfact> 0.15964119E+00</totfact>
</mgrwt>
</event>
<event>
 6    1  0.1588846E-005  0.2487063E+04  0.7818608E-02  0.8407609E-01
          2   -1    0    0  501    0  0.00000000000E+00  0.00000000000E+00  0.36578608612E+04  0.36578608612E+04  0.00000000000E+00 0. -1.
         -2   -1    0    0    0  501 -0.00000000000E+00 -0.00000000000E+00 -0.42275255555E+03  0.42275255555E+03  0.00000000000E+00 0.  1.
         23    2    1    2    0    0  0.54733252053E+03  0.60980863396E+03  0.88614371792E+02  0.82917319219E+03  0.90753609765E+02 0.  0.
         13    1    3    3    0    0  0.36976557121E+03  0.44814001021E+03  0.96241941439E+02  0.58891303067E+03  0.00000000000E+00 0.  1.
        -13    1    3    3    0    0  0.17756694932E+03  0.16166862374E+03 -0.76275696473E+01  0.24026016152E+03  0.00000000000E+00 0. -1.
         22    1    1    2    0    0 -0.54733252053E+03 -0.60980863396E+03  0.31464939339E+04  0.32514402246E+04  0.00000000000E+00 0. -1.
<mgrwt>
<rscale>  0 0.24870625E+04</rscale>
<asrwt>0</asrwt>
<pdfrwt beam="1">  1        2 0.56274780E+00 0.24870625E+04</pdfrwt>
<pdfrwt beam="2">  1       -2 0.65038857E-01 0.24870625E+04</pdfrwt>
<totfact> 0.12226597E+00</totfact>
</mgrwt>
</event>
<event>
 6    1  0.1588846E-005  0.2111708E+04  0.7818608E-02  0.8556103E-01
          2   -1    0    0  501    0  0.00000000000E+00  0.00000000000E+00  0.73339587454E+03  0.73339587454E+03  0.00000000000E+00 0.  1.
         -2   -1    0    0    0  501 -0.00000000000E+00 -0.00000000000E+00 -0.15200903759E+04  0.15200903759E+04  0.00000000000E+00 0. -1.
         23    2    1    2    0    0  0.44134618874E+03  0.63405204039E+03  0.37074910335E+03  0.86191011299E+03  0.92874630593E+02 0.  0.
         11    1    3    3    0    0  0.76844720825E+02  0.74403406186E+02  0.25025191903E+02  0.10985098179E+03  0.00000000000E+00 0.  1.
        -11    1    3    3    0    0  0.36450146791E+03  0.55964863420E+03  0.34572391145E+03  0.75205913120E+03  0.00000000000E+00 0. -1.
         22    1    1    2    0    0 -0.44134618874E+03 -0.63405204039E+03 -0.11574436047E+04  0.13915761375E+04  0.00000000000E+00 0. -1.
<mgrwt>
<rscale>  0 0.21117083E+04</rscale>
<asrwt>0</asrwt>
<pdfrwt beam="1">  1        2 0.11283014E+00 0.21117083E+04</pdfrwt>
<pdfrwt beam="2">  1       -2 0.23386006E+00 0.21117083E+04</pdfrwt>
<totfact> 0.28733990E+00</totfact>
</mgrwt>
</event>
<event>
 6    1  0.1588846E-005  0.3705485E+04  0.7818608E-02  0.8066747E-01
         -1   -1    0    0    0  501 -0.00000000000E+00  0.00000000000E+00  0.16778386141E+04  0.16778386141E+04  0.00000000000E+00 0.  1.
          1   -1    0    0  501    0  0.00000000000E+00 -0.00000000000E+00 -0.20458790405E+04  0.20458790405E+04  0.00000000000E+00 0. -1.
         23    2    1    2    0    0  0.15049818538E+04 -0.54517297971E+03 -0.11194106106E+04  0.19554583094E+04  0.92483115342E+02 0.  0.
         13    1    3    3    0    0  0.67132769565E+03 -0.25771590264E+03 -0.55656010348E+03  0.90931705703E+03  0.00000000000E+00 0.  1.
        -13    1    3    3    0    0  0.83365415811E+03 -0.28745707706E+03 -0.56285050715E+03  0.10461412524E+04  0.00000000000E+00 0. -1.
         22    1    1    2    0    0 -0.15049818538E+04  0.54517297971E+03  0.75137018425E+03  0.17682593452E+04  0.00000000000E+00 0. -1.
<mgrwt>
<rscale>  0 0.37054850E+04</rscale>
<asrwt>0</asrwt>
<pdfrwt beam="1">  1        1 0.31475062E+00 0.37054850E+04</pdfrwt>
<pdfrwt beam="2">  1       -1 0.25812902E+00 0.37054850E+04</pdfrwt>
<totfact> 0.13727082E-01</totfact>
</mgrwt>
</event>
<event>
 6    1  0.1588846E-005  0.2775638E+04  0.7818608E-02  0.8310872E-01
          2   -1    0    0  501    0  0.00000000000E+00  0.00000000000E+00  0.25495769709E+04  0.25495769709E+04  0.00000000000E+00 0.  1.
         -2   -1    0    0    0  501 -0.00000000000E+00 -0.00000000000E+00 -0.75543596017E+03  0.75543596017E+03  0.00000000000E+00 0. -1.
         23    2    1    2    0    0  0.83743773430E+03  0.90332720651E+03  0.16552931893E+04  0.20654239998E+04  0.93159840250E+02 0.  0.
         13    1    3    3    0    0  0.23426870403E+03  0.19411002781E+03  0.40001136778E+03  0.50256305369E+03  0.00000000000E+00 0. -1.
        -13    1    3    3    0    0  0.60316903028E+03  0.70921717870E+03  0.12552818215E+04  0.15628609461E+04  0.00000000000E+00 0.  1.
         22    1    1    2    0    0 -0.83743773430E+03 -0.90332720651E+03  0.13884782143E+03  0.12395889312E+04  0.00000000000E+00 0. -1.
<mgrwt>
<rscale>  0 0.27756384E+04</rscale>
<asrwt>0</asrwt>
<pdfrwt beam="1">  1        2 0.39224261E+00 0.27756384E+04</pdfrwt>
<pdfrwt beam="2">  1       -2 0.11622092E+00 0.27756384E+04</pdfrwt>
<totfact> 0.16315191E+00</totfact>
</mgrwt>
</event>
<event>
 6    1  0.1588846E-005  0.6768361E+03  0.7818608E-02  0.9757687E-01
         -1   -1    0    0    0  501 -0.00000000000E+00  0.00000000000E+00  0.65991496804E+03  0.65991496804E+03  0.00000000000E+00 0.  1.
          1   -1    0    0  501    0  0.00000000000E+00 -0.00000000000E+00 -0.17354779382E+03  0.17354779382E+03  0.00000000000E+00 0. -1.
         23    2    1    2    0    0  0.21910421921E+03 -0.12769392294E+03  0.51145090165E+03  0.57862636294E+03  0.94414226998E+02 0.  0.
         13    1    3    3    0    0  0.33567418264E+02 -0.61258574578E+02  0.17909612652E+03  0.19223633128E+03  0.00000000000E+00 0.  1.
        -13    1    3    3    0    0  0.18553680095E+03 -0.66435348364E+02  0.33235477513E+03  0.38639003166E+03  0.00000000000E+00 0. -1.
         22    1    1    2    0    0 -0.21910421921E+03  0.12769392294E+03 -0.25083727434E+02  0.25483639892E+03  0.00000000000E+00 0. -1.
<mgrwt>
<rscale>  0 0.67683613E+03</rscale>
<asrwt>0</asrwt>
<pdfrwt beam="1">  1        1 0.26699661E-01 0.67683613E+03</pdfrwt>
<pdfrwt beam="2">  1       -1 0.10152538E+00 0.67683613E+03</pdfrwt>
<totfact> 0.16758935E+02</totfact>
</mgrwt>
</event>
<event>
 6    1  0.1588846E-005  0.2116921E+04  0.7818608E-02  0.8553826E-01
          2   -1    0    0  501    0  0.00000000000E+00  0.00000000000E+00  0.17240300304E+04  0.17240300304E+04  0.00000000000E+00 0. -1.
         -2   -1    0    0    0  501 -0.00000000000E+00 -0.00000000000E+00 -0.64983725970E+03  0.64983725970E+03  0.00000000000E+00 0.  1.
         23    2    1    2    0    0 -0.51709843981E+02  0.63134915310E+03 -0.41013655161E+03  0.76001810316E+03  0.90221200800E+02 0.  0.
         13    1    3    3    0    0  0.26060913677E+02  0.17279768323E+03 -0.11325614258E+03  0.20824304162E+03  0.00000000000E+00 0. -1.
        -13    1    3    3    0    0 -0.77770757658E+02  0.45855146987E+03 -0.29688040904E+03  0.55177506154E+03  0.00000000000E+00 0.  1.
         22    1    1    2    0    0  0.51709843981E+02 -0.63134915310E+03  0.14843293223E+04  0.16138491869E+04  0.00000000000E+00 0. -1.
<mgrwt>
<rscale>  0 0.21169213E+04</rscale>
<asrwt>0</asrwt>
<pdfrwt beam="1">  1        2 0.26523539E+00 0.21169213E+04</pdfrwt>
<pdfrwt beam="2">  1       -2 0.99974964E-01 0.21169213E+04</pdfrwt>
<totfact> 0.72333915E+00</totfact>
</mgrwt>
</event>
<event>
 6    1  0.1588846E-005  0.1376690E+04  0.7818608E-02  0.8970867E-01
          2   -1    0    0  501    0  0.00000000000E+00  0.00000000000E+00  0.18128876467E+04  0.18128876467E+04  0.00000000000E+00 0. -1.
         -2   -1    0    0    0  501 -0.00000000000E+00 -0.00000000000E+00 -0.26136122170E+03  0.26136122170E+03  0.00000000000E+00 0.  1.
         23    2    1    2    0    0 -0.37643513423E+03  0.10510946368E+03  0.16273828916E+04  0.16761212341E+04  0.90862015009E+02 0.  0.
         11    1    3    3    0    0 -0.35603270704E+03  0.11993426461E+03  0.15407433941E+04  0.15858857849E+04  0.00000000000E+00 0. -1.
        -11    1    3    3    0    0 -0.20402427186E+02 -0.14824800923E+02  0.86639497562E+02  0.90235449216E+02  0.00000000000E+00 0.  1.
         22    1    1    2    0    0  0.37643513423E+03 -0.10510946368E+03 -0.75856466666E+02  0.39812763427E+03  0.00000000000E+00 0. -1.
<mgrwt>
<rscale>  0 0.13766896E+04</rscale>
<asrwt>0</asrwt>
<pdfrwt beam="1">  1        2 0.27890579E+00 0.13766896E+04</pdfrwt>
<pdfrwt beam="2">  1       -2 0.40209420E-01 0.13766896E+04</pdfrwt>
<totfact> 0.48445773E+01</totfact>
</mgrwt>
</event>
<event>
 6    1  0.1588846E-005  0.2608267E+04  0.7818608E-02  0.8365399E-01
          2   -1    0    0  501    0  0.00000000000E+00  0.00000000000E+00  0.21782121718E+04  0.21782121718E+04  0.00000000000E+00 0. -1.
         -2   -1    0    0    0  501 -0.00000000000E+00 -0.00000000000E+00 -0.78080721220E+03  0.78080721220E+03  0.00000000000E+00 0.  1.
         23    2    1    2    0    0 -0.67586830372E+03  0.43067929262E+03  0.18643484244E+04  0.20314856561E+04  0.94107949294E+02 0.  0.
         11    1    3    3    0    0 -0.24252231353E+03  0.12505847958E+03  0.72937947580E+03  0.77874971306E+03  0.00000000000E+00 0. -1.
        -11    1    3    3    0    0 -0.43334599019E+03  0.30562081304E+03  0.11349689486E+04  0.12527359430E+04  0.00000000000E+00 0.  1.
         22    1    1    2    0    0  0.67586830372E+03 -0.43067929262E+03 -0.46694346484E+03  0.92753372791E+03  0.00000000000E+00 0.  1.
<mgrwt>
<rscale>  0 0.26082667E+04</rscale>
<asrwt>0</asrwt>
<pdfrwt beam="1">  1        2 0.33510956E+00 0.26082667E+04</pdfrwt>
<pdfrwt beam="2">  1       -2 0.12012419E+00 0.26082667E+04</pdfrwt>
<totfact> 0.24865796E+00</totfact>
</mgrwt>
</event>
<event>
 6    1  0.1588846E-005  0.4755015E+04  0.7818608E-02  0.7867451E-01
          1   -1    0    0  501    0  0.00000000000E+00  0.00000000000E+00  0.30406065393E+04  0.30406065393E+04  0.00000000000E+00 0. -1.
         -1   -1    0    0    0  501 -0.00000000000E+00 -0.00000000000E+00 -0.18590176349E+04  0.18590176349E+04  0.00000000000E+00 0.  1.
         23    2    1    2    0    0 -0.96939033048E+03 -0.12659627772E+04  0.24069759853E+04  0.28886659786E+04  0.92078099448E+02 0.  0.
         11    1    3    3    0    0 -0.36176685093E+03 -0.42216417700E+03  0.89612756175E+03  0.10545816487E+04  0.00000000000E+00 0.  1.
        -11    1    3    3    0    0 -0.60762347955E+03 -0.84379860023E+03  0.15108484235E+04  0.18340843300E+04  0.00000000000E+00 0. -1.
         22    1    1    2    0    0  0.96939033048E+03  0.12659627772E+04 -0.12253870809E+04  0.20109581956E+04  0.00000000000E+00 0.  1.
<mgrwt>
<rscale>  0 0.47550147E+04</rscale>
<asrwt>0</asrwt>
<pdfrwt beam="1">  1        1 0.46778562E+00 0.47550147E+04</pdfrwt>
<pdfrwt beam="2">  1       -1 0.28600271E+00 0.47550147E+04</pdfrwt>
<totfact> 0.16718002E-02</totfact>
</mgrwt>
</event>
<event>
 6    1  0.1698997E-005  0.4576062E+04  0.7818608E-02  0.7897454E-01
         -2   -1    0    0    0  501 -0.00000000000E+00  0.00000000000E+00  0.18047407634E+04  0.18047407634E+04  0.00000000000E+00 0.  1.
          2   -1    0    0  501    0  0.00000000000E+00 -0.00000000000E+00 -0.29007408077E+04  0.29007408077E+04  0.00000000000E+00 0. -1.
         23    2    1    2    0    0 -0.11393583795E+04  0.31374767035E+03  0.14652937329E+04  0.18847013721E+04  0.91860877089E+02 0.  0.
         13    1    3    3    0    0 -0.60853614764E+03  0.16435967158E+03  0.70856621394E+03  0.94836513231E+03  0.00000000000E+00 0.  1.
        -13    1    3    3    0    0 -0.53082223185E+03  0.14938799877E+03  0.75672751894E+03  0.93633623978E+03  0.00000000000E+00 0. -1.
         22    1    1    2    0    0  0.11393583795E+04 -0.31374767035E+03 -0.25612937772E+04  0.28207801990E+04  0.00000000000E+00 0. -1.
<mgrwt>
<rscale>  0 0.45760617E+04</rscale>
<asrwt>0</asrwt>
<pdfrwt beam="1">  1        2 0.44626781E+00 0.45760617E+04</pdfrwt>
<pdfrwt beam="2">  1       -2 0.27765243E+00 0.45760617E+04</pdfrwt>
<totfact> 0.65758472E-02</totfact>
</mgrwt>
</event>
<event>
 6    1  0.1588846E-005  0.2862833E+04  0.7818608E-02  0.8284023E-01
         -2   -1    0    0    0  501 -0.00000000000E+00  0.00000000000E+00  0.19216142999E+04  0.19216142999E+04  0.00000000000E+00 0.  1.
          2   -1    0    0  501    0  0.00000000000E+00 -0.00000000000E+00 -0.10662662977E+04  0.10662662977E+04  0.00000000000E+00 0. -1.
         23    2    1    2    0    0  0.77258797348E+03  0.16709900413E+03  0.16717784544E+04  0.18514946873E+04  0.91515695186E+02 0.  0.
         13    1    3    3    0    0  0.58617970597E+03  0.12997190626E+03  0.13550316216E+04  0.14820965015E+04  0.00000000000E+00 0.  1.
        -13    1    3    3    0    0  0.18640826750E+03  0.37127097871E+02  0.31674683275E+03  0.36939818576E+03  0.00000000000E+00 0. -1.
         22    1    1    2    0    0 -0.77258797348E+03 -0.16709900413E+03 -0.81643045225E+03  0.11363859104E+04  0.00000000000E+00 0. -1.
<mgrwt>
<rscale>  0 0.28628326E+04</rscale>
<asrwt>0</asrwt>
<pdfrwt beam="1">  1        2 0.16404097E+00 0.28628326E+04</pdfrwt>
<pdfrwt beam="2">  1       -2 0.29563297E+00 0.28628326E+04</pdfrwt>
<totfact> 0.66901287E-01</totfact>
</mgrwt>
</event>
<event>
 6    1  0.1588846E-005  0.2116188E+04  0.7818608E-02  0.8554146E-01
          2   -1    0    0  501    0  0.00000000000E+00  0.00000000000E+00  0.25254881977E+04  0.25254881977E+04  0.00000000000E+00 0. -1.
         -2   -1    0    0    0  501 -0.00000000000E+00 -0.00000000000E+00 -0.44330564287E+03  0.44330564287E+03  0.00000000000E+00 0.  1.
         23    2    1    2    0    0  0.87435232851E+03  0.19850571450E+03  0.26029320189E+03  0.93823299995E+03  0.92909085617E+02 0.  0.
         11    1    3    3    0    0  0.72056949205E+03  0.12656499637E+03  0.21400204308E+03  0.76225715190E+03  0.00000000000E+00 0. -1.
        -11    1    3    3    0    0  0.15378283647E+03  0.71940718124E+02  0.46291158806E+02  0.17597584806E+03  0.00000000000E+00 0.  1.
         22    1    1    2    0    0 -0.87435232851E+03 -0.19850571450E+03  0.18218893529E+04  0.20305608406E+04  0.00000000000E+00 0. -1.
<mgrwt>
<rscale>  0 0.21161882E+04</rscale>
<asrwt>0</asrwt>
<pdfrwt beam="1">  1        2 0.38853664E+00 0.21161882E+04</pdfrwt>
<pdfrwt beam="2">  1       -2 0.68200870E-01 0.21161882E+04</pdfrwt>
<totfact> 0.60941016E+00</totfact>
</mgrwt>
</event>
<event>
 6    1  0.1588846E-005  0.2129919E+04  0.7818608E-02  0.8548177E-01
          2   -1    0    0  501    0  0.00000000000E+00  0.00000000000E+00  0.11817827345E+04  0.11817827345E+04  0.00000000000E+00 0. -1.
         -2   -1    0    0    0  501 -0.00000000000E+00 -0.00000000000E+00 -0.95968433015E+03  0.95968433015E+03  0.00000000000E+00 0.  1.
         23    2    1    2    0    0 -0.11033802558E+03  0.81261481362E+03 -0.56874484596E+03  0.10021908200E+04  0.91642918903E+02 0.  0.
         13    1    3    3    0    0 -0.56784175625E+02  0.15544652401E+03 -0.12570499487E+03  0.20782158252E+03  0.00000000000E+00 0. -1.
        -13    1    3    3    0    0 -0.53553849956E+02  0.65716828962E+03 -0.44303985109E+03  0.79436923743E+03  0.00000000000E+00 0.  1.
         22    1    1    2    0    0  0.11033802558E+03 -0.81261481362E+03  0.79084325032E+03  0.11392762447E+04  0.00000000000E+00 0. -1.
<mgrwt>
<rscale>  0 0.21299187E+04</rscale>
<asrwt>0</asrwt>
<pdfrwt beam="1">  1        2 0.18181273E+00 0.21299187E+04</pdfrwt>
<pdfrwt beam="2">  1       -2 0.14764374E+00 0.21299187E+04</pdfrwt>
<totfact> 0.55795176E+00</totfact>
</mgrwt>
</event>
<event>
 6    1  0.1588846E-005  0.1905154E+04  0.7818608E-02  0.8652295E-01
          2   -1    0    0  501    0  0.00000000000E+00  0.00000000000E+00  0.18646606974E+04  0.18646606974E+04  0.00000000000E+00 0.  1.
         -2   -1    0    0    0  501 -0.00000000000E+00 -0.00000000000E+00 -0.48663178450E+03  0.48663178450E+03  0.00000000000E+00 0. -1.
         23    2    1    2    0    0 -0.16374467295E+03 -0.39739991722E+03  0.17364780548E+04  0.17916275826E+04  0.99168280405E+02 0.  0.
         11    1    3    3    0    0 -0.97493759642E+02 -0.13090023231E+03  0.75605447266E+03  0.77347157002E+03  0.00000000000E+00 0. -1.
        -11    1    3    3    0    0 -0.66250913308E+02 -0.26649968491E+03  0.98042358213E+03  0.10181560126E+04  0.00000000000E+00 0.  1.
         22    1    1    2    0    0  0.16374467295E+03  0.39739991722E+03 -0.35844914192E+03  0.55966489927E+03  0.00000000000E+00 0. -1.
<mgrwt>
<rscale>  0 0.19051542E+04</rscale>
<asrwt>0</asrwt>
<pdfrwt beam="1">  1        2 0.28687087E+00 0.19051542E+04</pdfrwt>
<pdfrwt beam="2">  1       -2 0.74866429E-01 0.19051542E+04</pdfrwt>
<totfact> 0.11921872E+01</totfact>
</mgrwt>
</event>
<event>
 6    1  0.1588846E-005  0.1492181E+04  0.7818608E-02  0.8889669E-01
          1   -1    0    0  501    0  0.00000000000E+00  0.00000000000E+00  0.16615181513E+04  0.16615181513E+04  0.00000000000E+00 0. -1.
         -1   -1    0    0    0  501 -0.00000000000E+00 -0.00000000000E+00 -0.33502547588E+03  0.33502547588E+03  0.00000000000E+00 0.  1.
         23    2    1    2    0    0 -0.44975035993E+03  0.13757298441E+03  0.14358894098E+04  0.15136674963E+04  0.90604525798E+02 0.  0.
         13    1    3    3    0    0 -0.13456521937E+03  0.41162253629E+02  0.30837063932E+03  0.33896103106E+03  0.00000000000E+00 0.  1.
        -13    1    3    3    0    0 -0.31518514057E+03  0.96410730778E+02  0.11275187704E+04  0.11747064653E+04  0.00000000000E+00 0. -1.
         22    1    1    2    0    0  0.44975035993E+03 -0.13757298441E+03 -0.10939673431E+03  0.48287613088E+03  0.00000000000E+00 0.  1.
<mgrwt>
<rscale>  0 0.14921808E+04</rscale>
<asrwt>0</asrwt>
<pdfrwt beam="1">  1        1 0.25561817E+00 0.14921808E+04</pdfrwt>
<pdfrwt beam="2">  1       -1 0.51542382E-01 0.14921808E+04</pdfrwt>
<totfact> 0.18563471E+01</totfact>
</mgrwt>
</event>
<event>
 6    1  0.1588846E-005  0.2808399E+04  0.7818608E-02  0.8300666E-01
         -2   -1    0    0    0  501 -0.00000000000E+00  0.00000000000E+00  0.15818130367E+04  0.15818130367E+04  0.00000000000E+00 0. -1.
          2   -1    0    0  501    0  0.00000000000E+00 -0.00000000000E+00 -0.12465293763E+04  0.12465293763E+04  0.00000000000E+00 0.  1.
         23    2    1    2    0    0 -0.52996565245E+03  0.47914253227E+03 -0.10478797521E+04  0.12715565623E+04  0.91449205720E+02 0.  0.
         13    1    3    3    0    0 -0.14723803843E+03  0.12441259474E+03 -0.35734471397E+03  0.40602066240E+03  0.00000000000E+00 0.  1.
        -13    1    3    3    0    0 -0.38272761402E+03  0.35472993753E+03 -0.69053503813E+03  0.86553589989E+03  0.00000000000E+00 0. -1.
         22    1    1    2    0    0  0.52996565245E+03 -0.47914253227E+03  0.13831634125E+04  0.15567858506E+04  0.00000000000E+00 0. -1.
<mgrwt>
<rscale>  0 0.28083991E+04</rscale>
<asrwt>0</asrwt>
<pdfrwt beam="1">  1        2 0.19177375E+00 0.28083991E+04</pdfrwt>
<pdfrwt beam="2">  1       -2 0.24335585E+00 0.28083991E+04</pdfrwt>
<totfact> 0.10912717E+00</totfact>
</mgrwt>
</event>
<event>
 6    1  0.1588846E-005  0.6338643E+04  0.7818608E-02  0.7649776E-01
          2   -1    0    0  501    0  0.00000000000E+00  0.00000000000E+00  0.47968869962E+04  0.47968869962E+04  0.00000000000E+00 0. -1.
         -2   -1    0    0    0  501 -0.00000000000E+00 -0.00000000000E+00 -0.20939825273E+04  0.20939825273E+04  0.00000000000E+00 0.  1.
         23    2    1    2    0    0 -0.23124020374E+04  0.19345679860E+04  0.24110385986E+04  0.38618528248E+04  0.10508873437E+03 0.  0.
         11    1    3    3    0    0 -0.18126836981E+04  0.14950858500E+04  0.19298885044E+04  0.30406534705E+04  0.00000000000E+00 0. -1.
        -11    1    3    3    0    0 -0.49971833925E+03  0.43948213600E+03  0.48115009419E+03  0.82119935435E+03  0.00000000000E+00 0.  1.
         22    1    1    2    0    0  0.23124020374E+04 -0.19345679860E+04  0.29186587024E+03  0.30290166987E+04  0.00000000000E+00 0.  1.
<mgrwt>
<rscale>  0 0.63386426E+04</rscale>
<asrwt>0</asrwt>
<pdfrwt beam="1">  1        2 0.73798261E+00 0.63386426E+04</pdfrwt>
<pdfrwt beam="2">  1       -2 0.32215116E+00 0.63386426E+04</pdfrwt>
<totfact> 0.89764137E-04</totfact>
</mgrwt>
</event>
<event>
 6    1  0.1588846E-005  0.4142672E+04  0.7818608E-02  0.7976368E-01
         -2   -1    0    0    0  501 -0.00000000000E+00  0.00000000000E+00  0.18226285511E+04  0.18226285511E+04  0.00000000000E+00 0.  1.
          2   -1    0    0  501    0  0.00000000000E+00 -0.00000000000E+00 -0.23539809489E+04  0.23539809489E+04  0.00000000000E+00 0. -1.
         23    2    1    2    0    0  0.74299191451E+03 -0.13167825386E+04 -0.16917437843E+04  0.22707077690E+04  0.90352097947E+02 0.  0.
         13    1    3    3    0    0  0.57147231779E+03 -0.98124840563E+03 -0.12151391146E+04  0.16631272084E+04  0.00000000000E+00 0.  1.
        -13    1    3    3    0    0  0.17151959672E+03 -0.33553413293E+03 -0.47660466966E+03  0.60758056055E+03  0.00000000000E+00 0. -1.
         22    1    1    2    0    0 -0.74299191451E+03  0.13167825386E+04  0.11603913864E+04  0.19059017311E+04  0.00000000000E+00 0.  1.
<mgrwt>
<rscale>  0 0.41426720E+04</rscale>
<asrwt>0</asrwt>
<pdfrwt beam="1">  1        2 0.36215092E+00 0.41426720E+04</pdfrwt>
<pdfrwt beam="2">  1       -2 0.28040439E+00 0.41426720E+04</pdfrwt>
<totfact> 0.13794345E-01</totfact>
</mgrwt>
</event>
<event>
 6    1  0.1588846E-005  0.4717095E+04  0.7818608E-02  0.7873694E-01
          2   -1    0    0  501    0  0.00000000000E+00  0.00000000000E+00  0.20971245590E+04  0.20971245590E+04  0.00000000000E+00 0.  1.
         -2   -1    0    0    0  501 -0.00000000000E+00 -0.00000000000E+00 -0.26525591889E+04  0.26525591889E+04  0.00000000000E+00 0. -1.
         23    2    1    2    0    0  0.18834406074E+04 -0.10154388204E+04  0.71844594069E+03  0.22594556003E+04  0.10252082933E+03 0.  0.
         13    1    3    3    0    0  0.28582170161E+03 -0.11841139726E+03  0.12251930356E+03  0.33275559178E+03  0.00000000000E+00 0. -1.
        -13    1    3    3    0    0  0.15976189058E+04 -0.89702742312E+03  0.59592663714E+03  0.19267000085E+04  0.00000000000E+00 0.  1.
         22    1    1    2    0    0 -0.18834406074E+04  0.10154388204E+04 -0.12738805706E+04  0.24902281477E+04  0.00000000000E+00 0. -1.
<mgrwt>
<rscale>  0 0.47170953E+04</rscale>
<asrwt>0</asrwt>
<pdfrwt beam="1">  1        2 0.32263455E+00 0.47170953E+04</pdfrwt>
<pdfrwt beam="2">  1       -2 0.40808603E+00 0.47170953E+04</pdfrwt>
<totfact> 0.28862314E-02</totfact>
</mgrwt>
</event>
<event>
 6    1  0.1928881E-005  0.3149802E+04  0.7818608E-02  0.8202201E-01
          2   -1    0    0  501    0  0.00000000000E+00  0.00000000000E+00  0.28986619645E+04  0.28986619645E+04  0.00000000000E+00 0. -1.
         -2   -1    0    0    0  501 -0.00000000000E+00 -0.00000000000E+00 -0.85567543519E+03  0.85567543519E+03  0.00000000000E+00 0.  1.
         23    2    1    2    0    0 -0.11303978207E+04 -0.10698570181E+04  0.74513219253E+03  0.17278085567E+04  0.87790386203E+02 0.  0.
         11    1    3    3    0    0 -0.77730173914E+03 -0.68678388565E+03  0.51952121879E+03  0.11600743063E+04  0.00000000000E+00 0.  1.
        -11    1    3    3    0    0 -0.35309608159E+03 -0.38307313241E+03  0.22561097374E+03  0.56773425040E+03  0.00000000000E+00 0. -1.
         22    1    1    2    0    0  0.11303978207E+04  0.10698570181E+04  0.12978543368E+04  0.20265288431E+04  0.00000000000E+00 0. -1.
<mgrwt>
<rscale>  0 0.31498024E+04</rscale>
<asrwt>0</asrwt>
<pdfrwt beam="1">  1        2 0.44594799E+00 0.31498024E+04</pdfrwt>
<pdfrwt beam="2">  1       -2 0.13164238E+00 0.31498024E+04</pdfrwt>
<totfact> 0.71557329E-01</totfact>
</mgrwt>
</event>
<event>
 6    1  0.1588846E-005  0.1595345E+04  0.7818608E-02  0.8823413E-01
         -1   -1    0    0    0  501 -0.00000000000E+00  0.00000000000E+00  0.59110845401E+03  0.59110845401E+03  0.00000000000E+00 0.  1.
          1   -1    0    0  501    0  0.00000000000E+00 -0.00000000000E+00 -0.10764210670E+04  0.10764210670E+04  0.00000000000E+00 0. -1.
         23    2    1    2    0    0 -0.20803768668E+03 -0.64205169642E+03  0.19569543454E+03  0.70873756193E+03  0.92207204898E+02 0.  0.
         11    1    3    3    0    0 -0.12470024691E+03 -0.27774049343E+03  0.12106033897E+03  0.32763629064E+03  0.00000000000E+00 0.  1.
        -11    1    3    3    0    0 -0.83337439773E+02 -0.36431120299E+03  0.74635095572E+02  0.38110127130E+03  0.00000000000E+00 0. -1.
         22    1    1    2    0    0  0.20803768668E+03  0.64205169642E+03 -0.68100804753E+03  0.95879195906E+03  0.00000000000E+00 0. -1.
<mgrwt>
<rscale>  0 0.15953452E+04</rscale>
<asrwt>0</asrwt>
<pdfrwt beam="1">  1        1 0.16560324E+00 0.15953452E+04</pdfrwt>
<pdfrwt beam="2">  1       -1 0.90939762E-01 0.15953452E+04</pdfrwt>
<totfact> 0.14972467E+01</totfact>
</mgrwt>
</event>
<event>
 6    1  0.1588846E-005  0.2882551E+04  0.7818608E-02  0.8278088E-01
         -2   -1    0    0    0  501 -0.00000000000E+00  0.00000000000E+00  0.11464453212E+04  0.11464453212E+04  0.00000000000E+00 0.  1.
          2   -1    0    0  501    0  0.00000000000E+00 -0.00000000000E+00 -0.18119269976E+04  0.18119269976E+04  0.00000000000E+00 0. -1.
         23    2    1    2    0    0  0.62414977235E+03 -0.24170986507E+03  0.97519895806E+03  0.11864187241E+04  0.92681087048E+02 0.  0.
         11    1    3    3    0    0  0.23703536373E+03 -0.44221868207E+02  0.34813273218E+03  0.42348286447E+03  0.00000000000E+00 0. -1.
        -11    1    3    3    0    0  0.38711440862E+03 -0.19748799687E+03  0.62706622587E+03  0.76293585962E+03  0.00000000000E+00 0.  1.
         22    1    1    2    0    0 -0.62414977235E+03  0.24170986507E+03 -0.16406806345E+04  0.17719535947E+04  0.00000000000E+00 0. -1.
<mgrwt>
<rscale>  0 0.28825511E+04</rscale>
<asrwt>0</asrwt>
<pdfrwt beam="1">  1        2 0.27875800E+00 0.28825511E+04</pdfrwt>
<pdfrwt beam="2">  1       -2 0.17637620E+00 0.28825511E+04</pdfrwt>
<totfact> 0.14116209E+00</totfact>
</mgrwt>
</event>
<event>
 6    1  0.1588846E-005  0.2704785E+04  0.7818608E-02  0.8333454E-01
         -2   -1    0    0    0  501 -0.00000000000E+00  0.00000000000E+00  0.10731945572E+04  0.10731945572E+04  0.00000000000E+00 0.  1.
          2   -1    0    0  501    0  0.00000000000E+00 -0.00000000000E+00 -0.17042252411E+04  0.17042252411E+04  0.00000000000E+00 0. -1.
         23    2    1    2    0    0 -0.26521434629E+03 -0.13135210546E+04 -0.14141298527E+03  0.13507447473E+04  0.94008135499E+02 0.  0.
         11    1    3    3    0    0 -0.11981900111E+03 -0.37948430486E+03 -0.48862033178E+02  0.40093943302E+03  0.00000000000E+00 0. -1.
        -11    1    3    3    0    0 -0.14539534518E+03 -0.93403674974E+03 -0.92550952089E+02  0.94980531426E+03  0.00000000000E+00 0.  1.
         22    1    1    2    0    0  0.26521434629E+03  0.13135210546E+04 -0.48961769871E+03  0.14266750510E+04  0.00000000000E+00 0. -1.
<mgrwt>
<rscale>  0 0.27047848E+04</rscale>
<asrwt>0</asrwt>
<pdfrwt beam="1">  1        2 0.26218850E+00 0.27047848E+04</pdfrwt>
<pdfrwt beam="2">  1       -2 0.16510686E+00 0.27047848E+04</pdfrwt>
<totfact> 0.19771391E+00</totfact>
</mgrwt>
</event>
<event>
 6    1  0.1588846E-005  0.2033283E+04  0.7818608E-02  0.8591216E-01
          2   -1    0    0  501    0  0.00000000000E+00  0.00000000000E+00  0.15043746721E+04  0.15043746721E+04  0.00000000000E+00 0. -1.
         -2   -1    0    0    0  501 -0.00000000000E+00 -0.00000000000E+00 -0.68703626421E+03  0.68703626421E+03  0.00000000000E+00 0.  1.
         23    2    1    2    0    0 -0.32321898987E+03 -0.92375974212E+03  0.12076379802E+03  0.99015377665E+03  0.89543452784E+02 0.  0.
         11    1    3    3    0    0 -0.10253938768E+03 -0.19003545066E+03  0.11856500602E+02  0.21625997119E+03  0.00000000000E+00 0. -1.
        -11    1    3    3    0    0 -0.22067960219E+03 -0.73372429146E+03  0.10890729742E+03  0.77389380546E+03  0.00000000000E+00 0.  1.
         22    1    1    2    0    0  0.32321898987E+03  0.92375974212E+03  0.69657460990E+03  0.12012571597E+04  0.00000000000E+00 0.  1.
<mgrwt>
<rscale>  0 0.20332830E+04</rscale>
<asrwt>0</asrwt>
<pdfrwt beam="1">  1        2 0.23144226E+00 0.20332830E+04</pdfrwt>
<pdfrwt beam="2">  1       -2 0.10569789E+00 0.20332830E+04</pdfrwt>
<totfact> 0.84619312E+00</totfact>
</mgrwt>
</event>
<event>
 6    1  0.1588846E-005  0.1594110E+04  0.7818608E-02  0.8824175E-01
          2   -1    0    0  501    0  0.00000000000E+00  0.00000000000E+00  0.13074365098E+04  0.13074365098E+04  0.00000000000E+00 0. -1.
         -2   -1    0    0    0  501 -0.00000000000E+00 -0.00000000000E+00 -0.48590999930E+03  0.48590999930E+03  0.00000000000E+00 0.  1.
         23    2    1    2    0    0  0.41506953476E+03  0.64439607528E+03  0.64714818895E+03  0.10072569343E+04  0.90756447460E+02 0.  0.
         11    1    3    3    0    0  0.68482138982E+02  0.16706017581E+03  0.12644447506E+03  0.22042484201E+03  0.00000000000E+00 0. -1.
        -11    1    3    3    0    0  0.34658739578E+03  0.47733589947E+03  0.52070371389E+03  0.78683209232E+03  0.00000000000E+00 0.  1.
         22    1    1    2    0    0 -0.41506953476E+03 -0.64439607528E+03  0.17437832153E+03  0.78608957476E+03  0.00000000000E+00 0.  1.
<mgrwt>
<rscale>  0 0.15941097E+04</rscale>
<asrwt>0</asrwt>
<pdfrwt beam="1">  1        2 0.20114408E+00 0.15941097E+04</pdfrwt>
<pdfrwt beam="2">  1       -2 0.74755385E-01 0.15941097E+04</pdfrwt>
<totfact> 0.25256633E+01</totfact>
</mgrwt>
</event>
<event>
 6    1  0.1588846E-005  0.3188217E+04  0.7818608E-02  0.8191936E-01
          1   -1    0    0  501    0  0.00000000000E+00  0.00000000000E+00  0.16328142453E+04  0.16328142453E+04  0.00000000000E+00 0. -1.
         -1   -1    0    0    0  501 -0.00000000000E+00 -0.00000000000E+00 -0.15563200160E+04  0.15563200160E+04  0.00000000000E+00 0.  1.
         23    2    1    2    0    0  0.14273263488E+03 -0.15342240575E+04 -0.36457883374E+03  0.15863986279E+04  0.97605415335E+02 0.  0.
         13    1    3    3    0    0  0.51587857718E+02 -0.83599024754E+03 -0.15585409068E+03  0.85195745119E+03  0.00000000000E+00 0. -1.
        -13    1    3    3    0    0  0.91144777164E+02 -0.69823380993E+03 -0.20872474305E+03  0.73444117674E+03  0.00000000000E+00 0.  1.
         22    1    1    2    0    0 -0.14273263488E+03  0.15342240575E+04  0.44107306301E+03  0.16027356334E+04  0.00000000000E+00 0. -1.
<mgrwt>
<rscale>  0 0.31882167E+04</rscale>
<asrwt>0</asrwt>
<pdfrwt beam="1">  1        1 0.25120219E+00 0.31882167E+04</pdfrwt>
<pdfrwt beam="2">  1       -1 0.23943385E+00 0.31882167E+04</pdfrwt>
<totfact> 0.36284377E-01</totfact>
</mgrwt>
</event>
<event>
 6    1  0.1588846E-005  0.2509189E+04  0.7818608E-02  0.8399719E-01
          1   -1    0    0  501    0  0.00000000000E+00  0.00000000000E+00  0.26197863554E+04  0.26197863554E+04  0.00000000000E+00 0. -1.
         -1   -1    0    0    0  501 -0.00000000000E+00 -0.00000000000E+00 -0.60081524388E+03  0.60081524388E+03  0.00000000000E+00 0.  1.
         23    2    1    2    0    0 -0.84376065929E+03  0.51399546043E+03  0.19998752796E+04  0.22324275082E+04  0.90044777424E+02 0.  0.
         11    1    3    3    0    0 -0.60736696232E+03  0.41601721953E+03  0.14801640264E+04  0.16531335393E+04  0.00000000000E+00 0. -1.
        -11    1    3    3    0    0 -0.23639369697E+03  0.97978240899E+02  0.51971125322E+03  0.57929396888E+03  0.00000000000E+00 0.  1.
         22    1    1    2    0    0  0.84376065929E+03 -0.51399546043E+03  0.19095831928E+02  0.98817409109E+03  0.00000000000E+00 0.  1.
<mgrwt>
<rscale>  0 0.25091892E+04</rscale>
<asrwt>0</asrwt>
<pdfrwt beam="1">  1        1 0.40304405E+00 0.25091892E+04</pdfrwt>
<pdfrwt beam="2">  1       -1 0.92433116E-01 0.25091892E+04</pdfrwt>
<totfact> 0.11291428E+00</totfact>
</mgrwt>
</event>
<event>
 6    1  0.1588846E-005  0.9482720E+03  0.7818608E-02  0.9367173E-01
          1   -1    0    0  501    0  0.00000000000E+00  0.00000000000E+00  0.11363634863E+04  0.11363634863E+04  0.00000000000E+00 0. -1.
         -1   -1    0    0    0  501 -0.00000000000E+00 -0.00000000000E+00 -0.19782836435E+03  0.19782836435E+03  0.00000000000E+00 0.  1.
         23    2    1    2    0    0 -0.63260575044E+02  0.33958680379E+03  0.25655540228E+02  0.35814357910E+03  0.91035810763E+02 0.  0.
         11    1    3    3    0    0 -0.38780377807E+02  0.15884290094E+03  0.56832971652E+02  0.17310393279E+03  0.00000000000E+00 0.  1.
        -11    1    3    3    0    0 -0.24480197237E+02  0.18074390285E+03 -0.31177431423E+02  0.18503964630E+03  0.00000000000E+00 0. -1.
         22    1    1    2    0    0  0.63260575044E+02 -0.33958680379E+03  0.91287958173E+03  0.97604827155E+03  0.00000000000E+00 0. -1.
<mgrwt>
<rscale>  0 0.94827196E+03</rscale>
<asrwt>0</asrwt>
<pdfrwt beam="1">  1        1 0.17482515E+00 0.94827196E+03</pdfrwt>
<pdfrwt beam="2">  1       -1 0.30435134E-01 0.94827196E+03</pdfrwt>
<totfact> 0.11895003E+02</totfact>
</mgrwt>
</event>
<event>
 6    1  0.1588846E-005  0.2287356E+04  0.7818608E-02  0.8482923E-01
          2   -1    0    0  501    0  0.00000000000E+00  0.00000000000E+00  0.99737893456E+03  0.99737893456E+03  0.00000000000E+00 0. -1.
         -2   -1    0    0    0  501 -0.00000000000E+00 -0.00000000000E+00 -0.13114370604E+04  0.13114370604E+04  0.00000000000E+00 0.  1.
         23    2    1    2    0    0  0.41387921665E+03 -0.10030901682E+04  0.19985680370E+03  0.11081518262E+04  0.10281943544E+03 0.  0.
         13    1    3    3    0    0  0.36233276700E+03 -0.79628208717E+03  0.18715797022E+03  0.89463864337E+03  0.00000000000E+00 0.  1.
        -13    1    3    3    0    0  0.51546449649E+02 -0.20680808103E+03  0.12698833475E+02  0.21351318278E+03  0.00000000000E+00 0. -1.
         22    1    1    2    0    0 -0.41387921665E+03  0.10030901682E+04 -0.51391492958E+03  0.12006641689E+04  0.00000000000E+00 0. -1.
<mgrwt>
<rscale>  0 0.22873563E+04</rscale>
<asrwt>0</asrwt>
<pdfrwt beam="1">  1        2 0.15344291E+00 0.22873563E+04</pdfrwt>
<pdfrwt beam="2">  1       -2 0.20175955E+00 0.22873563E+04</pdfrwt>
<totfact> 0.29714600E+00</totfact>
</mgrwt>
</event>
<event>
 6    1  0.1588846E-005  0.5025218E+04  0.7818608E-02  0.7824629E-01
         -1   -1    0    0    0  501 -0.00000000000E+00  0.00000000000E+00  0.28937905503E+04  0.28937905503E+04  0.00000000000E+00 0.  1.
          1   -1    0    0  501    0  0.00000000000E+00 -0.00000000000E+00 -0.21816378120E+04  0.21816378120E+04  0.00000000000E+00 0. -1.
         23    2    1    2    0    0 -0.22610155512E+04 -0.96989776052E+03  0.86734460556E+03  0.26102757293E+04  0.91431558205E+02 0.  0.
         11    1    3    3    0    0 -0.21296546113E+04 -0.92304001184E+03  0.83820207364E+03  0.24677954419E+04  0.00000000000E+00 0.  1.
        -11    1    3    3    0    0 -0.13136093986E+03 -0.46857748687E+02  0.29142531923E+02  0.14248028740E+03  0.00000000000E+00 0. -1.
         22    1    1    2    0    0  0.22610155512E+04  0.96989776052E+03 -0.15519186726E+03  0.24651526330E+04  0.00000000000E+00 0. -1.
<mgrwt>
<rscale>  0 0.50252176E+04</rscale>
<asrwt>0</asrwt>
<pdfrwt beam="1">  1        1 0.33563659E+00 0.50252176E+04</pdfrwt>
<pdfrwt beam="2">  1       -1 0.44519855E+00 0.50252176E+04</pdfrwt>
<totfact> 0.56537236E-03</totfact>
</mgrwt>
</event>
<event>
 6    1  0.1588846E-005  0.4690916E+04  0.7818608E-02  0.7878040E-01
         -1   -1    0    0    0  501 -0.00000000000E+00  0.00000000000E+00  0.14649363840E+04  0.14649363840E+04  0.00000000000E+00 0.  1.
          1   -1    0    0  501    0  0.00000000000E+00 -0.00000000000E+00 -0.37552305300E+04  0.37552305300E+04  0.00000000000E+00 0. -1.
         23    2    1    2    0    0  0.12477460410E+04  0.15029022474E+03  0.10569728126E+04  0.16447433830E+04  0.92368473345E+02 0.  0.
         13    1    3    3    0    0  0.31636048431E+03  0.16250976346E+02  0.22317414570E+03  0.38749806396E+03  0.00000000000E+00 0. -1.
        -13    1    3    3    0    0  0.93138555665E+03  0.13403924840E+03  0.83379866692E+03  0.12572453190E+04  0.00000000000E+00 0.  1.
         22    1    1    2    0    0 -0.12477460410E+04 -0.15029022474E+03 -0.33472669586E+04  0.35754235311E+04  0.00000000000E+00 0. -1.
<mgrwt>
<rscale>  0 0.46909163E+04</rscale>
<asrwt>0</asrwt>
<pdfrwt beam="1">  1        1 0.57772777E+00 0.46909163E+04</pdfrwt>
<pdfrwt beam="2">  1       -1 0.22537483E+00 0.46909163E+04</pdfrwt>
<totfact> 0.11618186E-02</totfact>
</mgrwt>
</event>
<event>
 6    1  0.1588846E-005  0.2259845E+04  0.7818608E-02  0.8493924E-01
          4   -1    0    0  501    0  0.00000000000E+00  0.00000000000E+00  0.54756115375E+03  0.54756115375E+03  0.00000000000E+00 0. -1.
         -4   -1    0    0    0  501 -0.00000000000E+00 -0.00000000000E+00 -0.23316571658E+04  0.23316571658E+04  0.00000000000E+00 0.  1.
         23    2    1    2    0    0  0.51662303391E+03  0.29930557918E+03  0.32671153008E+03  0.68559308519E+03  0.82548565588E+02 0.  0.
         13    1    3    3    0    0  0.23612958314E+03  0.17823025211E+03  0.13748379564E+03  0.32622844276E+03  0.00000000000E+00 0. -1.
        -13    1    3    3    0    0  0.28049345076E+03  0.12107532707E+03  0.18922773444E+03  0.35936464243E+03  0.00000000000E+00 0.  1.
         22    1    1    2    0    0 -0.51662303391E+03 -0.29930557918E+03 -0.21108075421E+04  0.21936252344E+04  0.00000000000E+00 0.  1.
<mgrwt>
<rscale>  0 0.22598450E+04</rscale>
<asrwt>0</asrwt>
<pdfrwt beam="1">  1        4 0.84240176E-01 0.22598450E+04</pdfrwt>
<pdfrwt beam="2">  1       -4 0.35871649E+00 0.22598450E+04</pdfrwt>
<totfact> 0.29175146E-02</totfact>
</mgrwt>
</event>
<event>
 6    1  0.1588846E-005  0.3119523E+04  0.7818608E-02  0.8210400E-01
         -2   -1    0    0    0  501 -0.00000000000E+00  0.00000000000E+00  0.11916356278E+04  0.11916356278E+04  0.00000000000E+00 0. -1.
          2   -1    0    0  501    0  0.00000000000E+00 -0.00000000000E+00 -0.20416109469E+04  0.20416109469E+04  0.00000000000E+00 0.  1.
         23    2    1    2    0    0 -0.12704266855E+04  0.71118432442E+03 -0.10015431119E+04  0.17694365111E+04  0.89720987280E+02 0.  0.
         13    1    3    3    0    0 -0.11311109606E+04  0.60361321982E+03 -0.86380482205E+03  0.15459365106E+04  0.00000000000E+00 0. -1.
        -13    1    3    3    0    0 -0.13931572489E+03  0.10757110460E+03 -0.13773828984E+03  0.22350000052E+03  0.00000000000E+00 0.  1.
         22    1    1    2    0    0  0.12704266855E+04 -0.71118432442E+03  0.15156779280E+03  0.14638100636E+04  0.00000000000E+00 0.  1.
<mgrwt>
<rscale>  0 0.31195233E+04</rscale>
<asrwt>0</asrwt>
<pdfrwt beam="1">  1        2 0.31409399E+00 0.31195233E+04</pdfrwt>
<pdfrwt beam="2">  1       -2 0.18332856E+00 0.31195233E+04</pdfrwt>
<totfact> 0.92360548E-01</totfact>
</mgrwt>
</event>
<event>
 6    1  0.1588846E-005  0.3103855E+04  0.7818608E-02  0.8214681E-01
          2   -1    0    0  501    0  0.00000000000E+00  0.00000000000E+00  0.89527304370E+03  0.89527304370E+03  0.00000000000E+00 0. -1.
         -2   -1    0    0    0  501 -0.00000000000E+00 -0.00000000000E+00 -0.26902163870E+04  0.26902163870E+04  0.00000000000E+00 0.  1.
         23    2    1    2    0    0 -0.92842133574E+03 -0.42383574483E+03  0.45002236878E+03  0.11194249620E+04  0.94811380803E+02 0.  0.
         11    1    3    3    0    0 -0.48359737742E+03 -0.25565997935E+03  0.27894744765E+03  0.61403593303E+03  0.00000000000E+00 0.  1.
        -11    1    3    3    0    0 -0.44482395831E+03 -0.16817576547E+03  0.17107492113E+03  0.50538902899E+03  0.00000000000E+00 0. -1.
         22    1    1    2    0    0  0.92842133574E+03  0.42383574483E+03 -0.22449657121E+04  0.24660644686E+04  0.00000000000E+00 0.  1.
<mgrwt>
<rscale>  0 0.31038545E+04</rscale>
<asrwt>0</asrwt>
<pdfrwt beam="1">  1        2 0.13773431E+00 0.31038545E+04</pdfrwt>
<pdfrwt beam="2">  1       -2 0.41387945E+00 0.31038545E+04</pdfrwt>
<totfact> 0.15071375E-01</totfact>
</mgrwt>
</event>
<event>
 6    1  0.1588846E-005  0.4220654E+04  0.7818608E-02  0.7961455E-01
          1   -1    0    0  501    0  0.00000000000E+00  0.00000000000E+00  0.28074793055E+04  0.28074793055E+04  0.00000000000E+00 0. -1.
         -1   -1    0    0    0  501 -0.00000000000E+00 -0.00000000000E+00 -0.15862911622E+04  0.15862911622E+04  0.00000000000E+00 0.  1.
         23    2    1    2    0    0 -0.13467615240E+04 -0.15993755787E+04  0.90075622908E+03  0.22784819635E+04  0.91375213507E+02 0.  0.
         11    1    3    3    0    0 -0.12944515510E+04 -0.15505958217E+04  0.85383481470E+03  0.21929400609E+04  0.00000000000E+00 0.  1.
        -11    1    3    3    0    0 -0.52309973093E+02 -0.48779757001E+02  0.46921414381E+02  0.85541902630E+02  0.00000000000E+00 0. -1.
         22    1    1    2    0    0  0.13467615240E+04  0.15993755787E+04  0.32043191429E+03  0.21152885042E+04  0.00000000000E+00 0.  1.
<mgrwt>
<rscale>  0 0.42206538E+04</rscale>
<asrwt>0</asrwt>
<pdfrwt beam="1">  1        1 0.43191989E+00 0.42206538E+04</pdfrwt>
<pdfrwt beam="2">  1       -1 0.24404479E+00 0.42206538E+04</pdfrwt>
<totfact> 0.48253412E-02</totfact>
</mgrwt>
</event>
<event>
 6    1  0.1588846E-005  0.1993274E+04  0.7818608E-02  0.8609772E-01
         -2   -1    0    0    0  501 -0.00000000000E+00  0.00000000000E+00  0.42325998106E+03  0.42325998106E+03  0.00000000000E+00 0.  1.
          2   -1    0    0  501    0  0.00000000000E+00 -0.00000000000E+00 -0.23467499157E+04  0.23467499157E+04  0.00000000000E+00 0. -1.
         23    2    1    2    0    0 -0.61057463620E+03  0.76379849657E+03 -0.12145207138E+04  0.15621908350E+04  0.95865067115E+02 0.  0.
         11    1    3    3    0    0 -0.37958431646E+03  0.44048140885E+03 -0.65398996426E+03  0.87510627823E+03  0.00000000000E+00 0.  1.
        -11    1    3    3    0    0 -0.23099031974E+03  0.32331708772E+03 -0.56053074951E+03  0.68708455678E+03  0.00000000000E+00 0. -1.
         22    1    1    2    0    0  0.61057463620E+03 -0.76379849657E+03 -0.70896922083E+03  0.12078190617E+04  0.00000000000E+00 0.  1.
<mgrwt>
<rscale>  0 0.19932740E+04</rscale>
<asrwt>0</asrwt>
<pdfrwt beam="1">  1        2 0.36103845E+00 0.19932740E+04</pdfrwt>
<pdfrwt beam="2">  1       -2 0.65116920E-01 0.19932740E+04</pdfrwt>
<totfact> 0.86224487E+00</totfact>
</mgrwt>
</event>
<event>
 6    1  0.1588846E-005  0.1632056E+04  0.7818608E-02  0.8801093E-01
         -1   -1    0    0    0  501 -0.00000000000E+00  0.00000000000E+00  0.34744694902E+03  0.34744694902E+03  0.00000000000E+00 0.  1.
          1   -1    0    0  501    0  0.00000000000E+00 -0.00000000000E+00 -0.19165560263E+04  0.19165560263E+04  0.00000000000E+00 0. -1.
         23    2    1    2    0    0 -0.35390420806E+03  0.53085218727E+03 -0.86551475720E+02  0.64999266707E+03  0.89146374466E+02 0.  0.
         11    1    3    3    0    0 -0.16979642213E+03  0.32967505727E+03 -0.64478662181E+02  0.37639602313E+03  0.00000000000E+00 0.  1.
        -11    1    3    3    0    0 -0.18410778593E+03  0.20117713001E+03 -0.22072813539E+02  0.27359664394E+03  0.00000000000E+00 0. -1.
         22    1    1    2    0    0  0.35390420806E+03 -0.53085218727E+03 -0.14825576016E+04  0.16140103083E+04  0.00000000000E+00 0. -1.
<mgrwt>
<rscale>  0 0.16320558E+04</rscale>
<asrwt>0</asrwt>
<pdfrwt beam="1">  1        1 0.29485477E+00 0.16320558E+04</pdfrwt>
<pdfrwt beam="2">  1       -1 0.53453377E-01 0.16320558E+04</pdfrwt>
<totfact> 0.11475242E+01</totfact>
</mgrwt>
</event>
<event>
 6    1  0.1588846E-005  0.2822491E+04  0.7818608E-02  0.8296320E-01
          2   -1    0    0  501    0  0.00000000000E+00  0.00000000000E+00  0.12100806078E+04  0.12100806078E+04  0.00000000000E+00 0. -1.
         -2   -1    0    0    0  501 -0.00000000000E+00 -0.00000000000E+00 -0.16458523622E+04  0.16458523622E+04  0.00000000000E+00 0.  1.
         23    2    1    2    0    0  0.48094684900E+03  0.12899293623E+04 -0.52526758054E+03  0.14763543626E+04  0.92133281022E+02 0.  0.
         13    1    3    3    0    0  0.44242709905E+03  0.11203991670E+04 -0.48003683286E+03  0.12967156174E+04  0.00000000000E+00 0. -1.
        -13    1    3    3    0    0  0.38519749950E+02  0.16953019522E+03 -0.45230747680E+02  0.17963874516E+03  0.00000000000E+00 0.  1.
         22    1    1    2    0    0 -0.48094684900E+03 -0.12899293623E+04  0.89495826096E+02  0.13795786074E+04  0.00000000000E+00 0. -1.
<mgrwt>
<rscale>  0 0.28224911E+04</rscale>
<asrwt>0</asrwt>
<pdfrwt beam="1">  1        2 0.18616625E+00 0.28224911E+04</pdfrwt>
<pdfrwt beam="2">  1       -2 0.25320805E+00 0.28224911E+04</pdfrwt>
<totfact> 0.99629775E-01</totfact>
</mgrwt>
</event>
<event>
 6    1  0.1588846E-005  0.1226427E+04  0.7818608E-02  0.9090034E-01
         -2   -1    0    0    0  501 -0.00000000000E+00  0.00000000000E+00  0.21023271636E+03  0.21023271636E+03  0.00000000000E+00 0.  1.
          2   -1    0    0  501    0  0.00000000000E+00 -0.00000000000E+00 -0.17886411353E+04  0.17886411353E+04  0.00000000000E+00 0. -1.
         23    2    1    2    0    0 -0.29433669467E+03 -0.40419254461E+03 -0.23036786385E+03  0.56109116949E+03  0.10838932067E+03 0.  0.
         11    1    3    3    0    0 -0.17381562181E+03 -0.23402347006E+03 -0.19201468253E+03  0.34906803524E+03  0.00000000000E+00 0. -1.
        -11    1    3    3    0    0 -0.12052107287E+03 -0.17016907455E+03 -0.38353181325E+02  0.21202313425E+03  0.00000000000E+00 0.  1.
         22    1    1    2    0    0  0.29433669467E+03  0.40419254461E+03 -0.13480405551E+04  0.14377826821E+04  0.00000000000E+00 0. -1.
<mgrwt>
<rscale>  0 0.12264271E+04</rscale>
<asrwt>0</asrwt>
<pdfrwt beam="1">  1        2 0.27517555E+00 0.12264271E+04</pdfrwt>
<pdfrwt beam="2">  1       -2 0.32343495E-01 0.12264271E+04</pdfrwt>
<totfact> 0.76787296E+01</totfact>
</mgrwt>
</event>
<event>
 6    1  0.1588846E-005  0.7509544E+03  0.7818608E-02  0.9633854E-01
         -3   -1    0    0    0  501 -0.00000000000E+00  0.00000000000E+00  0.65211147100E+02  0.65211147100E+02  0.00000000000E+00 0.  1.
          3   -1    0    0  501    0  0.00000000000E+00 -0.00000000000E+00 -0.21619485399E+04  0.21619485399E+04  0.00000000000E+00 0. -1.
         23    2    1    2    0    0  0.82035183697E+02 -0.16663611427E+03 -0.20123980524E+04  0.20231731916E+04  0.94797026629E+02 0.  0.
         11    1    3    3    0    0  0.96428047013E+02 -0.15052310585E+03 -0.19190323782E+04  0.19273403545E+04  0.00000000000E+00 0.  1.
        -11    1    3    3    0    0 -0.14392863317E+02 -0.16113008416E+02 -0.93365674187E+02  0.95832837123E+02  0.00000000000E+00 0. -1.
         22    1    1    2    0    0 -0.82035183697E+02  0.16663611427E+03 -0.84339340422E+02  0.20398649535E+03  0.00000000000E+00 0.  1.
<mgrwt>
<rscale>  0 0.75095444E+03</rscale>
<asrwt>0</asrwt>
<pdfrwt beam="1">  1        3 0.33260753E+00 0.75095444E+03</pdfrwt>
<pdfrwt beam="2">  1       -3 0.10032482E-01 0.75095444E+03</pdfrwt>
<totfact> 0.53519367E+00</totfact>
</mgrwt>
</event>
<event>
 6    1  0.1588846E-005  0.1485452E+04  0.7818608E-02  0.8894185E-01
         -1   -1    0    0    0  501 -0.00000000000E+00  0.00000000000E+00  0.36607077945E+03  0.36607077945E+03  0.00000000000E+00 0.  1.
          1   -1    0    0  501    0  0.00000000000E+00 -0.00000000000E+00 -0.15069266676E+04  0.15069266676E+04  0.00000000000E+00 0. -1.
         23    2    1    2    0    0 -0.62121659984E+03  0.23417210008E+03 -0.98451052195E+03  0.11909486879E+04  0.91384752421E+02 0.  0.
         11    1    3    3    0    0 -0.16374432137E+03  0.10575443502E+03 -0.29406958368E+03  0.35280748766E+03  0.00000000000E+00 0. -1.
        -11    1    3    3    0    0 -0.45747227847E+03  0.12841766506E+03 -0.69044093827E+03  0.83814120022E+03  0.00000000000E+00 0.  1.
         22    1    1    2    0    0  0.62121659984E+03 -0.23417210008E+03 -0.15634536622E+03  0.68204875919E+03  0.00000000000E+00 0.  1.
<mgrwt>
<rscale>  0 0.14854519E+04</rscale>
<asrwt>0</asrwt>
<pdfrwt beam="1">  1        1 0.23183487E+00 0.14854519E+04</pdfrwt>
<pdfrwt beam="2">  1       -1 0.56318581E-01 0.14854519E+04</pdfrwt>
<totfact> 0.19988983E+01</totfact>
</mgrwt>
</event>
<event>
 6    1  0.1588846E-005  0.1300297E+04  0.7818608E-02  0.9029330E-01
         -1   -1    0    0    0  501 -0.00000000000E+00  0.00000000000E+00  0.25171841448E+03  0.25171841448E+03  0.00000000000E+00 0. -1.
          1   -1    0    0  501    0  0.00000000000E+00 -0.00000000000E+00 -0.16792296409E+04  0.16792296409E+04  0.00000000000E+00 0.  1.
         23    2    1    2    0    0 -0.56829737609E+03  0.94607143418E+02 -0.28191896312E+03  0.64864775788E+03  0.96711906097E+02 0.  0.
         11    1    3    3    0    0 -0.40840542855E+03  0.26646826953E+02 -0.17890449945E+03  0.44666751323E+03  0.00000000000E+00 0.  1.
        -11    1    3    3    0    0 -0.15989194754E+03  0.67960316465E+02 -0.10301446367E+03  0.20198024464E+03  0.00000000000E+00 0. -1.
         22    1    1    2    0    0  0.56829737609E+03 -0.94607143418E+02 -0.11455922633E+04  0.12823002975E+04  0.00000000000E+00 0.  1.
<mgrwt>
<rscale>  0 0.13002969E+04</rscale>
<asrwt>0</asrwt>
<pdfrwt beam="1">  1        1 0.25834302E+00 0.13002969E+04</pdfrwt>
<pdfrwt beam="2">  1       -1 0.38725911E-01 0.13002969E+04</pdfrwt>
<totfact> 0.31269776E+01</totfact>
</mgrwt>
</event>
<event>
 6    1  0.1588846E-005  0.2316231E+04  0.7818608E-02  0.8471549E-01
          2   -1    0    0  501    0  0.00000000000E+00  0.00000000000E+00  0.30211762589E+04  0.30211762589E+04  0.00000000000E+00 0.  1.
         -2   -1    0    0    0  501 -0.00000000000E+00 -0.00000000000E+00 -0.44394367350E+03  0.44394367350E+03  0.00000000000E+00 0. -1.
         23    2    1    2    0    0  0.65409658839E+03  0.94685523436E+03  0.11216375141E+04  0.16095515037E+04  0.90598832164E+02 0.  0.
         13    1    3    3    0    0  0.25793081264E+03  0.29800245289E+03  0.37874904753E+03  0.54661193459E+03  0.00000000000E+00 0.  1.
        -13    1    3    3    0    0  0.39616577574E+03  0.64885278147E+03  0.74288846656E+03  0.10629395691E+04  0.00000000000E+00 0. -1.
         22    1    1    2    0    0 -0.65409658839E+03 -0.94685523436E+03  0.14555950713E+04  0.18555684286E+04  0.00000000000E+00 0.  1.
<mgrwt>
<rscale>  0 0.23162315E+04</rscale>
<asrwt>0</asrwt>
<pdfrwt beam="1">  1        2 0.46479634E+00 0.23162315E+04</pdfrwt>
<pdfrwt beam="2">  1       -2 0.68299028E-01 0.23162315E+04</pdfrwt>
<totfact> 0.30011102E+00</totfact>
</mgrwt>
</event>
<event>
 6    1  0.1588846E-005  0.1277624E+04  0.7818608E-02  0.9047500E-01
          1   -1    0    0  501    0  0.00000000000E+00  0.00000000000E+00  0.12165543200E+04  0.12165543200E+04  0.00000000000E+00 0. -1.
         -1   -1    0    0    0  501 -0.00000000000E+00 -0.00000000000E+00 -0.33544001140E+03  0.33544001140E+03  0.00000000000E+00 0.  1.
         23    2    1    2    0    0 -0.28239551599E+03  0.41303620114E+03 -0.33076657510E+02  0.50983731184E+03  0.92162293633E+02 0.  0.
         11    1    3    3    0    0 -0.12222247422E+03  0.12445170932E+03 -0.42921955522E+02  0.17963534013E+03  0.00000000000E+00 0. -1.
        -11    1    3    3    0    0 -0.16017304177E+03  0.28858449182E+03  0.98452980128E+01  0.33020197171E+03  0.00000000000E+00 0.  1.
         22    1    1    2    0    0  0.28239551599E+03 -0.41303620114E+03  0.91419096616E+03  0.10421570196E+04  0.00000000000E+00 0. -1.
<mgrwt>
<rscale>  0 0.12776244E+04</rscale>
<asrwt>0</asrwt>
<pdfrwt beam="1">  1        1 0.18716220E+00 0.12776244E+04</pdfrwt>
<pdfrwt beam="2">  1       -1 0.51606156E-01 0.12776244E+04</pdfrwt>
<totfact> 0.38634785E+01</totfact>
</mgrwt>
</event>
<event>
 6    1  0.1588846E-005  0.2246150E+04  0.7818608E-02  0.8499461E-01
         -2   -1    0    0    0  501 -0.00000000000E+00  0.00000000000E+00  0.29572549559E+03  0.29572549559E+03  0.00000000000E+00 0.  1.
          2   -1    0    0  501    0  0.00000000000E+00 -0.00000000000E+00 -0.42650947442E+04  0.42650947442E+04  0.00000000000E+00 0. -1.
         23    2    1    2    0    0 -0.10826091430E+04  0.26921501618E+03 -0.17610647044E+04  0.20867288426E+04  0.92569368713E+02 0.  0.
         13    1    3    3    0    0 -0.51197272232E+03  0.11513236059E+03 -0.74527401532E+03  0.91148498987E+03  0.00000000000E+00 0.  1.
        -13    1    3    3    0    0 -0.57063642072E+03  0.15408265560E+03 -0.10157906890E+04  0.11752438527E+04  0.00000000000E+00 0. -1.
         22    1    1    2    0    0  0.10826091430E+04 -0.26921501618E+03 -0.22083045442E+04  0.24740913972E+04  0.00000000000E+00 0. -1.
<mgrwt>
<rscale>  0 0.22461498E+04</rscale>
<asrwt>0</asrwt>
<pdfrwt beam="1">  1        2 0.65616839E+00 0.22461498E+04</pdfrwt>
<pdfrwt beam="2">  1       -2 0.45496232E-01 0.22461498E+04</pdfrwt>
<totfact> 0.85767815E-01</totfact>
</mgrwt>
</event>
<event>
 6    1  0.1588846E-005  0.1777462E+04  0.7818608E-02  0.8718378E-01
         -2   -1    0    0    0  501 -0.00000000000E+00  0.00000000000E+00  0.47961601754E+03  0.47961601754E+03  0.00000000000E+00 0.  1.
          2   -1    0    0  501    0  0.00000000000E+00 -0.00000000000E+00 -0.16468231816E+04  0.16468231816E+04  0.00000000000E+00 0. -1.
         23    2    1    2    0    0 -0.59471500956E+02 -0.29305382252E+03  0.41298289431E+03  0.51820475638E+03  0.92541321701E+02 0.  0.
         13    1    3    3    0    0  0.55628693264E+00 -0.65630243584E+02  0.38826630069E+02  0.76257101509E+02  0.00000000000E+00 0.  1.
        -13    1    3    3    0    0 -0.60027787889E+02 -0.22742357894E+03  0.37415626424E+03  0.44194765487E+03  0.00000000000E+00 0. -1.
         22    1    1    2    0    0  0.59471500956E+02  0.29305382252E+03 -0.15801900583E+04  0.16082344427E+04  0.00000000000E+00 0. -1.
<mgrwt>
<rscale>  0 0.17774620E+04</rscale>
<asrwt>0</asrwt>
<pdfrwt beam="1">  1        2 0.25335741E+00 0.17774620E+04</pdfrwt>
<pdfrwt beam="2">  1       -2 0.73787079E-01 0.17774620E+04</pdfrwt>
<totfact> 0.16438391E+01</totfact>
</mgrwt>
</event>
<event>
 6    1  0.1588846E-005  0.3002047E+04  0.7818608E-02  0.8243147E-01
         -2   -1    0    0    0  501 -0.00000000000E+00  0.00000000000E+00  0.16998544112E+04  0.16998544112E+04  0.00000000000E+00 0.  1.
          2   -1    0    0  501    0  0.00000000000E+00 -0.00000000000E+00 -0.13254493204E+04  0.13254493204E+04  0.00000000000E+00 0. -1.
         23    2    1    2    0    0  0.41345618070E+03  0.10246559532E+04 -0.83437726348E+03  0.13876161498E+04  0.91800466560E+02 0.  0.
         11    1    3    3    0    0  0.20845781868E+03  0.63537628766E+03 -0.51132993710E+03  0.84179332004E+03  0.00000000000E+00 0.  1.
        -11    1    3    3    0    0  0.20499836203E+03  0.38927966551E+03 -0.32304732638E+03  0.54582282977E+03  0.00000000000E+00 0. -1.
         22    1    1    2    0    0 -0.41345618070E+03 -0.10246559532E+04  0.12087823543E+04  0.16376875819E+04  0.00000000000E+00 0.  1.
<mgrwt>
<rscale>  0 0.30020466E+04</rscale>
<asrwt>0</asrwt>
<pdfrwt beam="1">  1        2 0.20391528E+00 0.30020466E+04</pdfrwt>
<pdfrwt beam="2">  1       -2 0.26151606E+00 0.30020466E+04</pdfrwt>
<totfact> 0.74678899E-01</totfact>
</mgrwt>
</event>
<event>
 6    1  0.1588846E-005  0.8449945E+03  0.7818608E-02  0.9497080E-01
          1   -1    0    0  501    0  0.00000000000E+00  0.00000000000E+00  0.10052318485E+04  0.10052318485E+04  0.00000000000E+00 0. -1.
         -1   -1    0    0    0  501 -0.00000000000E+00 -0.00000000000E+00 -0.17757488382E+03  0.17757488382E+03  0.00000000000E+00 0.  1.
         23    2    1    2    0    0 -0.36468279676E+03  0.13650249693E+03  0.62972232297E+03  0.74599487774E+03  0.91278034877E+02 0.  0.
         11    1    3    3    0    0 -0.24963637653E+03  0.97397332411E+02  0.34822796591E+03  0.43939421604E+03  0.00000000000E+00 0.  1.
        -11    1    3    3    0    0 -0.11504642023E+03  0.39105164517E+02  0.28149435706E+03  0.30660066170E+03  0.00000000000E+00 0. -1.
         22    1    1    2    0    0  0.36468279676E+03 -0.13650249693E+03  0.19793464174E+03  0.43681185461E+03  0.00000000000E+00 0.  1.
<mgrwt>
<rscale>  0 0.84499451E+03</rscale>
<asrwt>0</asrwt>
<pdfrwt beam="1">  1        1 0.15465105E+00 0.84499451E+03</pdfrwt>
<pdfrwt beam="2">  1       -1 0.27319214E-01 0.84499451E+03</pdfrwt>
<totfact> 0.18162844E+02</totfact>
</mgrwt>
</event>
<event>
 6    1  0.1588846E-005  0.2100098E+04  0.7818608E-02  0.8561200E-01
         -1   -1    0    0    0  501 -0.00000000000E+00  0.00000000000E+00  0.12385794420E+04  0.12385794420E+04  0.00000000000E+00 0. -1.
          1   -1    0    0  501    0  0.00000000000E+00 -0.00000000000E+00 -0.89021588565E+03  0.89021588565E+03  0.00000000000E+00 0.  1.
         23    2    1    2    0    0  0.54292377198E+03  0.89282413219E+03  0.25746531151E+03  0.10799084681E+04  0.89514019676E+02 0.  0.
         11    1    3    3    0    0  0.49329615465E+03  0.78186166475E+03  0.25212798088E+03  0.95823654581E+03  0.00000000000E+00 0. -1.
        -11    1    3    3    0    0  0.49627617331E+02  0.11096246744E+03  0.53373306299E+01  0.12167192232E+03  0.00000000000E+00 0.  1.
         22    1    1    2    0    0 -0.54292377198E+03 -0.89282413219E+03  0.90898244865E+02  0.10488868595E+04  0.00000000000E+00 0. -1.
<mgrwt>
<rscale>  0 0.21000982E+04</rscale>
<asrwt>0</asrwt>
<pdfrwt beam="1">  1        1 0.13695629E+00 0.21000982E+04</pdfrwt>
<pdfrwt beam="2">  1       -1 0.19055068E+00 0.21000982E+04</pdfrwt>
<totfact> 0.29855670E+00</totfact>
</mgrwt>
</event>
<event>
 6    1  0.1588846E-005  0.5486838E+04  0.7818608E-02  0.7757503E-01
          2   -1    0    0  501    0  0.00000000000E+00  0.00000000000E+00  0.32888524666E+04  0.32888524666E+04  0.00000000000E+00 0. -1.
         -2   -1    0    0    0  501 -0.00000000000E+00 -0.00000000000E+00 -0.22884415357E+04  0.22884415357E+04  0.00000000000E+00 0.  1.
         23    2    1    2    0    0  0.15993852045E+04 -0.14296660255E+04  0.22374672517E+04  0.31009486472E+04  0.87434739906E+02 0.  0.
         13    1    3    3    0    0  0.12346568923E+04 -0.11306610772E+04  0.17884324400E+04  0.24497474780E+04  0.00000000000E+00 0. -1.
        -13    1    3    3    0    0  0.36472831215E+03 -0.29900494824E+03  0.44903481162E+03  0.65120116923E+03  0.00000000000E+00 0.  1.
         22    1    1    2    0    0 -0.15993852045E+04  0.14296660255E+04 -0.12370563208E+04  0.24763453551E+04  0.00000000000E+00 0.  1.
<mgrwt>
<rscale>  0 0.54868376E+04</rscale>
<asrwt>0</asrwt>
<pdfrwt beam="1">  1        2 0.50597730E+00 0.54868376E+04</pdfrwt>
<pdfrwt beam="2">  1       -2 0.35206793E+00 0.54868376E+04</pdfrwt>
<totfact> 0.11970774E-02</totfact>
</mgrwt>
</event>
<event>
 6    1  0.1588846E-005  0.3368446E+04  0.7818608E-02  0.8145694E-01
          2   -1    0    0  501    0  0.00000000000E+00  0.00000000000E+00  0.31514743791E+04  0.31514743791E+04  0.00000000000E+00 0. -1.
         -2   -1    0    0    0  501 -0.00000000000E+00 -0.00000000000E+00 -0.90008903956E+03  0.90008903956E+03  0.00000000000E+00 0.  1.
         23    2    1    2    0    0 -0.55893877633E+03 -0.12512354295E+04 -0.48466439205E+02  0.13743781692E+04  0.92540265217E+02 0.  0.
         13    1    3    3    0    0 -0.49290897351E+03 -0.11448970560E+04 -0.64624240235E+02  0.12481685853E+04  0.00000000000E+00 0.  1.
        -13    1    3    3    0    0 -0.66029802823E+02 -0.10633837351E+03  0.16157801030E+02  0.12620958393E+03  0.00000000000E+00 0. -1.
         22    1    1    2    0    0  0.55893877633E+03  0.12512354295E+04  0.22998517788E+04  0.26771852495E+04  0.00000000000E+00 0. -1.
<mgrwt>
<rscale>  0 0.33684463E+04</rscale>
<asrwt>0</asrwt>
<pdfrwt beam="1">  1        2 0.48484221E+00 0.33684463E+04</pdfrwt>
<pdfrwt beam="2">  1       -2 0.13847524E+00 0.33684463E+04</pdfrwt>
<totfact> 0.42756044E-01</totfact>
</mgrwt>
</event>
<event>
 6    1  0.1588846E-005  0.7166755E+03  0.7818608E-02  0.9689132E-01
         -2   -1    0    0    0  501 -0.00000000000E+00  0.00000000000E+00  0.17577147644E+03  0.17577147644E+03  0.00000000000E+00 0.  1.
          2   -1    0    0  501    0  0.00000000000E+00 -0.00000000000E+00 -0.73052782764E+03  0.73052782764E+03  0.00000000000E+00 0. -1.
         23    2    1    2    0    0 -0.22494642545E+03  0.26973065212E+03 -0.30398510220E+03  0.47474196335E+03  0.98068702411E+02 0.  0.
         11    1    3    3    0    0 -0.26090131069E+02  0.87010823936E+02 -0.48451808188E+02  0.10295220317E+03  0.00000000000E+00 0.  1.
        -11    1    3    3    0    0 -0.19885629438E+03  0.18271982818E+03 -0.25553329401E+03  0.37178976018E+03  0.00000000000E+00 0. -1.
         22    1    1    2    0    0  0.22494642545E+03 -0.26973065212E+03 -0.25077124900E+03  0.43155734073E+03  0.00000000000E+00 0. -1.
<mgrwt>
<rscale>  0 0.71667553E+03</rscale>
<asrwt>0</asrwt>
<pdfrwt beam="1">  1        2 0.11238890E+00 0.71667553E+03</pdfrwt>
<pdfrwt beam="2">  1       -2 0.27041766E-01 0.71667553E+03</pdfrwt>
<totfact> 0.48478205E+02</totfact>
</mgrwt>
</event>
<event>
 6    1  0.1588846E-005  0.1047468E+04  0.7818608E-02  0.9257962E-01
         -2   -1    0    0    0  501 -0.00000000000E+00  0.00000000000E+00  0.26193852043E+03  0.26193852043E+03  0.00000000000E+00 0.  1.
          2   -1    0    0  501    0  0.00000000000E+00 -0.00000000000E+00 -0.10471813971E+04  0.10471813971E+04  0.00000000000E+00 0. -1.
         23    2    1    2    0    0 -0.16041385529E+03  0.22484842260E+03 -0.94528659058E+03  0.98989678485E+03  0.10019724661E+03 0.  0.
         11    1    3    3    0    0 -0.11377480977E+03  0.12290258154E+03 -0.40796813549E+03  0.44100765465E+03  0.00000000000E+00 0. -1.
        -11    1    3    3    0    0 -0.46639045514E+02  0.10194584105E+03 -0.53731845509E+03  0.54888913020E+03  0.00000000000E+00 0.  1.
         22    1    1    2    0    0  0.16041385529E+03 -0.22484842260E+03  0.16004371387E+03  0.31922313272E+03  0.00000000000E+00 0.  1.
<mgrwt>
<rscale>  0 0.10474677E+04</rscale>
<asrwt>0</asrwt>
<pdfrwt beam="1">  1        2 0.16110483E+00 0.10474677E+04</pdfrwt>
<pdfrwt beam="2">  1       -2 0.40298233E-01 0.10474677E+04</pdfrwt>
<totfact> 0.13631916E+02</totfact>
</mgrwt>
</event>
<event>
 6    1  0.1588846E-005  0.1150563E+04  0.7818608E-02  0.9157264E-01
          1   -1    0    0  501    0  0.00000000000E+00  0.00000000000E+00  0.11466441040E+04  0.11466441040E+04  0.00000000000E+00 0. -1.
         -1   -1    0    0    0  501 -0.00000000000E+00 -0.00000000000E+00 -0.28862405063E+03  0.28862405063E+03  0.00000000000E+00 0.  1.
         23    2    1    2    0    0 -0.10913252497E+03 -0.42216039494E+03  0.89292613419E+03  0.99783502659E+03  0.90710264562E+02 0.  0.
         13    1    3    3    0    0 -0.33920484293E+02 -0.43857625373E+02  0.16451278990E+03  0.17360457540E+03  0.00000000000E+00 0. -1.
        -13    1    3    3    0    0 -0.75212040678E+02 -0.37830276957E+03  0.72841334429E+03  0.82423045119E+03  0.00000000000E+00 0.  1.
         22    1    1    2    0    0  0.10913252497E+03  0.42216039494E+03 -0.34906080779E+02  0.43743312808E+03  0.00000000000E+00 0.  1.
<mgrwt>
<rscale>  0 0.11505635E+04</rscale>
<asrwt>0</asrwt>
<pdfrwt beam="1">  1        1 0.17640678E+00 0.11505635E+04</pdfrwt>
<pdfrwt beam="2">  1       -1 0.44403701E-01 0.11505635E+04</pdfrwt>
<totfact> 0.58309387E+01</totfact>
</mgrwt>
</event>
<event>
 6    1  0.1588846E-005  0.1021403E+04  0.7818608E-02  0.9285377E-01
         -2   -1    0    0    0  501 -0.00000000000E+00  0.00000000000E+00  0.31225561268E+03  0.31225561268E+03  0.00000000000E+00 0.  1.
          2   -1    0    0  501    0  0.00000000000E+00 -0.00000000000E+00 -0.83526438166E+03  0.83526438166E+03  0.00000000000E+00 0. -1.
         23    2    1    2    0    0 -0.38006625105E+03  0.34466824868E+02 -0.63778611587E+03  0.74900756472E+03  0.92751739691E+02 0.  0.
         13    1    3    3    0    0 -0.25379027901E+03  0.48941864357E+02 -0.49072554481E+03  0.55463174461E+03  0.00000000000E+00 0. -1.
        -13    1    3    3    0    0 -0.12627597204E+03 -0.14475039489E+02 -0.14706057106E+03  0.19437582011E+03  0.00000000000E+00 0.  1.
         22    1    1    2    0    0  0.38006625105E+03 -0.34466824868E+02  0.11477734688E+03  0.39851242962E+03  0.00000000000E+00 0.  1.
<mgrwt>
<rscale>  0 0.10214029E+04</rscale>
<asrwt>0</asrwt>
<pdfrwt beam="1">  1        2 0.12850221E+00 0.10214029E+04</pdfrwt>
<pdfrwt beam="2">  1       -2 0.48039325E-01 0.10214029E+04</pdfrwt>
<totfact> 0.13305157E+02</totfact>
</mgrwt>
</event>
<event>
 6    1  0.1588846E-005  0.1748750E+04  0.7818608E-02  0.8734039E-01
         -2   -1    0    0    0  501 -0.00000000000E+00  0.00000000000E+00  0.18645214495E+04  0.18645214495E+04  0.00000000000E+00 0.  1.
          2   -1    0    0  501    0  0.00000000000E+00 -0.00000000000E+00 -0.41004183546E+03  0.41004183546E+03  0.00000000000E+00 0. -1.
         23    2    1    2    0    0  0.86171577818E+03  0.10261914572E+02  0.90305421210E+03  0.12514653605E+04  0.89438521668E+02 0.  0.
         13    1    3    3    0    0  0.50773471782E+03  0.35813562384E+02  0.48478944740E+03  0.70292102205E+03  0.00000000000E+00 0. -1.
        -13    1    3    3    0    0  0.35398106036E+03 -0.25551647813E+02  0.41826476470E+03  0.54854433840E+03  0.00000000000E+00 0.  1.
         22    1    1    2    0    0 -0.86171577818E+03 -0.10261914572E+02  0.55142540195E+03  0.10230979245E+04  0.00000000000E+00 0. -1.
<mgrwt>
<rscale>  0 0.17487502E+04</rscale>
<asrwt>0</asrwt>
<pdfrwt beam="1">  1        2 0.63083360E-01 0.17487502E+04</pdfrwt>
<pdfrwt beam="2">  1       -2 0.28684945E+00 0.17487502E+04</pdfrwt>
<totfact> 0.28071424E+00</totfact>
</mgrwt>
</event>
<event>
 6    1  0.1588846E-005  0.3251190E+04  0.7818608E-02  0.8175427E-01
         -1   -1    0    0    0  501 -0.00000000000E+00  0.00000000000E+00  0.23215743310E+04  0.23215743310E+04  0.00000000000E+00 0.  1.
          1   -1    0    0  501    0  0.00000000000E+00 -0.00000000000E+00 -0.11382613582E+04  0.11382613582E+04  0.00000000000E+00 0. -1.
         23    2    1    2    0    0  0.15268369348E+04  0.25356591542E+03  0.67326886344E+02  0.15517079042E+04  0.87964832051E+02 0.  0.
         13    1    3    3    0    0  0.59611572165E+03  0.10333330192E+03 -0.16411835672E+02  0.60522811670E+03  0.00000000000E+00 0. -1.
        -13    1    3    3    0    0  0.93072121310E+03  0.15023261349E+03  0.83738722015E+02  0.94647978755E+03  0.00000000000E+00 0.  1.
         22    1    1    2    0    0 -0.15268369348E+04 -0.25356591542E+03  0.11159860864E+04  0.19081277850E+04  0.00000000000E+00 0. -1.
<mgrwt>
<rscale>  0 0.32511895E+04</rscale>
<asrwt>0</asrwt>
<pdfrwt beam="1">  1        1 0.17511713E+00 0.32511895E+04</pdfrwt>
<pdfrwt beam="2">  1       -1 0.35716528E+00 0.32511895E+04</pdfrwt>
<totfact> 0.13759931E-01</totfact>
</mgrwt>
</event>
<event>
 6    1  0.1588846E-005  0.4811698E+03  0.7818608E-02  0.1018814E+00
         -1   -1    0    0    0  501 -0.00000000000E+00  0.00000000000E+00  0.36696281950E+03  0.36696281950E+03  0.00000000000E+00 0.  1.
          1   -1    0    0  501    0  0.00000000000E+00 -0.00000000000E+00 -0.15773010071E+03  0.15773010071E+03  0.00000000000E+00 0. -1.
         23    2    1    2    0    0  0.62575486513E+02  0.37067427176E+02 -0.13234381253E+03  0.17545916980E+03  0.89338400948E+02 0.  0.
         13    1    3    3    0    0  0.45257831507E+02 -0.17663468090E+02 -0.27234502417E+02  0.55695489401E+02  0.00000000000E+00 0. -1.
        -13    1    3    3    0    0  0.17317655005E+02  0.54730895266E+02 -0.10510931011E+03  0.11976368040E+03  0.00000000000E+00 0.  1.
         22    1    1    2    0    0 -0.62575486513E+02 -0.37067427176E+02  0.34157653132E+03  0.34923375040E+03  0.00000000000E+00 0.  1.
<mgrwt>
<rscale>  0 0.48116975E+03</rscale>
<asrwt>0</asrwt>
<pdfrwt beam="1">  1        1 0.24266169E-01 0.48116975E+03</pdfrwt>
<pdfrwt beam="2">  1       -1 0.56455818E-01 0.48116975E+03</pdfrwt>
<totfact> 0.65046526E+02</totfact>
</mgrwt>
</event>
<event>
 6    1  0.1588846E-005  0.4348348E+04  0.7818608E-02  0.7937738E-01
          2   -1    0    0  501    0  0.00000000000E+00  0.00000000000E+00  0.26913953273E+04  0.26913953273E+04  0.00000000000E+00 0. -1.
         -2   -1    0    0    0  501 -0.00000000000E+00 -0.00000000000E+00 -0.17563501214E+04  0.17563501214E+04  0.00000000000E+00 0.  1.
         23    2    1    2    0    0  0.10443341458E+04  0.17283623860E+04  0.12892101302E+04  0.23975495704E+04  0.91163794008E+02 0.  0.
         11    1    3    3    0    0  0.84278403986E+03  0.13215526646E+04  0.10036232290E+04  0.18611947692E+04  0.00000000000E+00 0. -1.
        -11    1    3    3    0    0  0.20155010594E+03  0.40680972141E+03  0.28558690114E+03  0.53635480118E+03  0.00000000000E+00 0.  1.
         22    1    1    2    0    0 -0.10443341458E+04 -0.17283623860E+04 -0.35416492426E+03  0.20501958782E+04  0.00000000000E+00 0.  1.
<mgrwt>
<rscale>  0 0.43483480E+04</rscale>
<asrwt>0</asrwt>
<pdfrwt beam="1">  1        2 0.41406082E+00 0.43483480E+04</pdfrwt>
<pdfrwt beam="2">  1       -2 0.27020771E+00 0.43483480E+04</pdfrwt>
<totfact> 0.99590341E-02</totfact>
</mgrwt>
</event>
<event>
 6    1  0.1588846E-005  0.1417634E+04  0.7818608E-02  0.8941152E-01
          1   -1    0    0  501    0  0.00000000000E+00  0.00000000000E+00  0.23521306068E+03  0.23521306068E+03  0.00000000000E+00 0. -1.
         -1   -1    0    0    0  501 -0.00000000000E+00 -0.00000000000E+00 -0.21360279494E+04  0.21360279494E+04  0.00000000000E+00 0.  1.
         23    2    1    2    0    0  0.65484384898E+03  0.12884338934E+02 -0.51411068607E+03  0.83763903486E+03  0.91339380662E+02 0.  0.
         13    1    3    3    0    0  0.40229102584E+03 -0.32890834250E+02 -0.29155956371E+03  0.49792253980E+03  0.00000000000E+00 0.  1.
        -13    1    3    3    0    0  0.25255282315E+03  0.45775173184E+02 -0.22255112235E+03  0.33971649507E+03  0.00000000000E+00 0. -1.
         22    1    1    2    0    0 -0.65484384898E+03 -0.12884338934E+02 -0.13867042027E+04  0.15336019753E+04  0.00000000000E+00 0.  1.
<mgrwt>
<rscale>  0 0.14176342E+04</rscale>
<asrwt>0</asrwt>
<pdfrwt beam="1">  1        1 0.36186625E-01 0.14176342E+04</pdfrwt>
<pdfrwt beam="2">  1       -1 0.32861969E+00 0.14176342E+04</pdfrwt>
<totfact> 0.25328322E+00</totfact>
</mgrwt>
</event>
<event>
 6    1  0.1588846E-005  0.1797833E+04  0.7818608E-02  0.8707452E-01
          2   -1    0    0  501    0  0.00000000000E+00  0.00000000000E+00  0.93302452767E+03  0.93302452767E+03  0.00000000000E+00 0. -1.
         -2   -1    0    0    0  501 -0.00000000000E+00 -0.00000000000E+00 -0.86605576804E+03  0.86605576804E+03  0.00000000000E+00 0.  1.
         23    2    1    2    0    0 -0.62177647753E+02 -0.54266417678E+03  0.74523859209E+03  0.92821840410E+03  0.88647492552E+02 0.  0.
         13    1    3    3    0    0  0.22527344887E+02 -0.97549565939E+02  0.14308250866E+03  0.17463104926E+03  0.00000000000E+00 0. -1.
        -13    1    3    3    0    0 -0.84704992641E+02 -0.44511461084E+03  0.60215608343E+03  0.75358735484E+03  0.00000000000E+00 0.  1.
         22    1    1    2    0    0  0.62177647753E+02  0.54266417678E+03 -0.67826983246E+03  0.87086189161E+03  0.00000000000E+00 0.  1.
<mgrwt>
<rscale>  0 0.17978334E+04</rscale>
<asrwt>0</asrwt>
<pdfrwt beam="1">  1        2 0.14354223E+00 0.17978334E+04</pdfrwt>
<pdfrwt beam="2">  1       -2 0.13323935E+00 0.17978334E+04</pdfrwt>
<totfact> 0.10731917E+01</totfact>
</mgrwt>
</event>
<event>
 6    1  0.2536357E-005  0.4702059E+04  0.7818608E-02  0.7876187E-01
          2   -1    0    0  501    0  0.00000000000E+00  0.00000000000E+00  0.33980089767E+04  0.33980089767E+04  0.00000000000E+00 0.  1.
         -2   -1    0    0    0  501 -0.00000000000E+00 -0.00000000000E+00 -0.16266406008E+04  0.16266406008E+04  0.00000000000E+00 0. -1.
         23    2    1    2    0    0 -0.14798865546E+04 -0.58205250080E+03 -0.96306949216E+03  0.18614234106E+04  0.92438838411E+02 0.  0.
         11    1    3    3    0    0 -0.91247097645E+03 -0.31970974874E+03 -0.61588850274E+03  0.11463578212E+04  0.00000000000E+00 0.  1.
        -11    1    3    3    0    0 -0.56741557812E+03 -0.26234275206E+03 -0.34718098942E+03  0.71506558949E+03  0.00000000000E+00 0. -1.
         22    1    1    2    0    0  0.14798865546E+04  0.58205250080E+03  0.27344378681E+04  0.31632261668E+04  0.00000000000E+00 0.  1.
<mgrwt>
<rscale>  0 0.47020589E+04</rscale>
<asrwt>0</asrwt>
<pdfrwt beam="1">  1        2 0.52277061E+00 0.47020589E+04</pdfrwt>
<pdfrwt beam="2">  1       -2 0.25025240E+00 0.47020589E+04</pdfrwt>
<totfact> 0.45579509E-02</totfact>
</mgrwt>
</event>
<event>
 6    1  0.1588846E-005  0.2303741E+04  0.7818608E-02  0.8476448E-01
         -1   -1    0    0    0  501 -0.00000000000E+00  0.00000000000E+00  0.77497032827E+03  0.77497032827E+03  0.00000000000E+00 0.  1.
          1   -1    0    0  501    0  0.00000000000E+00 -0.00000000000E+00 -0.17120725643E+04  0.17120725643E+04  0.00000000000E+00 0. -1.
         23    2    1    2    0    0 -0.71054387409E+03  0.20195303134E+02  0.50664332583E+03  0.87779409432E+03  0.92490892157E+02 0.  0.
         13    1    3    3    0    0 -0.46896602894E+03  0.10650149616E+02  0.27937960998E+03  0.54598125284E+03  0.00000000000E+00 0. -1.
        -13    1    3    3    0    0 -0.24157784515E+03  0.95451535171E+01  0.22726371585E+03  0.33181284147E+03  0.00000000000E+00 0.  1.
         22    1    1    2    0    0  0.71054387409E+03 -0.20195303134E+02 -0.14437455619E+04  0.16092487983E+04  0.00000000000E+00 0. -1.
<mgrwt>
<rscale>  0 0.23037408E+04</rscale>
<asrwt>0</asrwt>
<pdfrwt beam="1">  1        1 0.26339578E+00 0.23037408E+04</pdfrwt>
<pdfrwt beam="2">  1       -1 0.11922621E+00 0.23037408E+04</pdfrwt>
<totfact> 0.26575999E+00</totfact>
</mgrwt>
</event>
<event>
 6    1  0.1588846E-005  0.3052956E+04  0.7818608E-02  0.8228769E-01
          2   -1    0    0  501    0  0.00000000000E+00  0.00000000000E+00  0.14081124107E+04  0.14081124107E+04  0.00000000000E+00 0. -1.
         -2   -1    0    0    0  501 -0.00000000000E+00 -0.00000000000E+00 -0.16547929124E+04  0.16547929124E+04  0.00000000000E+00 0.  1.
         23    2    1    2    0    0  0.89885098373E+03 -0.44446463063E+03  0.10294401104E+04  0.14399556272E+04  0.90792997721E+02 0.  0.
         11    1    3    3    0    0  0.61549825926E+03 -0.26641562899E+03  0.64913057669E+03  0.93337339801E+03  0.00000000000E+00 0. -1.
        -11    1    3    3    0    0  0.28335272447E+03 -0.17804900164E+03  0.38030953373E+03  0.50658222915E+03  0.00000000000E+00 0.  1.
         22    1    1    2    0    0 -0.89885098373E+03  0.44446463063E+03 -0.12761206122E+04  0.16229496960E+04  0.00000000000E+00 0.  1.
<mgrwt>
<rscale>  0 0.30529556E+04</rscale>
<asrwt>0</asrwt>
<pdfrwt beam="1">  1        2 0.21663268E+00 0.30529556E+04</pdfrwt>
<pdfrwt beam="2">  1       -2 0.25458353E+00 0.30529556E+04</pdfrwt>
<totfact> 0.73488402E-01</totfact>
</mgrwt>
</event>
<event>
 6    1  0.1588846E-005  0.2133994E+04  0.7818608E-02  0.8546415E-01
          2   -1    0    0  501    0  0.00000000000E+00  0.00000000000E+00  0.45210587680E+04  0.45210587680E+04  0.00000000000E+00 0. -1.
         -2   -1    0    0    0  501 -0.00000000000E+00 -0.00000000000E+00 -0.25181763652E+03  0.25181763652E+03  0.00000000000E+00 0.  1.
         23    2    1    2    0    0  0.41597017233E+03 -0.66027510181E+03  0.51711772187E+03  0.94045882872E+03  0.89764558113E+02 0.  0.
         11    1    3    3    0    0  0.28481867379E+03 -0.46850270654E+03  0.31383986680E+03  0.63175305695E+03  0.00000000000E+00 0. -1.
        -11    1    3    3    0    0  0.13115149854E+03 -0.19177239528E+03  0.20327785507E+03  0.30870577177E+03  0.00000000000E+00 0.  1.
         22    1    1    2    0    0 -0.41597017233E+03  0.66027510181E+03  0.37521234097E+04  0.38324175758E+04  0.00000000000E+00 0. -1.
<mgrwt>
<rscale>  0 0.21339938E+04</rscale>
<asrwt>0</asrwt>
<pdfrwt beam="1">  1        2 0.69554745E+00 0.21339938E+04</pdfrwt>
<pdfrwt beam="2">  1       -2 0.38741178E-01 0.21339938E+04</pdfrwt>
<totfact> 0.68810779E-01</totfact>
</mgrwt>
</event>
<event>
 6    1  0.1588846E-005  0.3996440E+04  0.7818608E-02  0.8005265E-01
         -2   -1    0    0    0  501 -0.00000000000E+00  0.00000000000E+00  0.13945238933E+04  0.13945238933E+04  0.00000000000E+00 0.  1.
          2   -1    0    0  501    0  0.00000000000E+00 -0.00000000000E+00 -0.28632587084E+04  0.28632587084E+04  0.00000000000E+00 0. -1.
         23    2    1    2    0    0  0.14095148736E+04  0.24076981314E+03  0.75091888922E+03  0.16174104974E+04  0.86227937410E+02 0.  0.
         13    1    3    3    0    0  0.11277001631E+04  0.16563463573E+03  0.62277593129E+03  0.12988426968E+04  0.00000000000E+00 0. -1.
        -13    1    3    3    0    0  0.28181471046E+03  0.75135177408E+02  0.12814295793E+03  0.31856780061E+03  0.00000000000E+00 0.  1.
         22    1    1    2    0    0 -0.14095148736E+04 -0.24076981314E+03 -0.22196537043E+04  0.26403721043E+04  0.00000000000E+00 0. -1.
<mgrwt>
<rscale>  0 0.39964398E+04</rscale>
<asrwt>0</asrwt>
<pdfrwt beam="1">  1        2 0.44050134E+00 0.39964398E+04</pdfrwt>
<pdfrwt beam="2">  1       -2 0.21454214E+00 0.39964398E+04</pdfrwt>
<totfact> 0.17873010E-01</totfact>
</mgrwt>
</event>
<event>
 6    1  0.1588846E-005  0.1551923E+04  0.7818608E-02  0.8850640E-01
         -2   -1    0    0    0  501 -0.00000000000E+00  0.00000000000E+00  0.53563802039E+03  0.53563802039E+03  0.00000000000E+00 0.  1.
          2   -1    0    0  501    0  0.00000000000E+00 -0.00000000000E+00 -0.11241101685E+04  0.11241101685E+04  0.00000000000E+00 0. -1.
         23    2    1    2    0    0 -0.49184022455E+03 -0.57118226640E+03 -0.47818795895E+03  0.89796174223E+03  0.97547826713E+02 0.  0.
         13    1    3    3    0    0 -0.40749044768E+03 -0.44279555110E+03 -0.33906884102E+03  0.69071270726E+03  0.00000000000E+00 0.  1.
        -13    1    3    3    0    0 -0.84349776877E+02 -0.12838671529E+03 -0.13911911792E+03  0.20724903497E+03  0.00000000000E+00 0. -1.
         22    1    1    2    0    0  0.49184022455E+03  0.57118226640E+03 -0.11028418917E+03  0.76178644666E+03  0.00000000000E+00 0.  1.
<mgrwt>
<rscale>  0 0.15519229E+04</rscale>
<asrwt>0</asrwt>
<pdfrwt beam="1">  1        2 0.17294003E+00 0.15519229E+04</pdfrwt>
<pdfrwt beam="2">  1       -2 0.82405850E-01 0.15519229E+04</pdfrwt>
<totfact> 0.26201887E+01</totfact>
</mgrwt>
</event>
<event>
 6    1  0.1588846E-005  0.7388382E+03  0.7818608E-02  0.9653026E-01
         -2   -1    0    0    0  501 -0.00000000000E+00  0.00000000000E+00  0.16489101493E+03  0.16489101493E+03  0.00000000000E+00 0.  1.
          2   -1    0    0  501    0  0.00000000000E+00 -0.00000000000E+00 -0.82764046368E+03  0.82764046368E+03  0.00000000000E+00 0. -1.
         23    2    1    2    0    0 -0.11433542157E+03  0.33133366221E+03 -0.46648568867E+03  0.59081759056E+03  0.92746661652E+02 0.  0.
         11    1    3    3    0    0 -0.74196347666E+02  0.84326704457E+02 -0.14389767718E+03  0.18254487829E+03  0.00000000000E+00 0. -1.
        -11    1    3    3    0    0 -0.40139073902E+02  0.24700695775E+03 -0.32258801149E+03  0.40827271227E+03  0.00000000000E+00 0.  1.
         22    1    1    2    0    0  0.11433542157E+03 -0.33133366221E+03 -0.19626376008E+03  0.40171388805E+03  0.00000000000E+00 0.  1.
<mgrwt>
<rscale>  0 0.73883821E+03</rscale>
<asrwt>0</asrwt>
<pdfrwt beam="1">  1        2 0.12732930E+00 0.73883821E+03</pdfrwt>
<pdfrwt beam="2">  1       -2 0.25367849E-01 0.73883821E+03</pdfrwt>
<totfact> 0.46196220E+02</totfact>
</mgrwt>
</event>
<event>
 6    1  0.1588846E-005  0.1336705E+04  0.7818608E-02  0.9000953E-01
         -3   -1    0    0    0  501 -0.00000000000E+00  0.00000000000E+00  0.11638966471E+04  0.11638966471E+04  0.00000000000E+00 0.  1.
          3   -1    0    0  501    0  0.00000000000E+00 -0.00000000000E+00 -0.38379288583E+03  0.38379288583E+03  0.00000000000E+00 0. -1.
         23    2    1    2    0    0 -0.25958289042E+03  0.56936911270E+03  0.13071609574E+03  0.64587535936E+03  0.92216151722E+02 0.  0.
         13    1    3    3    0    0 -0.13603709038E+03  0.36748335133E+03  0.46285534937E+02  0.39457883142E+03  0.00000000000E+00 0.  1.
        -13    1    3    3    0    0 -0.12354580004E+03  0.20188576138E+03  0.84430560806E+02  0.25129652794E+03  0.00000000000E+00 0. -1.
         22    1    1    2    0    0  0.25958289042E+03 -0.56936911270E+03  0.64938766552E+03  0.90181417355E+03  0.00000000000E+00 0.  1.
<mgrwt>
<rscale>  0 0.13367053E+04</rscale>
<asrwt>0</asrwt>
<pdfrwt beam="1">  1        3 0.59045060E-01 0.13367053E+04</pdfrwt>
<pdfrwt beam="2">  1       -3 0.17906102E+00 0.13367053E+04</pdfrwt>
<totfact> 0.14435716E+00</totfact>
</mgrwt>
</event>
<event>
 6    1  0.1588846E-005  0.4608048E+04  0.7818608E-02  0.7891989E-01
         -2   -1    0    0    0  501 -0.00000000000E+00  0.00000000000E+00  0.14339680128E+04  0.14339680128E+04  0.00000000000E+00 0.  1.
          2   -1    0    0  501    0  0.00000000000E+00 -0.00000000000E+00 -0.37019833919E+04  0.37019833919E+04  0.00000000000E+00 0. -1.
         23    2    1    2    0    0 -0.21870740605E+04  0.60735977927E+03 -0.15691630455E+04  0.27609622612E+04  0.91984221333E+02 0.  0.
         13    1    3    3    0    0 -0.11992007197E+04  0.35029411863E+03 -0.91526317554E+03  0.15487075309E+04  0.00000000000E+00 0.  1.
        -13    1    3    3    0    0 -0.98787334075E+03  0.25706566063E+03 -0.65389986997E+03  0.12122547303E+04  0.00000000000E+00 0. -1.
         22    1    1    2    0    0  0.21870740605E+04 -0.60735977927E+03 -0.69885233361E+03  0.23749891435E+04  0.00000000000E+00 0. -1.
<mgrwt>
<rscale>  0 0.46080476E+04</rscale>
<asrwt>0</asrwt>
<pdfrwt beam="1">  1        2 0.56953591E+00 0.46080476E+04</pdfrwt>
<pdfrwt beam="2">  1       -2 0.22061046E+00 0.46080476E+04</pdfrwt>
<totfact> 0.42685760E-02</totfact>
</mgrwt>
</event>
<event>
 6    1  0.3032211E-005  0.4345310E+04  0.7818608E-02  0.7938293E-01
         -2   -1    0    0    0  501 -0.00000000000E+00  0.00000000000E+00  0.16190166997E+04  0.16190166997E+04  0.00000000000E+00 0.  1.
          2   -1    0    0  501    0  0.00000000000E+00 -0.00000000000E+00 -0.29156150902E+04  0.29156150902E+04  0.00000000000E+00 0. -1.
         23    2    1    2    0    0  0.78611292421E+03  0.33976842168E+03  0.14340169695E+04  0.16728707317E+04  0.93143471086E+02 0.  0.
         13    1    3    3    0    0  0.41366547472E+03  0.13155955121E+03  0.69013755617E+03  0.81530171527E+03  0.00000000000E+00 0. -1.
        -13    1    3    3    0    0  0.37244744949E+03  0.20820887047E+03  0.74387941328E+03  0.85756901639E+03  0.00000000000E+00 0.  1.
         22    1    1    2    0    0 -0.78611292421E+03 -0.33976842168E+03 -0.27306153600E+04  0.28617610582E+04  0.00000000000E+00 0. -1.
<mgrwt>
<rscale>  0 0.43453099E+04</rscale>
<asrwt>0</asrwt>
<pdfrwt beam="1">  1        2 0.44855616E+00 0.43453099E+04</pdfrwt>
<pdfrwt beam="2">  1       -2 0.24907949E+00 0.43453099E+04</pdfrwt>
<totfact> 0.98113586E-02</totfact>
</mgrwt>
</event>
<event>
 6    1  0.1588846E-005  0.3496517E+04  0.7818608E-02  0.8114616E-01
         -2   -1    0    0    0  501 -0.00000000000E+00  0.00000000000E+00  0.17331379993E+04  0.17331379993E+04  0.00000000000E+00 0. -1.
          2   -1    0    0  501    0  0.00000000000E+00 -0.00000000000E+00 -0.17635108925E+04  0.17635108925E+04  0.00000000000E+00 0.  1.
         23    2    1    2    0    0  0.11410182181E+04  0.27694108857E+02 -0.13379294846E+04  0.17610239965E+04  0.91981914635E+02 0.  0.
         13    1    3    3    0    0  0.69848190967E+03 -0.27882969789E+02 -0.81902858666E+03  0.10767832948E+04  0.00000000000E+00 0.  1.
        -13    1    3    3    0    0  0.44253630846E+03  0.55577078647E+02 -0.51890089792E+03  0.68424070168E+03  0.00000000000E+00 0. -1.
         22    1    1    2    0    0 -0.11410182181E+04 -0.27694108857E+02  0.13075565914E+04  0.17356248954E+04  0.00000000000E+00 0. -1.
<mgrwt>
<rscale>  0 0.34965170E+04</rscale>
<asrwt>0</asrwt>
<pdfrwt beam="1">  1        2 0.27130937E+00 0.34965170E+04</pdfrwt>
<pdfrwt beam="2">  1       -2 0.26663661E+00 0.34965170E+04</pdfrwt>
<totfact> 0.37763182E-01</totfact>
</mgrwt>
</event>
<event>
 6    1  0.1588846E-005  0.2276480E+04  0.7818608E-02  0.8487253E-01
          1   -1    0    0  501    0  0.00000000000E+00  0.00000000000E+00  0.20207162021E+04  0.20207162021E+04  0.00000000000E+00 0. -1.
         -1   -1    0    0    0  501 -0.00000000000E+00 -0.00000000000E+00 -0.64115428233E+03  0.64115428233E+03  0.00000000000E+00 0.  1.
         23    2    1    2    0    0  0.40920197084E+03  0.19884318639E+03  0.19085019011E+04  0.19641869103E+04  0.93090527801E+02 0.  0.
         13    1    3    3    0    0  0.28386302626E+03  0.13023891633E+03  0.11145929408E+04  0.11575222748E+04  0.00000000000E+00 0.  1.
        -13    1    3    3    0    0  0.12533894458E+03  0.68604270057E+02  0.79390896028E+03  0.80666463547E+03  0.00000000000E+00 0. -1.
         22    1    1    2    0    0 -0.40920197084E+03 -0.19884318639E+03 -0.52893998135E+03  0.69768357411E+03  0.00000000000E+00 0.  1.
<mgrwt>
<rscale>  0 0.22764805E+04</rscale>
<asrwt>0</asrwt>
<pdfrwt beam="1">  1        1 0.31087941E+00 0.22764805E+04</pdfrwt>
<pdfrwt beam="2">  1       -1 0.98639122E-01 0.22764805E+04</pdfrwt>
<totfact> 0.25692214E+00</totfact>
</mgrwt>
</event>
<event>
 6    1  0.1588846E-005  0.2510001E+04  0.7818608E-02  0.8399431E-01
          1   -1    0    0  501    0  0.00000000000E+00  0.00000000000E+00  0.19880071646E+04  0.19880071646E+04  0.00000000000E+00 0. -1.
         -1   -1    0    0    0  501 -0.00000000000E+00 -0.00000000000E+00 -0.79226377633E+03  0.79226377633E+03  0.00000000000E+00 0.  1.
         23    2    1    2    0    0  0.97364454077E+03 -0.76651832886E+03  0.39036901895E+03  0.13023799047E+04  0.90947264264E+02 0.  0.
         11    1    3    3    0    0  0.49142287061E+03 -0.33379542644E+03  0.16785764825E+03  0.61732650563E+03  0.00000000000E+00 0. -1.
        -11    1    3    3    0    0  0.48222167017E+03 -0.43272290242E+03  0.22251137070E+03  0.68505339905E+03  0.00000000000E+00 0.  1.
         22    1    1    2    0    0 -0.97364454077E+03  0.76651832886E+03  0.80537436929E+03  0.14778910362E+04  0.00000000000E+00 0. -1.
<mgrwt>
<rscale>  0 0.25100008E+04</rscale>
<asrwt>0</asrwt>
<pdfrwt beam="1">  1        1 0.30584725E+00 0.25100008E+04</pdfrwt>
<pdfrwt beam="2">  1       -1 0.12188674E+00 0.25100008E+04</pdfrwt>
<totfact> 0.16054269E+00</totfact>
</mgrwt>
</event>
<event>
 6    1  0.1588846E-005  0.3007912E+04  0.7818608E-02  0.8241475E-01
         -2   -1    0    0    0  501 -0.00000000000E+00  0.00000000000E+00  0.23201649928E+04  0.23201649928E+04  0.00000000000E+00 0. -1.
          2   -1    0    0  501    0  0.00000000000E+00 -0.00000000000E+00 -0.97488069857E+03  0.97488069857E+03  0.00000000000E+00 0.  1.
         23    2    1    2    0    0 -0.52524064267E+03  0.11637339602E+04 -0.19451100531E+03  0.12947647043E+04  0.91796760850E+02 0.  0.
         11    1    3    3    0    0 -0.16639331478E+03  0.29047267838E+03 -0.26370293426E+02  0.33579235320E+03  0.00000000000E+00 0.  1.
        -11    1    3    3    0    0 -0.35884732789E+03  0.87326128185E+03 -0.16814071189E+03  0.95897235106E+03  0.00000000000E+00 0. -1.
         22    1    1    2    0    0  0.52524064267E+03 -0.11637339602E+04  0.15397952996E+04  0.20002809871E+04  0.00000000000E+00 0. -1.
<mgrwt>
<rscale>  0 0.30079123E+04</rscale>
<asrwt>0</asrwt>
<pdfrwt beam="1">  1        2 0.14998165E+00 0.30079123E+04</pdfrwt>
<pdfrwt beam="2">  1       -2 0.35694846E+00 0.30079123E+04</pdfrwt>
<totfact> 0.31444867E-01</totfact>
</mgrwt>
</event>
<event>
 6    1  0.1588846E-005  0.1373966E+04  0.7818608E-02  0.8972882E-01
         -1   -1    0    0    0  501 -0.00000000000E+00  0.00000000000E+00  0.36707588779E+03  0.36707588779E+03  0.00000000000E+00 0.  1.
          1   -1    0    0  501    0  0.00000000000E+00 -0.00000000000E+00 -0.12856896579E+04  0.12856896579E+04  0.00000000000E+00 0. -1.
         23    2    1    2    0    0  0.42328363955E+03 -0.98170527378E+02  0.17445118368E+03  0.47650133850E+03  0.88395803927E+02 0.  0.
         13    1    3    3    0    0  0.29764262402E+03 -0.10972008481E+03  0.12245882660E+03  0.34003792855E+03  0.00000000000E+00 0.  1.
        -13    1    3    3    0    0  0.12564101553E+03  0.11549557428E+02  0.51992357080E+02  0.13646340995E+03  0.00000000000E+00 0. -1.
         22    1    1    2    0    0 -0.42328363955E+03  0.98170527378E+02 -0.10930649538E+04  0.11762642072E+04  0.00000000000E+00 0. -1.
<mgrwt>
<rscale>  0 0.13739660E+04</rscale>
<asrwt>0</asrwt>
<pdfrwt beam="1">  1        1 0.19779841E+00 0.13739660E+04</pdfrwt>
<pdfrwt beam="2">  1       -1 0.56473213E-01 0.13739660E+04</pdfrwt>
<totfact> 0.28712781E+01</totfact>
</mgrwt>
</event>
<event>
 6    1  0.1588846E-005  0.1341570E+04  0.7818608E-02  0.8997234E-01
          1   -1    0    0  501    0  0.00000000000E+00  0.00000000000E+00  0.10165904897E+04  0.10165904897E+04  0.00000000000E+00 0. -1.
         -1   -1    0    0    0  501 -0.00000000000E+00 -0.00000000000E+00 -0.44260972460E+03  0.44260972460E+03  0.00000000000E+00 0.  1.
         23    2    1    2    0    0  0.64204233185E+02 -0.28708640149E+03  0.94031372143E+03  0.98936979774E+03  0.90121676010E+02 0.  0.
         11    1    3    3    0    0  0.99473329665E+01 -0.39380561681E+02  0.54472157033E+02  0.67948465496E+02  0.00000000000E+00 0.  1.
        -11    1    3    3    0    0  0.54256900218E+02 -0.24770583981E+03  0.88584156440E+03  0.92142133225E+03  0.00000000000E+00 0. -1.
         22    1    1    2    0    0 -0.64204233185E+02  0.28708640149E+03 -0.36633295630E+03  0.46983041659E+03  0.00000000000E+00 0.  1.
<mgrwt>
<rscale>  0 0.13415705E+04</rscale>
<asrwt>0</asrwt>
<pdfrwt beam="1">  1        1 0.15639854E+00 0.13415705E+04</pdfrwt>
<pdfrwt beam="2">  1       -1 0.68093804E-01 0.13415705E+04</pdfrwt>
<totfact> 0.31412214E+01</totfact>
</mgrwt>
</event>
<event>
 6    1  0.1588846E-005  0.1956530E+04  0.7818608E-02  0.8627218E-01
         -2   -1    0    0    0  501 -0.00000000000E+00  0.00000000000E+00  0.11730327885E+04  0.11730327885E+04  0.00000000000E+00 0.  1.
          2   -1    0    0  501    0  0.00000000000E+00 -0.00000000000E+00 -0.81583604946E+03  0.81583604946E+03  0.00000000000E+00 0. -1.
         23    2    1    2    0    0  0.30685207473E+03 -0.24736312590E+03 -0.72902952598E+03  0.83334548872E+03  0.87372432674E+02 0.  0.
         11    1    3    3    0    0  0.17785695248E+03 -0.18503969407E+03 -0.41127342126E+03  0.48478718110E+03  0.00000000000E+00 0.  1.
        -11    1    3    3    0    0  0.12899512225E+03 -0.62323431834E+02 -0.31775610472E+03  0.34855830761E+03  0.00000000000E+00 0. -1.
         22    1    1    2    0    0 -0.30685207473E+03  0.24736312590E+03  0.10862262650E+04  0.11555233492E+04  0.00000000000E+00 0.  1.
<mgrwt>
<rscale>  0 0.19565300E+04</rscale>
<asrwt>0</asrwt>
<pdfrwt beam="1">  1        2 0.12551324E+00 0.19565300E+04</pdfrwt>
<pdfrwt beam="2">  1       -2 0.18046658E+00 0.19565300E+04</pdfrwt>
<totfact> 0.56277866E+00</totfact>
</mgrwt>
</event>
<event>
 6    1  0.1588846E-005  0.1998011E+04  0.7818608E-02  0.8607551E-01
          1   -1    0    0  501    0  0.00000000000E+00  0.00000000000E+00  0.15831654054E+04  0.15831654054E+04  0.00000000000E+00 0. -1.
         -1   -1    0    0    0  501 -0.00000000000E+00 -0.00000000000E+00 -0.63038991536E+03  0.63038991536E+03  0.00000000000E+00 0.  1.
         23    2    1    2    0    0  0.91588826067E+01 -0.86692158132E+03  0.10227351089E+04  0.13437672652E+04  0.89924672940E+02 0.  0.
         13    1    3    3    0    0  0.92346530192E+01 -0.52126129318E+03  0.68154354873E+03  0.85807938060E+03  0.00000000000E+00 0. -1.
        -13    1    3    3    0    0 -0.75770412491E-01 -0.34566028814E+03  0.34119156015E+03  0.48568788461E+03  0.00000000000E+00 0.  1.
         22    1    1    2    0    0 -0.91588826067E+01  0.86692158132E+03 -0.69959618846E+02  0.86978805554E+03  0.00000000000E+00 0. -1.
<mgrwt>
<rscale>  0 0.19980105E+04</rscale>
<asrwt>0</asrwt>
<pdfrwt beam="1">  1        1 0.24356391E+00 0.19980105E+04</pdfrwt>
<pdfrwt beam="2">  1       -1 0.96983064E-01 0.19980105E+04</pdfrwt>
<totfact> 0.54336599E+00</totfact>
</mgrwt>
</event>
<event>
 6    1  0.1588846E-005  0.1229335E+04  0.7818608E-02  0.9087560E-01
          1   -1    0    0  501    0  0.00000000000E+00  0.00000000000E+00  0.14109072775E+04  0.14109072775E+04  0.00000000000E+00 0. -1.
         -1   -1    0    0    0  501 -0.00000000000E+00 -0.00000000000E+00 -0.26778254068E+03  0.26778254068E+03  0.00000000000E+00 0.  1.
         23    2    1    2    0    0 -0.42550055422E+03  0.17248347983E+03  0.23445761873E+02  0.46853186180E+03  0.90394299105E+02 0.  0.
         13    1    3    3    0    0 -0.37742753704E+03  0.11836220426E+03  0.19081101525E+02  0.39601167350E+03  0.00000000000E+00 0.  1.
        -13    1    3    3    0    0 -0.48073017181E+02  0.54121275571E+02  0.43646603481E+01  0.72520188295E+02  0.00000000000E+00 0. -1.
         22    1    1    2    0    0  0.42550055422E+03 -0.17248347983E+03  0.11196789750E+04  0.12101579564E+04  0.00000000000E+00 0. -1.
<mgrwt>
<rscale>  0 0.12293353E+04</rscale>
<asrwt>0</asrwt>
<pdfrwt beam="1">  1        1 0.21706265E+00 0.12293353E+04</pdfrwt>
<pdfrwt beam="2">  1       -1 0.41197315E-01 0.12293353E+04</pdfrwt>
<totfact> 0.42999670E+01</totfact>
</mgrwt>
</event>
<event>
 6    1  0.1588846E-005  0.2025908E+04  0.7818608E-02  0.8594603E-01
          3   -1    0    0  501    0  0.00000000000E+00  0.00000000000E+00  0.17755045429E+04  0.17755045429E+04  0.00000000000E+00 0. -1.
         -3   -1    0    0    0  501 -0.00000000000E+00 -0.00000000000E+00 -0.57790682708E+03  0.57790682708E+03  0.00000000000E+00 0.  1.
         23    2    1    2    0    0  0.42428516382E+03  0.31994161070E+03  0.15990004087E+04  0.16874499174E+04  0.91128383270E+02 0.  0.
         11    1    3    3    0    0  0.27859211729E+03  0.15540329689E+03  0.91555513073E+03  0.96953852420E+03  0.00000000000E+00 0. -1.
        -11    1    3    3    0    0  0.14569304654E+03  0.16453831381E+03  0.68344527792E+03  0.71791139316E+03  0.00000000000E+00 0.  1.
         22    1    1    2    0    0 -0.42428516382E+03 -0.31994161070E+03 -0.40140269286E+03  0.66596145259E+03  0.00000000000E+00 0.  1.
<mgrwt>
<rscale>  0 0.20259084E+04</rscale>
<asrwt>0</asrwt>
<pdfrwt beam="1">  1        3 0.27315454E+00 0.20259084E+04</pdfrwt>
<pdfrwt beam="2">  1       -3 0.88908744E-01 0.20259084E+04</pdfrwt>
<totfact> 0.15159628E-01</totfact>
</mgrwt>
</event>
<event>
 6    1  0.1588846E-005  0.2807888E+04  0.7818608E-02  0.8300824E-01
         -2   -1    0    0    0  501 -0.00000000000E+00  0.00000000000E+00  0.14170344856E+04  0.14170344856E+04  0.00000000000E+00 0. -1.
          2   -1    0    0  501    0  0.00000000000E+00 -0.00000000000E+00 -0.13909747228E+04  0.13909747228E+04  0.00000000000E+00 0.  1.
         23    2    1    2    0    0  0.11860336730E+04 -0.64643393300E+03  0.39038341226E+03  0.14089793928E+04  0.90945135233E+02 0.  0.
         13    1    3    3    0    0  0.49146648723E+03 -0.22177088150E+03  0.17487007021E+03  0.56683434389E+03  0.00000000000E+00 0.  1.
        -13    1    3    3    0    0  0.69456718576E+03 -0.42466305150E+03  0.21551334205E+03  0.84214504893E+03  0.00000000000E+00 0. -1.
         22    1    1    2    0    0 -0.11860336730E+04  0.64643393300E+03 -0.36432364948E+03  0.13990298155E+04  0.00000000000E+00 0.  1.
<mgrwt>
<rscale>  0 0.28078883E+04</rscale>
<asrwt>0</asrwt>
<pdfrwt beam="1">  1        2 0.21399611E+00 0.28078883E+04</pdfrwt>
<pdfrwt beam="2">  1       -2 0.21800530E+00 0.28078883E+04</pdfrwt>
<totfact> 0.12959315E+00</totfact>
</mgrwt>
</event>
<event>
 6    1  0.1588846E-005  0.1339658E+04  0.7818608E-02  0.8998694E-01
         -2   -1    0    0    0  501 -0.00000000000E+00  0.00000000000E+00  0.15455581517E+03  0.15455581517E+03  0.00000000000E+00 0.  1.
          2   -1    0    0  501    0  0.00000000000E+00 -0.00000000000E+00 -0.29029688813E+04  0.29029688813E+04  0.00000000000E+00 0. -1.
         23    2    1    2    0    0  0.16822688383E+03  0.52287501316E+03 -0.51734959708E+03  0.75984265434E+03  0.89508043897E+02 0.  0.
         11    1    3    3    0    0  0.80659808974E+02  0.24837432324E+03 -0.18526904166E+03  0.32018811194E+03  0.00000000000E+00 0. -1.
        -11    1    3    3    0    0  0.87567074856E+02  0.27450068992E+03 -0.33208055542E+03  0.43965454240E+03  0.00000000000E+00 0.  1.
         22    1    1    2    0    0 -0.16822688383E+03 -0.52287501316E+03 -0.22310634691E+04  0.22976820422E+04  0.00000000000E+00 0. -1.
<mgrwt>
<rscale>  0 0.13396578E+04</rscale>
<asrwt>0</asrwt>
<pdfrwt beam="1">  1        2 0.44661060E+00 0.13396578E+04</pdfrwt>
<pdfrwt beam="2">  1       -2 0.23777818E-01 0.13396578E+04</pdfrwt>
<totfact> 0.30997200E+01</totfact>
</mgrwt>
</event>
<event>
 6    1  0.1588846E-005  0.1618539E+04  0.7818608E-02  0.8809239E-01
         -2   -1    0    0    0  501 -0.00000000000E+00  0.00000000000E+00  0.46742918047E+03  0.46742918047E+03  0.00000000000E+00 0.  1.
          2   -1    0    0  501    0  0.00000000000E+00 -0.00000000000E+00 -0.14011044754E+04  0.14011044754E+04  0.00000000000E+00 0. -1.
         23    2    1    2    0    0  0.36515057307E+03  0.42826717362E+02  0.36083165925E+03  0.52283037387E+03  0.89347886353E+02 0.  0.
         13    1    3    3    0    0  0.19427431705E+02  0.14340771230E+02  0.56182307267E+02  0.61151733189E+02  0.00000000000E+00 0.  1.
        -13    1    3    3    0    0  0.34572314136E+03  0.28485946132E+02  0.30464935198E+03  0.46167864069E+03  0.00000000000E+00 0. -1.
         22    1    1    2    0    0 -0.36515057307E+03 -0.42826717362E+02 -0.12945069542E+04  0.13457032820E+04  0.00000000000E+00 0. -1.
<mgrwt>
<rscale>  0 0.16185390E+04</rscale>
<asrwt>0</asrwt>
<pdfrwt beam="1">  1        2 0.21555453E+00 0.16185390E+04</pdfrwt>
<pdfrwt beam="2">  1       -2 0.71912184E-01 0.16185390E+04</pdfrwt>
<totfact> 0.24244462E+01</totfact>
</mgrwt>
</event>
<event>
 6    1  0.1588846E-005  0.3890704E+04  0.7818608E-02  0.8026965E-01
          2   -1    0    0  501    0  0.00000000000E+00  0.00000000000E+00  0.31944055226E+04  0.31944055226E+04  0.00000000000E+00 0. -1.
         -2   -1    0    0    0  501 -0.00000000000E+00 -0.00000000000E+00 -0.11846942342E+04  0.11846942342E+04  0.00000000000E+00 0.  1.
         23    2    1    2    0    0 -0.11210593841E+04  0.12163752345E+04 -0.14438577381E+03  0.16631327086E+04  0.93916456968E+02 0.  0.
         11    1    3    3    0    0 -0.50494380160E+03  0.56817433302E+03 -0.21449216267E+02  0.76042776406E+03  0.00000000000E+00 0.  1.
        -11    1    3    3    0    0 -0.61611558252E+03  0.64820090147E+03 -0.12293655754E+03  0.90270494452E+03  0.00000000000E+00 0. -1.
         22    1    1    2    0    0  0.11210593841E+04 -0.12163752345E+04  0.21540970622E+04  0.27159670483E+04  0.00000000000E+00 0. -1.
<mgrwt>
<rscale>  0 0.38907037E+04</rscale>
<asrwt>0</asrwt>
<pdfrwt beam="1">  1        2 0.49144700E+00 0.38907037E+04</pdfrwt>
<pdfrwt beam="2">  1       -2 0.18226065E+00 0.38907037E+04</pdfrwt>
<totfact> 0.18188752E-01</totfact>
</mgrwt>
</event>
<event>
 6    1  0.1588846E-005  0.2786208E+04  0.7818608E-02  0.8307563E-01
          2   -1    0    0  501    0  0.00000000000E+00  0.00000000000E+00  0.34703273834E+04  0.34703273834E+04  0.00000000000E+00 0.  1.
         -2   -1    0    0    0  501 -0.00000000000E+00 -0.00000000000E+00 -0.55923792053E+03  0.55923792053E+03  0.00000000000E+00 0. -1.
         23    2    1    2    0    0  0.13467476257E+04 -0.28838395053E+03  0.11674924731E+04  0.18076236006E+04  0.87005381342E+02 0.  0.
         13    1    3    3    0    0  0.46499300542E+03 -0.82938850333E+02  0.35114731110E+03  0.58855907272E+03  0.00000000000E+00 0.  1.
        -13    1    3    3    0    0  0.88175462031E+03 -0.20544510019E+03  0.81634516200E+03  0.12190645279E+04  0.00000000000E+00 0. -1.
         22    1    1    2    0    0 -0.13467476257E+04  0.28838395053E+03  0.17435969898E+04  0.22219417034E+04  0.00000000000E+00 0.  1.
<mgrwt>
<rscale>  0 0.27862079E+04</rscale>
<asrwt>0</asrwt>
<pdfrwt beam="1">  1        2 0.53389651E+00 0.27862079E+04</pdfrwt>
<pdfrwt beam="2">  1       -2 0.86036605E-01 0.27862079E+04</pdfrwt>
<totfact> 0.87046302E-01</totfact>
</mgrwt>
</event>
<event>
 6    1  0.1588846E-005  0.2656608E+04  0.7818608E-02  0.8349223E-01
         -1   -1    0    0    0  501 -0.00000000000E+00  0.00000000000E+00  0.11848528709E+04  0.11848528709E+04  0.00000000000E+00 0.  1.
          1   -1    0    0  501    0  0.00000000000E+00 -0.00000000000E+00 -0.14891227737E+04  0.14891227737E+04  0.00000000000E+00 0. -1.
         23    2    1    2    0    0 -0.10879558858E+04  0.71211619691E+03  0.11246492457E+03  0.13085360071E+04  0.94130947503E+02 0.  0.
         13    1    3    3    0    0 -0.61180631421E+03  0.35837792816E+03  0.92293894865E+02  0.71502438317E+03  0.00000000000E+00 0. -1.
        -13    1    3    3    0    0 -0.47614957159E+03  0.35373826875E+03  0.20171029708E+02  0.59351162393E+03  0.00000000000E+00 0.  1.
         22    1    1    2    0    0  0.10879558858E+04 -0.71211619691E+03 -0.41673482738E+03  0.13654396375E+04  0.00000000000E+00 0. -1.
<mgrwt>
<rscale>  0 0.26566079E+04</rscale>
<asrwt>0</asrwt>
<pdfrwt beam="1">  1        1 0.22909581E+00 0.26566079E+04</pdfrwt>
<pdfrwt beam="2">  1       -1 0.18228506E+00 0.26566079E+04</pdfrwt>
<totfact> 0.11692073E+00</totfact>
</mgrwt>
</event>
<event>
 6    1  0.1588846E-005  0.4642397E+04  0.7818608E-02  0.7886171E-01
          2   -1    0    0  501    0  0.00000000000E+00  0.00000000000E+00  0.21895926586E+04  0.21895926586E+04  0.00000000000E+00 0.  1.
         -2   -1    0    0    0  501 -0.00000000000E+00 -0.00000000000E+00 -0.24607143460E+04  0.24607143460E+04  0.00000000000E+00 0. -1.
         23    2    1    2    0    0  0.14622025894E+04  0.13975475763E+04 -0.12746079752E+04  0.23923963841E+04  0.88087046990E+02 0.  0.
         13    1    3    3    0    0  0.88490329067E+03  0.80759449782E+03 -0.71511793804E+03  0.13952262799E+04  0.00000000000E+00 0.  1.
        -13    1    3    3    0    0  0.57729929871E+03  0.58995307848E+03 -0.55949003715E+03  0.99717010423E+03  0.00000000000E+00 0. -1.
         22    1    1    2    0    0 -0.14622025894E+04 -0.13975475763E+04  0.10034862878E+04  0.22579106205E+04  0.00000000000E+00 0.  1.
<mgrwt>
<rscale>  0 0.46423968E+04</rscale>
<asrwt>0</asrwt>
<pdfrwt beam="1">  1        2 0.33686041E+00 0.46423968E+04</pdfrwt>
<pdfrwt beam="2">  1       -2 0.37857143E+00 0.46423968E+04</pdfrwt>
<totfact> 0.40099082E-02</totfact>
</mgrwt>
</event>
<event>
 6    1  0.1588846E-005  0.1636451E+04  0.7818608E-02  0.8798463E-01
          2   -1    0    0  501    0  0.00000000000E+00  0.00000000000E+00  0.17232564824E+04  0.17232564824E+04  0.00000000000E+00 0. -1.
         -2   -1    0    0    0  501 -0.00000000000E+00 -0.00000000000E+00 -0.38850451415E+03  0.38850451415E+03  0.00000000000E+00 0.  1.
         23    2    1    2    0    0 -0.59152773875E+03  0.56085607730E+03  0.70637434022E+03  0.10825267916E+04  0.91841934685E+02 0.  0.
         11    1    3    3    0    0 -0.77050951814E+02  0.11995061110E+03  0.13152271384E+03  0.19396706560E+03  0.00000000000E+00 0.  1.
        -11    1    3    3    0    0 -0.51447678693E+03  0.44090546619E+03  0.57485162637E+03  0.88855972605E+03  0.00000000000E+00 0. -1.
         22    1    1    2    0    0  0.59152773875E+03 -0.56085607730E+03  0.62837762806E+03  0.10292342049E+04  0.00000000000E+00 0.  1.
<mgrwt>
<rscale>  0 0.16364509E+04</rscale>
<asrwt>0</asrwt>
<pdfrwt beam="1">  1        2 0.26511638E+00 0.16364509E+04</pdfrwt>
<pdfrwt beam="2">  1       -2 0.59769926E-01 0.16364509E+04</pdfrwt>
<totfact> 0.23765044E+01</totfact>
</mgrwt>
</event>
<event>
 6    1  0.1588846E-005  0.2820118E+04  0.7818608E-02  0.8297050E-01
         -2   -1    0    0    0  501 -0.00000000000E+00  0.00000000000E+00  0.21245025152E+04  0.21245025152E+04  0.00000000000E+00 0.  1.
          2   -1    0    0  501    0  0.00000000000E+00 -0.00000000000E+00 -0.93587384001E+03  0.93587384001E+03  0.00000000000E+00 0. -1.
         23    2    1    2    0    0 -0.88098717881E+03 -0.63920844344E+03  0.15652298538E+04  0.19086149688E+04  0.90226163486E+02 0.  0.
         11    1    3    3    0    0 -0.36589971918E+03 -0.27576129724E+03  0.58313217548E+03  0.74159964376E+03  0.00000000000E+00 0. -1.
        -11    1    3    3    0    0 -0.51508745963E+03 -0.36344714620E+03  0.98209767832E+03  0.11670153251E+04  0.00000000000E+00 0.  1.
         22    1    1    2    0    0  0.88098717881E+03  0.63920844344E+03 -0.37660117863E+03  0.11517613864E+04  0.00000000000E+00 0. -1.
<mgrwt>
<rscale>  0 0.28201180E+04</rscale>
<asrwt>0</asrwt>
<pdfrwt beam="1">  1        2 0.14398059E+00 0.28201180E+04</pdfrwt>
<pdfrwt beam="2">  1       -2 0.32684654E+00 0.28201180E+04</pdfrwt>
<totfact> 0.52333626E-01</totfact>
</mgrwt>
</event>
<event>
 6    1  0.1588846E-005  0.2867258E+04  0.7818608E-02  0.8282686E-01
          1   -1    0    0  501    0  0.00000000000E+00  0.00000000000E+00  0.97851925987E+03  0.97851925987E+03  0.00000000000E+00 0. -1.
         -1   -1    0    0    0  501 -0.00000000000E+00 -0.00000000000E+00 -0.21004098319E+04  0.21004098319E+04  0.00000000000E+00 0.  1.
         23    2    1    2    0    0  0.57712192156E+03 -0.21477090780E+03 -0.19500038391E+04  0.20469563023E+04  0.91207870996E+02 0.  0.
         11    1    3    3    0    0  0.43489865606E+03 -0.11887975616E+03 -0.13942136200E+04  0.14652988963E+04  0.00000000000E+00 0. -1.
        -11    1    3    3    0    0  0.14222326550E+03 -0.95891151641E+02 -0.55579021915E+03  0.58165740597E+03  0.00000000000E+00 0.  1.
         22    1    1    2    0    0 -0.57712192156E+03  0.21477090780E+03  0.82811326706E+03  0.10319727895E+04  0.00000000000E+00 0. -1.
<mgrwt>
<rscale>  0 0.28672576E+04</rscale>
<asrwt>0</asrwt>
<pdfrwt beam="1">  1        1 0.15054143E+00 0.28672576E+04</pdfrwt>
<pdfrwt beam="2">  1       -1 0.32313997E+00 0.28672576E+04</pdfrwt>
<totfact> 0.31608710E-01</totfact>
</mgrwt>
</event>
<event>
 6    1  0.1588846E-005  0.3587359E+03  0.7818608E-02  0.1059086E+00
          1   -1    0    0  501    0  0.00000000000E+00  0.00000000000E+00  0.38258849183E+03  0.38258849183E+03  0.00000000000E+00 0. -1.
         -1   -1    0    0    0  501 -0.00000000000E+00 -0.00000000000E+00 -0.84092580837E+02  0.84092580837E+02  0.00000000000E+00 0.  1.
         23    2    1    2    0    0 -0.76630716919E+02  0.79316695147E+02 -0.46455413111E+01  0.14410062532E+03  0.92628312407E+02 0.  0.
         13    1    3    3    0    0 -0.71768697004E+02  0.44320202685E+02  0.34708731996E+02  0.91212511820E+02  0.00000000000E+00 0. -1.
        -13    1    3    3    0    0 -0.48620199150E+01  0.34996492463E+02 -0.39354273307E+02  0.52888113502E+02  0.00000000000E+00 0.  1.
         22    1    1    2    0    0  0.76630716919E+02 -0.79316695147E+02  0.30314145230E+03  0.32258044734E+03  0.00000000000E+00 0. -1.
<mgrwt>
<rscale>  0 0.35873586E+03</rscale>
<asrwt>0</asrwt>
<pdfrwt beam="1">  1        1 0.58859767E-01 0.35873586E+03</pdfrwt>
<pdfrwt beam="2">  1       -1 0.12937320E-01 0.35873586E+03</pdfrwt>
<totfact> 0.26196204E+03</totfact>
</mgrwt>
</event>
<event>
 6    1  0.1588846E-005  0.3242122E+04  0.7818608E-02  0.8177781E-01
         -3   -1    0    0    0  501 -0.00000000000E+00  0.00000000000E+00  0.13543226585E+04  0.13543226585E+04  0.00000000000E+00 0.  1.
          3   -1    0    0  501    0  0.00000000000E+00 -0.00000000000E+00 -0.19403343020E+04  0.19403343020E+04  0.00000000000E+00 0. -1.
         23    2    1    2    0    0 -0.11246420672E+04  0.11615542495E+04 -0.19661470246E+03  0.16316301925E+04  0.97630374421E+02 0.  0.
         13    1    3    3    0    0 -0.66377796309E+02  0.95931437350E+02  0.23715710457E+01  0.11668109043E+03  0.00000000000E+00 0.  1.
        -13    1    3    3    0    0 -0.10582642709E+04  0.10656228121E+04 -0.19898627351E+03  0.15149491020E+04  0.00000000000E+00 0. -1.
         22    1    1    2    0    0  0.11246420672E+04 -0.11615542495E+04 -0.38939694105E+03  0.16630267681E+04  0.00000000000E+00 0. -1.
<mgrwt>
<rscale>  0 0.32421220E+04</rscale>
<asrwt>0</asrwt>
<pdfrwt beam="1">  1        3 0.29851297E+00 0.32421220E+04</pdfrwt>
<pdfrwt beam="2">  1       -3 0.20835733E+00 0.32421220E+04</pdfrwt>
<totfact> 0.11113762E-02</totfact>
</mgrwt>
</event>
<event>
 6    1  0.1588846E-005  0.2833622E+04  0.7818608E-02  0.8292905E-01
         -1   -1    0    0    0  501 -0.00000000000E+00  0.00000000000E+00  0.13667905959E+04  0.13667905959E+04  0.00000000000E+00 0.  1.
          1   -1    0    0  501    0  0.00000000000E+00 -0.00000000000E+00 -0.14686622353E+04  0.14686622353E+04  0.00000000000E+00 0. -1.
         23    2    1    2    0    0 -0.60964766192E+03  0.11012443733E+04  0.59627795345E+03  0.13960702221E+04  0.95158950499E+02 0.  0.
         11    1    3    3    0    0 -0.40711249938E+03  0.73566673304E+03  0.34814887960E+03  0.91002954437E+03  0.00000000000E+00 0. -1.
        -11    1    3    3    0    0 -0.20253516254E+03  0.36557764024E+03  0.24812907385E+03  0.48604067772E+03  0.00000000000E+00 0.  1.
         22    1    1    2    0    0  0.60964766192E+03 -0.11012443733E+04 -0.69814959283E+03  0.14393826091E+04  0.00000000000E+00 0. -1.
<mgrwt>
<rscale>  0 0.28336222E+04</rscale>
<asrwt>0</asrwt>
<pdfrwt beam="1">  1        1 0.22594804E+00 0.28336222E+04</pdfrwt>
<pdfrwt beam="2">  1       -1 0.21027548E+00 0.28336222E+04</pdfrwt>
<totfact> 0.76008416E-01</totfact>
</mgrwt>
</event>
<event>
 6    1  0.1588846E-005  0.2584748E+04  0.7818608E-02  0.8373400E-01
         -1   -1    0    0    0  501 -0.00000000000E+00  0.00000000000E+00  0.16350620814E+04  0.16350620814E+04  0.00000000000E+00 0.  1.
          1   -1    0    0  501    0  0.00000000000E+00 -0.00000000000E+00 -0.10215092454E+04  0.10215092454E+04  0.00000000000E+00 0. -1.
         23    2    1    2    0    0  0.34665981765E+03  0.89160508979E+03 -0.58355045230E+03  0.11241911690E+04  0.90232968934E+02 0.  0.
         11    1    3    3    0    0  0.19410145930E+03  0.59540455460E+03 -0.41000579525E+03  0.74852302054E+03  0.00000000000E+00 0. -1.
        -11    1    3    3    0    0  0.15255835834E+03  0.29620053519E+03 -0.17354465705E+03  0.37566814842E+03  0.00000000000E+00 0.  1.
         22    1    1    2    0    0 -0.34665981765E+03 -0.89160508979E+03  0.11971032883E+04  0.15323801579E+04  0.00000000000E+00 0.  1.
<mgrwt>
<rscale>  0 0.25847484E+04</rscale>
<asrwt>0</asrwt>
<pdfrwt beam="1">  1        1 0.15715527E+00 0.25847484E+04</pdfrwt>
<pdfrwt beam="2">  1       -1 0.25154801E+00 0.25847484E+04</pdfrwt>
<totfact> 0.87445801E-01</totfact>
</mgrwt>
</event>
<event>
 6    1  0.1588846E-005  0.2877411E+04  0.7818608E-02  0.8279630E-01
          2   -1    0    0  501    0  0.00000000000E+00  0.00000000000E+00  0.12100309382E+04  0.12100309382E+04  0.00000000000E+00 0. -1.
         -2   -1    0    0    0  501 -0.00000000000E+00 -0.00000000000E+00 -0.17105958083E+04  0.17105958083E+04  0.00000000000E+00 0.  1.
         23    2    1    2    0    0  0.32342713456E+03 -0.60270104717E+03  0.10322899289E+04  0.12420864585E+04  0.96450034971E+02 0.  0.
         11    1    3    3    0    0  0.15847972852E+02 -0.98974681763E+02  0.13684384417E+03  0.16962718992E+03  0.00000000000E+00 0.  1.
        -11    1    3    3    0    0  0.30757916171E+03 -0.50372636541E+03  0.89544608477E+03  0.10724592685E+04  0.00000000000E+00 0. -1.
         22    1    1    2    0    0 -0.32342713456E+03  0.60270104717E+03 -0.15328547991E+04  0.16785402881E+04  0.00000000000E+00 0.  1.
<mgrwt>
<rscale>  0 0.28774112E+04</rscale>
<asrwt>0</asrwt>
<pdfrwt beam="1">  1        2 0.18615861E+00 0.28774112E+04</pdfrwt>
<pdfrwt beam="2">  1       -2 0.26316859E+00 0.28774112E+04</pdfrwt>
<totfact> 0.86186272E-01</totfact>
</mgrwt>
</event>
<event>
 6    1  0.1588846E-005  0.3178032E+04  0.7818608E-02  0.8194643E-01
         -1   -1    0    0    0  501 -0.00000000000E+00  0.00000000000E+00  0.16202619440E+04  0.16202619440E+04  0.00000000000E+00 0.  1.
          1   -1    0    0  501    0  0.00000000000E+00 -0.00000000000E+00 -0.15583723244E+04  0.15583723244E+04  0.00000000000E+00 0. -1.
         23    2    1    2    0    0 -0.10207795968E+04 -0.89347890036E+03  0.85597751564E+03  0.16067337890E+04  0.92738507630E+02 0.  0.
         11    1    3    3    0    0 -0.35317188339E+03 -0.29844662370E+03  0.34342665455E+03  0.57597103527E+03  0.00000000000E+00 0. -1.
        -11    1    3    3    0    0 -0.66760771337E+03 -0.59503227666E+03  0.51255086110E+03  0.10307627537E+04  0.00000000000E+00 0.  1.
         22    1    1    2    0    0  0.10207795968E+04  0.89347890036E+03 -0.79408789607E+03  0.15719004794E+04  0.00000000000E+00 0. -1.
<mgrwt>
<rscale>  0 0.31780317E+04</rscale>
<asrwt>0</asrwt>
<pdfrwt beam="1">  1        1 0.23974959E+00 0.31780317E+04</pdfrwt>
<pdfrwt beam="2">  1       -1 0.24927107E+00 0.31780317E+04</pdfrwt>
<totfact> 0.35219743E-01</totfact>
</mgrwt>
</event>
<event>
 6    1  0.1588846E-005  0.3462196E+04  0.7818608E-02  0.8122808E-01
         -1   -1    0    0    0  501 -0.00000000000E+00  0.00000000000E+00  0.25680241134E+04  0.25680241134E+04  0.00000000000E+00 0.  1.
          1   -1    0    0  501    0  0.00000000000E+00 -0.00000000000E+00 -0.11669283977E+04  0.11669283977E+04  0.00000000000E+00 0. -1.
         23    2    1    2    0    0  0.46376639769E+03  0.11548879195E+04 -0.59520575184E+03  0.13824931750E+04  0.90399743992E+02 0.  0.
         11    1    3    3    0    0  0.26595572394E+03  0.54751577557E+03 -0.30658064709E+03  0.68154065525E+03  0.00000000000E+00 0.  1.
        -11    1    3    3    0    0  0.19781067375E+03  0.60737214393E+03 -0.28862510476E+03  0.70095251976E+03  0.00000000000E+00 0. -1.
         22    1    1    2    0    0 -0.46376639769E+03 -0.11548879195E+04  0.19963014676E+04  0.23524593361E+04  0.00000000000E+00 0.  1.
<mgrwt>
<rscale>  0 0.34621960E+04</rscale>
<asrwt>0</asrwt>
<pdfrwt beam="1">  1        1 0.17952745E+00 0.34621960E+04</pdfrwt>
<pdfrwt beam="2">  1       -1 0.39508063E+00 0.34621960E+04</pdfrwt>
<totfact> 0.71429490E-02</totfact>
</mgrwt>
</event>
<event>
 6    1  0.1588846E-005  0.2103431E+04  0.7818608E-02  0.8559734E-01
          2   -1    0    0  501    0  0.00000000000E+00  0.00000000000E+00  0.30743403078E+04  0.30743403078E+04  0.00000000000E+00 0. -1.
         -2   -1    0    0    0  501 -0.00000000000E+00 -0.00000000000E+00 -0.35978617123E+03  0.35978617123E+03  0.00000000000E+00 0.  1.
         23    2    1    2    0    0  0.50742128055E+03 -0.89945645693E+03  0.16710309655E+04  0.19659851771E+04  0.79088273516E+02 0.  0.
         11    1    3    3    0    0  0.27352148966E+03 -0.52169331695E+03  0.10179040377E+04  0.11760555056E+04  0.00000000000E+00 0.  1.
        -11    1    3    3    0    0  0.23389979089E+03 -0.37776313998E+03  0.65312692788E+03  0.78992967157E+03  0.00000000000E+00 0. -1.
         22    1    1    2    0    0 -0.50742128055E+03  0.89945645693E+03  0.10435231710E+04  0.14681413019E+04  0.00000000000E+00 0.  1.
<mgrwt>
<rscale>  0 0.21034307E+04</rscale>
<asrwt>0</asrwt>
<pdfrwt beam="1">  1        2 0.47297541E+00 0.21034307E+04</pdfrwt>
<pdfrwt beam="2">  1       -2 0.55351721E-01 0.21034307E+04</pdfrwt>
<totfact> 0.44260995E+00</totfact>
</mgrwt>
</event>
<event>
 6    1  0.1588846E-005  0.1482771E+04  0.7818608E-02  0.8895992E-01
          1   -1    0    0  501    0  0.00000000000E+00  0.00000000000E+00  0.85531608974E+03  0.85531608974E+03  0.00000000000E+00 0.  1.
         -1   -1    0    0    0  501 -0.00000000000E+00 -0.00000000000E+00 -0.64263046833E+03  0.64263046833E+03  0.00000000000E+00 0. -1.
         23    2    1    2    0    0  0.15911469434E+03  0.50475431557E+03  0.62719056469E+03  0.82570496976E+03  0.91248493715E+02 0.  0.
         13    1    3    3    0    0  0.15561056294E+02  0.50436954580E+02  0.11290210389E+03  0.12463112742E+03  0.00000000000E+00 0. -1.
        -13    1    3    3    0    0  0.14355363804E+03  0.45431736099E+03  0.51428846081E+03  0.70107384234E+03  0.00000000000E+00 0.  1.
         22    1    1    2    0    0 -0.15911469434E+03 -0.50475431557E+03 -0.41450494329E+03  0.67224158831E+03  0.00000000000E+00 0. -1.
<mgrwt>
<rscale>  0 0.14827706E+04</rscale>
<asrwt>0</asrwt>
<pdfrwt beam="1">  1        1 0.13158709E+00 0.14827706E+04</pdfrwt>
<pdfrwt beam="2">  1       -1 0.98866226E-01 0.14827706E+04</pdfrwt>
<totfact> 0.18790983E+01</totfact>
</mgrwt>
</event>
<event>
 6    1  0.1588846E-005  0.2339580E+04  0.7818608E-02  0.8462477E-01
          2   -1    0    0  501    0  0.00000000000E+00  0.00000000000E+00  0.15105730816E+04  0.15105730816E+04  0.00000000000E+00 0.  1.
         -2   -1    0    0    0  501 -0.00000000000E+00 -0.00000000000E+00 -0.90588676275E+03  0.90588676275E+03  0.00000000000E+00 0. -1.
         23    2    1    2    0    0  0.10961718726E+04  0.32607010742E+03  0.54757593138E+03  0.12713938700E+04  0.93212031700E+02 0.  0.
         13    1    3    3    0    0  0.35834457903E+03  0.82234831881E+02  0.13561717970E+03  0.39187424555E+03  0.00000000000E+00 0.  1.
        -13    1    3    3    0    0  0.73782729354E+03  0.24383527554E+03  0.41195875168E+03  0.87951962444E+03  0.00000000000E+00 0. -1.
         22    1    1    2    0    0 -0.10961718726E+04 -0.32607010742E+03  0.57110387421E+02  0.11450659743E+04  0.00000000000E+00 0. -1.
<mgrwt>
<rscale>  0 0.23395796E+04</rscale>
<asrwt>0</asrwt>
<pdfrwt beam="1">  1        2 0.23239586E+00 0.23395796E+04</pdfrwt>
<pdfrwt beam="2">  1       -2 0.13936719E+00 0.23395796E+04</pdfrwt>
<totfact> 0.41126069E+00</totfact>
</mgrwt>
</event>
<event>
 6    1  0.1588846E-005  0.4407177E+04  0.7818608E-02  0.7927092E-01
          2   -1    0    0  501    0  0.00000000000E+00  0.00000000000E+00  0.14284486263E+04  0.14284486263E+04  0.00000000000E+00 0. -1.
         -2   -1    0    0    0  501 -0.00000000000E+00 -0.00000000000E+00 -0.33993532769E+04  0.33993532769E+04  0.00000000000E+00 0.  1.
         23    2    1    2    0    0  0.99258663916E+03  0.51460233262E+03  0.10928309088E+04  0.15664341879E+04  0.96916833983E+02 0.  0.
         11    1    3    3    0    0  0.72854894668E+03  0.33319349722E+03  0.75413517532E+03  0.11002369458E+04  0.00000000000E+00 0. -1.
        -11    1    3    3    0    0  0.26403769248E+03  0.18140883539E+03  0.33869573350E+03  0.46619724206E+03  0.00000000000E+00 0.  1.
         22    1    1    2    0    0 -0.99258663916E+03 -0.51460233262E+03 -0.30637355593E+04  0.32613677153E+04  0.00000000000E+00 0.  1.
<mgrwt>
<rscale>  0 0.44071767E+04</rscale>
<asrwt>0</asrwt>
<pdfrwt beam="1">  1        2 0.21976133E+00 0.44071767E+04</pdfrwt>
<pdfrwt beam="2">  1       -2 0.52297743E+00 0.44071767E+04</pdfrwt>
<totfact> 0.12829146E-02</totfact>
</mgrwt>
</event>
<event>
 6    1  0.1588846E-005  0.3131440E+04  0.7818608E-02  0.8207162E-01
          2   -1    0    0  501    0  0.00000000000E+00  0.00000000000E+00  0.35318299968E+04  0.35318299968E+04  0.00000000000E+00 0. -1.
         -2   -1    0    0    0  501 -0.00000000000E+00 -0.00000000000E+00 -0.69411019411E+03  0.69411019411E+03  0.00000000000E+00 0.  1.
         23    2    1    2    0    0  0.34187200143E+03  0.14369490007E+03  0.34711471137E+04  0.34919409757E+04  0.85233815386E+02 0.  0.
         11    1    3    3    0    0  0.26616086054E+03  0.71468891496E+02  0.24542024257E+04  0.24696272902E+04  0.00000000000E+00 0.  1.
        -11    1    3    3    0    0  0.75711140895E+02  0.72226008572E+02  0.10169446880E+04  0.10223136855E+04  0.00000000000E+00 0. -1.
         22    1    1    2    0    0 -0.34187200143E+03 -0.14369490007E+03 -0.63342731097E+03  0.73399921523E+03  0.00000000000E+00 0.  1.
<mgrwt>
<rscale>  0 0.31314401E+04</rscale>
<asrwt>0</asrwt>
<pdfrwt beam="1">  1        2 0.54335845E+00 0.31314401E+04</pdfrwt>
<pdfrwt beam="2">  1       -2 0.10678619E+00 0.31314401E+04</pdfrwt>
<totfact> 0.46098168E-01</totfact>
</mgrwt>
</event>
<event>
 6    1  0.1588846E-005  0.4314299E+04  0.7818608E-02  0.7943979E-01
          2   -1    0    0  501    0  0.00000000000E+00  0.00000000000E+00  0.15038735242E+04  0.15038735242E+04  0.00000000000E+00 0. -1.
         -2   -1    0    0    0  501 -0.00000000000E+00 -0.00000000000E+00 -0.30942058823E+04  0.30942058823E+04  0.00000000000E+00 0.  1.
         23    2    1    2    0    0  0.10801300240E+04 -0.15676889756E+04  0.28337972484E+03  0.19269136380E+04  0.91446742697E+02 0.  0.
         11    1    3    3    0    0  0.57947687039E+03 -0.91694477842E+03  0.14712675079E+03  0.10946357617E+04  0.00000000000E+00 0.  1.
        -11    1    3    3    0    0  0.50065315361E+03 -0.65074419718E+03  0.13625297405E+03  0.83227787627E+03  0.00000000000E+00 0. -1.
         22    1    1    2    0    0 -0.10801300240E+04  0.15676889756E+04 -0.18737120830E+04  0.26711657685E+04  0.00000000000E+00 0.  1.
<mgrwt>
<rscale>  0 0.43142992E+04</rscale>
<asrwt>0</asrwt>
<pdfrwt beam="1">  1        2 0.23136516E+00 0.43142992E+04</pdfrwt>
<pdfrwt beam="2">  1       -2 0.47603167E+00 0.43142992E+04</pdfrwt>
<totfact> 0.22797645E-02</totfact>
</mgrwt>
</event>
<event>
 6    1  0.1588846E-005  0.2122150E+04  0.7818608E-02  0.8551548E-01
          2   -1    0    0  501    0  0.00000000000E+00  0.00000000000E+00  0.21923995841E+04  0.21923995841E+04  0.00000000000E+00 0. -1.
         -2   -1    0    0    0  501 -0.00000000000E+00 -0.00000000000E+00 -0.51353788644E+03  0.51353788644E+03  0.00000000000E+00 0.  1.
         23    2    1    2    0    0  0.27443076486E+03 -0.41473086131E+03  0.20333069288E+04  0.20952449506E+04  0.91653717985E+02 0.  0.
         13    1    3    3    0    0  0.21974693187E+03 -0.35931852113E+03  0.15735811705E+04  0.16289739758E+04  0.00000000000E+00 0.  1.
        -13    1    3    3    0    0  0.54683832992E+02 -0.55412340184E+02  0.45972575830E+03  0.46627097474E+03  0.00000000000E+00 0. -1.
         22    1    1    2    0    0 -0.27443076486E+03  0.41473086131E+03 -0.35444523119E+03  0.61069251996E+03  0.00000000000E+00 0.  1.
<mgrwt>
<rscale>  0 0.21221501E+04</rscale>
<asrwt>0</asrwt>
<pdfrwt beam="1">  1        2 0.33729224E+00 0.21221501E+04</pdfrwt>
<pdfrwt beam="2">  1       -2 0.79005830E-01 0.21221501E+04</pdfrwt>
<totfact> 0.68196146E+00</totfact>
</mgrwt>
</event>
<event>
 6    1  0.1588846E-005  0.2598267E+04  0.7818608E-02  0.8368790E-01
          2   -1    0    0  501    0  0.00000000000E+00  0.00000000000E+00  0.24244290245E+04  0.24244290245E+04  0.00000000000E+00 0.  1.
         -2   -1    0    0    0  501 -0.00000000000E+00 -0.00000000000E+00 -0.69614261372E+03  0.69614261372E+03  0.00000000000E+00 0. -1.
         23    2    1    2    0    0 -0.12928256582E+04  0.92830399594E+01  0.99803200597E+03  0.16357296086E+04  0.89772546435E+02 0.  0.
         13    1    3    3    0    0 -0.19538595152E+03 -0.30786244270E+02  0.15388331762E+03  0.25060634135E+03  0.00000000000E+00 0. -1.
        -13    1    3    3    0    0 -0.10974397067E+04  0.40069284230E+02  0.84414868835E+03  0.13851232672E+04  0.00000000000E+00 0.  1.
         22    1    1    2    0    0  0.12928256582E+04 -0.92830399594E+01  0.73025440479E+03  0.14848420296E+04  0.00000000000E+00 0. -1.
<mgrwt>
<rscale>  0 0.25982674E+04</rscale>
<asrwt>0</asrwt>
<pdfrwt beam="1">  1        2 0.37298908E+00 0.25982674E+04</pdfrwt>
<pdfrwt beam="2">  1       -2 0.10709887E+00 0.25982674E+04</pdfrwt>
<totfact> 0.23862147E+00</totfact>
</mgrwt>
</event>
<event>
 6    1  0.1588846E-005  0.2803440E+04  0.7818608E-02  0.8302201E-01
         -1   -1    0    0    0  501 -0.00000000000E+00  0.00000000000E+00  0.18795237097E+04  0.18795237097E+04  0.00000000000E+00 0.  1.
          1   -1    0    0  501    0  0.00000000000E+00 -0.00000000000E+00 -0.10453809618E+04  0.10453809618E+04  0.00000000000E+00 0. -1.
         23    2    1    2    0    0  0.31404976982E+03 -0.10930455022E+04 -0.43485486114E+03  0.12208710277E+04  0.89730642873E+02 0.  0.
         13    1    3    3    0    0  0.61835309445E+02 -0.23029063637E+03 -0.53046696101E+02  0.24427716770E+03  0.00000000000E+00 0. -1.
        -13    1    3    3    0    0  0.25221446038E+03 -0.86275486580E+03 -0.38180816504E+03  0.97659386000E+03  0.00000000000E+00 0.  1.
         22    1    1    2    0    0 -0.31404976982E+03  0.10930455022E+04  0.12689976090E+04  0.17040336439E+04  0.00000000000E+00 0.  1.
<mgrwt>
<rscale>  0 0.28034395E+04</rscale>
<asrwt>0</asrwt>
<pdfrwt beam="1">  1        1 0.16082784E+00 0.28034395E+04</pdfrwt>
<pdfrwt beam="2">  1       -1 0.28915749E+00 0.28034395E+04</pdfrwt>
<totfact> 0.46881204E-01</totfact>
</mgrwt>
</event>
<event>
 6    1  0.1588846E-005  0.1425750E+04  0.7818608E-02  0.8935387E-01
         -2   -1    0    0    0  501 -0.00000000000E+00  0.00000000000E+00  0.56381590332E+03  0.56381590332E+03  0.00000000000E+00 0.  1.
          2   -1    0    0  501    0  0.00000000000E+00 -0.00000000000E+00 -0.90134196633E+03  0.90134196633E+03  0.00000000000E+00 0. -1.
         23    2    1    2    0    0  0.15304571347E+02 -0.14347070230E+03 -0.88374021789E+03  0.90020833623E+03  0.92521368307E+02 0.  0.
         13    1    3    3    0    0  0.32096041807E+02 -0.14428628993E+03 -0.68543030405E+03  0.70118712985E+03  0.00000000000E+00 0.  1.
        -13    1    3    3    0    0 -0.16791470460E+02  0.81558763493E+00 -0.19830991384E+03  0.19902120638E+03  0.00000000000E+00 0. -1.
         22    1    1    2    0    0 -0.15304571347E+02  0.14347070230E+03  0.54621415487E+03  0.56494953341E+03  0.00000000000E+00 0.  1.
<mgrwt>
<rscale>  0 0.14257502E+04</rscale>
<asrwt>0</asrwt>
<pdfrwt beam="1">  1        2 0.13866800E+00 0.14257502E+04</pdfrwt>
<pdfrwt beam="2">  1       -2 0.86740908E-01 0.14257502E+04</pdfrwt>
<totfact> 0.32710489E+01</totfact>
</mgrwt>
</event>
<event>
 6    1  0.1646876E-005  0.3320192E+04  0.7818608E-02  0.8157776E-01
         -1   -1    0    0    0  501 -0.00000000000E+00  0.00000000000E+00  0.15484487339E+04  0.15484487339E+04  0.00000000000E+00 0.  1.
          1   -1    0    0  501    0  0.00000000000E+00 -0.00000000000E+00 -0.17797933182E+04  0.17797933182E+04  0.00000000000E+00 0. -1.
         23    2    1    2    0    0 -0.66420697177E+03 -0.11011463676E+03  0.14038690773E+04  0.15598473412E+04  0.94758678973E+02 0.  0.
         11    1    3    3    0    0 -0.17276101515E+03  0.12903247721E+02  0.34897435534E+03  0.38961001379E+03  0.00000000000E+00 0. -1.
        -11    1    3    3    0    0 -0.49144595662E+03 -0.12301788448E+03  0.10548947219E+04  0.11702373274E+04  0.00000000000E+00 0.  1.
         22    1    1    2    0    0  0.66420697177E+03  0.11011463676E+03 -0.16352136616E+04  0.17683947109E+04  0.00000000000E+00 0. -1.
<mgrwt>
<rscale>  0 0.33201920E+04</rscale>
<asrwt>0</asrwt>
<pdfrwt beam="1">  1        1 0.27381435E+00 0.33201920E+04</pdfrwt>
<pdfrwt beam="2">  1       -1 0.23822288E+00 0.33201920E+04</pdfrwt>
<totfact> 0.29007685E-01</totfact>
</mgrwt>
</event>
<event>
 6    1  0.1588846E-005  0.3811183E+04  0.7818608E-02  0.8043759E-01
          2   -1    0    0  501    0  0.00000000000E+00  0.00000000000E+00  0.19775802630E+04  0.19775802630E+04  0.00000000000E+00 0. -1.
         -2   -1    0    0    0  501 -0.00000000000E+00 -0.00000000000E+00 -0.18362231270E+04  0.18362231270E+04  0.00000000000E+00 0.  1.
         23    2    1    2    0    0 -0.13030319247E+04  0.32917541578E+03  0.14217236591E+04  0.19575741249E+04  0.67451023358E+02 0.  0.
         13    1    3    3    0    0 -0.96114069269E+03  0.24386433415E+03  0.10912617070E+04  0.14744874899E+04  0.00000000000E+00 0. -1.
        -13    1    3    3    0    0 -0.34189123203E+03  0.85311081629E+02  0.33046195210E+03  0.48308663506E+03  0.00000000000E+00 0.  1.
         22    1    1    2    0    0  0.13030319247E+04 -0.32917541578E+03 -0.12803665231E+04  0.18562292651E+04  0.00000000000E+00 0.  1.
<mgrwt>
<rscale>  0 0.38111828E+04</rscale>
<asrwt>0</asrwt>
<pdfrwt beam="1">  1        2 0.30424312E+00 0.38111828E+04</pdfrwt>
<pdfrwt beam="2">  1       -2 0.28249587E+00 0.38111828E+04</pdfrwt>
<totfact> 0.22398141E-01</totfact>
</mgrwt>
</event>
<event>
 6    1  0.1588846E-005  0.1859480E+04  0.7818608E-02  0.8675293E-01
         -1   -1    0    0    0  501 -0.00000000000E+00  0.00000000000E+00  0.85032824089E+03  0.85032824089E+03  0.00000000000E+00 0. -1.
          1   -1    0    0  501    0  0.00000000000E+00 -0.00000000000E+00 -0.10165683789E+04  0.10165683789E+04  0.00000000000E+00 0.  1.
         23    2    1    2    0    0 -0.71578804928E+03 -0.28247021057E+03  0.43656883487E+03  0.88938927497E+03  0.90988919673E+02 0.  0.
         11    1    3    3    0    0 -0.46468040245E+03 -0.20928224933E+03  0.32883761646E+03  0.60651555158E+03  0.00000000000E+00 0. -1.
        -11    1    3    3    0    0 -0.25110764683E+03 -0.73187961236E+02  0.10773121841E+03  0.28287372339E+03  0.00000000000E+00 0.  1.
         22    1    1    2    0    0  0.71578804928E+03  0.28247021057E+03 -0.60280897286E+03  0.97750734479E+03  0.00000000000E+00 0.  1.
<mgrwt>
<rscale>  0 0.18594804E+04</rscale>
<asrwt>0</asrwt>
<pdfrwt beam="1">  1        1 0.15639514E+00 0.18594804E+04</pdfrwt>
<pdfrwt beam="2">  1       -1 0.13081973E+00 0.18594804E+04</pdfrwt>
<totfact> 0.68835127E+00</totfact>
</mgrwt>
</event>
<event>
 6    1  0.1588846E-005  0.2198199E+04  0.7818608E-02  0.8519178E-01
          1   -1    0    0  501    0  0.00000000000E+00  0.00000000000E+00  0.10198976013E+04  0.10198976013E+04  0.00000000000E+00 0. -1.
         -1   -1    0    0    0  501 -0.00000000000E+00 -0.00000000000E+00 -0.11844517288E+04  0.11844517288E+04  0.00000000000E+00 0.  1.
         23    2    1    2    0    0 -0.10952224970E+00 -0.53572934837E+03  0.87787618370E+03  0.10323139635E+04  0.89440363676E+02 0.  0.
         11    1    3    3    0    0 -0.36688065679E+02 -0.24318600286E+03  0.44772757413E+03  0.51082817736E+03  0.00000000000E+00 0. -1.
        -11    1    3    3    0    0  0.36578543429E+02 -0.29254334552E+03  0.43014860957E+03  0.52148578616E+03  0.00000000000E+00 0.  1.
         22    1    1    2    0    0  0.10952224970E+00  0.53572934837E+03 -0.10424303112E+04  0.11720353665E+04  0.00000000000E+00 0.  1.
<mgrwt>
<rscale>  0 0.21981988E+04</rscale>
<asrwt>0</asrwt>
<pdfrwt beam="1">  1        1 0.15690732E+00 0.21981988E+04</pdfrwt>
<pdfrwt beam="2">  1       -1 0.18222334E+00 0.21981988E+04</pdfrwt>
<totfact> 0.26707903E+00</totfact>
</mgrwt>
</event>
<event>
 6    1  0.1588846E-005  0.2424508E+04  0.7818608E-02  0.8430385E-01
          2   -1    0    0  501    0  0.00000000000E+00  0.00000000000E+00  0.22231539680E+04  0.22231539680E+04  0.00000000000E+00 0. -1.
         -2   -1    0    0    0  501 -0.00000000000E+00 -0.00000000000E+00 -0.66102482234E+03  0.66102482234E+03  0.00000000000E+00 0.  1.
         23    2    1    2    0    0 -0.43254775689E+03  0.33945718485E+03  0.20650653017E+04  0.21390120174E+04  0.92460628978E+02 0.  0.
         11    1    3    3    0    0 -0.30105469767E+03  0.25922758612E+03  0.13343021471E+04  0.13921907528E+04  0.00000000000E+00 0. -1.
        -11    1    3    3    0    0 -0.13149305921E+03  0.80229598725E+02  0.73076315466E+03  0.74682126466E+03  0.00000000000E+00 0.  1.
         22    1    1    2    0    0  0.43254775689E+03 -0.33945718485E+03 -0.50293615610E+03  0.74516677290E+03  0.00000000000E+00 0.  1.
<mgrwt>
<rscale>  0 0.24245082E+04</rscale>
<asrwt>0</asrwt>
<pdfrwt beam="1">  1        2 0.34202368E+00 0.24245082E+04</pdfrwt>
<pdfrwt beam="2">  1       -2 0.10169613E+00 0.24245082E+04</pdfrwt>
<totfact> 0.35682413E+00</totfact>
</mgrwt>
</event>
<event>
 6    1  0.1588846E-005  0.1216767E+04  0.7818608E-02  0.9098306E-01
          2   -1    0    0  501    0  0.00000000000E+00  0.00000000000E+00  0.50158569595E+03  0.50158569595E+03  0.00000000000E+00 0. -1.
         -2   -1    0    0    0  501 -0.00000000000E+00 -0.00000000000E+00 -0.73792048043E+03  0.73792048043E+03  0.00000000000E+00 0.  1.
         23    2    1    2    0    0  0.27923160900E+03 -0.20961181808E+03 -0.62220296976E+03  0.71912010608E+03  0.89943235700E+02 0.  0.
         13    1    3    3    0    0  0.24080732534E+03 -0.17375364067E+03 -0.58044732324E+03  0.65199508483E+03  0.00000000000E+00 0. -1.
        -13    1    3    3    0    0  0.38424283662E+02 -0.35858177406E+02 -0.41755646519E+02  0.67125021252E+02  0.00000000000E+00 0.  1.
         22    1    1    2    0    0 -0.27923160900E+03  0.20961181808E+03  0.38586818529E+03  0.52038607030E+03  0.00000000000E+00 0. -1.
<mgrwt>
<rscale>  0 0.12167668E+04</rscale>
<asrwt>0</asrwt>
<pdfrwt beam="1">  1        2 0.77167030E-01 0.12167668E+04</pdfrwt>
<pdfrwt beam="2">  1       -2 0.11352623E+00 0.12167668E+04</pdfrwt>
<totfact> 0.36794334E+01</totfact>
</mgrwt>
</event>
<event>
 6    1  0.1588846E-005  0.3360584E+04  0.7818608E-02  0.8147649E-01
          1   -1    0    0  501    0  0.00000000000E+00  0.00000000000E+00  0.10706581335E+04  0.10706581335E+04  0.00000000000E+00 0. -1.
         -1   -1    0    0    0  501 -0.00000000000E+00 -0.00000000000E+00 -0.26370522319E+04  0.26370522319E+04  0.00000000000E+00 0.  1.
         23    2    1    2    0    0  0.10491748432E+04  0.79810074350E+03 -0.19311868128E+04  0.23399361250E+04  0.89921712647E+02 0.  0.
         13    1    3    3    0    0  0.92433348575E+03  0.72882885396E+03 -0.17543373604E+04  0.21126484482E+04  0.00000000000E+00 0.  1.
        -13    1    3    3    0    0  0.12484135749E+03  0.69271889548E+02 -0.17684945238E+03  0.22728767681E+03  0.00000000000E+00 0. -1.
         22    1    1    2    0    0 -0.10491748432E+04 -0.79810074350E+03  0.36479271441E+03  0.13677742405E+04  0.00000000000E+00 0. -1.
<mgrwt>
<rscale>  0 0.33605841E+04</rscale>
<asrwt>0</asrwt>
<pdfrwt beam="1">  1        1 0.16471664E+00 0.33605841E+04</pdfrwt>
<pdfrwt beam="2">  1       -1 0.40570034E+00 0.33605841E+04</pdfrwt>
<totfact> 0.71960175E-02</totfact>
</mgrwt>
</event>
<event>
 6    1  0.1588846E-005  0.4215104E+03  0.7818608E-02  0.1036576E+00
          1   -1    0    0  501    0  0.00000000000E+00  0.00000000000E+00  0.28381106513E+04  0.28381106513E+04  0.00000000000E+00 0. -1.
         -1   -1    0    0    0  501 -0.00000000000E+00 -0.00000000000E+00 -0.15650462794E+02  0.15650462794E+02  0.00000000000E+00 0.  1.
         23    2    1    2    0    0 -0.49333175837E+02 -0.17872137811E+03  0.19941001890E+04  0.20049057778E+04  0.94002769741E+02 0.  0.
         11    1    3    3    0    0 -0.47831694155E+02 -0.31061701790E+02  0.72602091775E+03  0.72825755972E+03  0.00000000000E+00 0. -1.
        -11    1    3    3    0    0 -0.15014816817E+01 -0.14765967632E+03  0.12680792713E+04  0.12766482181E+04  0.00000000000E+00 0.  1.
         22    1    1    2    0    0  0.49333175837E+02  0.17872137811E+03  0.82835999949E+03  0.84885533632E+03  0.00000000000E+00 0.  1.
<mgrwt>
<rscale>  0 0.42151036E+03</rscale>
<asrwt>0</asrwt>
<pdfrwt beam="1">  1        1 0.43663200E+00 0.42151036E+03</pdfrwt>
<pdfrwt beam="2">  1       -1 0.24077658E-02 0.42151036E+03</pdfrwt>
<totfact> 0.47838145E+02</totfact>
</mgrwt>
</event>
<event>
 6    1  0.1588846E-005  0.1398361E+04  0.7818608E-02  0.8955005E-01
         -1   -1    0    0    0  501 -0.00000000000E+00  0.00000000000E+00  0.36619066383E+03  0.36619066383E+03  0.00000000000E+00 0.  1.
          1   -1    0    0  501    0  0.00000000000E+00 -0.00000000000E+00 -0.13349704645E+04  0.13349704645E+04  0.00000000000E+00 0. -1.
         23    2    1    2    0    0 -0.26378591556E+03 -0.26645738790E+03  0.22716009480E+03  0.44782367083E+03  0.91442783597E+02 0.  0.
         11    1    3    3    0    0 -0.22861435893E+03 -0.24108584052E+03  0.16221613647E+03  0.36973095967E+03  0.00000000000E+00 0. -1.
        -11    1    3    3    0    0 -0.35171556629E+02 -0.25371547379E+02  0.64943958334E+02  0.78092711159E+02  0.00000000000E+00 0.  1.
         22    1    1    2    0    0  0.26378591556E+03  0.26645738790E+03 -0.11959398955E+04  0.12533374575E+04  0.00000000000E+00 0. -1.
<mgrwt>
<rscale>  0 0.13983615E+04</rscale>
<asrwt>0</asrwt>
<pdfrwt beam="1">  1        1 0.20538007E+00 0.13983615E+04</pdfrwt>
<pdfrwt beam="2">  1       -1 0.56337025E-01 0.13983615E+04</pdfrwt>
<totfact> 0.26552400E+01</totfact>
</mgrwt>
</event>
<event>
 6    1  0.1588846E-005  0.2543398E+04  0.7818608E-02  0.8387686E-01
         -2   -1    0    0    0  501 -0.00000000000E+00  0.00000000000E+00  0.54317476723E+03  0.54317476723E+03  0.00000000000E+00 0.  1.
          2   -1    0    0  501    0  0.00000000000E+00 -0.00000000000E+00 -0.29773434585E+04  0.29773434585E+04  0.00000000000E+00 0. -1.
         23    2    1    2    0    0 -0.32013851075E+03  0.12288283173E+04 -0.12479719536E+04  0.17828271139E+04  0.92362447579E+02 0.  0.
         13    1    3    3    0    0 -0.29402712164E+02  0.24879682790E+03 -0.22758372318E+03  0.33846525983E+03  0.00000000000E+00 0.  1.
        -13    1    3    3    0    0 -0.29073579858E+03  0.98003148942E+03 -0.10203882304E+04  0.14443618541E+04  0.00000000000E+00 0. -1.
         22    1    1    2    0    0  0.32013851075E+03 -0.12288283173E+04 -0.11861967376E+04  0.17376911118E+04  0.00000000000E+00 0.  1.
<mgrwt>
<rscale>  0 0.25433976E+04</rscale>
<asrwt>0</asrwt>
<pdfrwt beam="1">  1        2 0.45805284E+00 0.25433976E+04</pdfrwt>
<pdfrwt beam="2">  1       -2 0.83565348E-01 0.25433976E+04</pdfrwt>
<totfact> 0.20024467E+00</totfact>
</mgrwt>
</event>
<event>
 6    1  0.1588846E-005  0.2760908E+04  0.7818608E-02  0.8315509E-01
          1   -1    0    0  501    0  0.00000000000E+00  0.00000000000E+00  0.19212643071E+04  0.19212643071E+04  0.00000000000E+00 0. -1.
         -1   -1    0    0    0  501 -0.00000000000E+00 -0.00000000000E+00 -0.99187473543E+03  0.99187473543E+03  0.00000000000E+00 0.  1.
         23    2    1    2    0    0  0.99599067680E+03  0.72471521486E+03 -0.18891567477E+03  0.12494635348E+04  0.90886861509E+02 0.  0.
         13    1    3    3    0    0  0.78488914996E+03  0.61387989010E+03 -0.16187247845E+03  0.10095059170E+04  0.00000000000E+00 0.  1.
        -13    1    3    3    0    0  0.21110152685E+03  0.11083532475E+03 -0.27043196328E+02  0.23995761775E+03  0.00000000000E+00 0. -1.
         22    1    1    2    0    0 -0.99599067680E+03 -0.72471521486E+03  0.11183052464E+04  0.16636755078E+04  0.00000000000E+00 0. -1.
<mgrwt>
<rscale>  0 0.27609082E+04</rscale>
<asrwt>0</asrwt>
<pdfrwt beam="1">  1        1 0.29557912E+00 0.27609082E+04</pdfrwt>
<pdfrwt beam="2">  1       -1 0.15259611E+00 0.27609082E+04</pdfrwt>
<totfact> 0.97490805E-01</totfact>
</mgrwt>
</event>
<event>
 6    1  0.1588846E-005  0.1130870E+04  0.7818608E-02  0.9175615E-01
         -1   -1    0    0    0  501 -0.00000000000E+00  0.00000000000E+00  0.13665020612E+03  0.13665020612E+03  0.00000000000E+00 0.  1.
          1   -1    0    0  501    0  0.00000000000E+00 -0.00000000000E+00 -0.23396736527E+04  0.23396736527E+04  0.00000000000E+00 0. -1.
         23    2    1    2    0    0  0.40432750621E+02  0.36402896271E+03 -0.17865836377E+03  0.41909128045E+03  0.97810006595E+02 0.  0.
         13    1    3    3    0    0  0.48172657569E+02  0.70152698901E+02 -0.42094926431E+02  0.94942029321E+02  0.00000000000E+00 0. -1.
        -13    1    3    3    0    0 -0.77399069486E+01  0.29387626381E+03 -0.13656343734E+03  0.32414925113E+03  0.00000000000E+00 0.  1.
         22    1    1    2    0    0 -0.40432750621E+02 -0.36402896271E+03 -0.20243650828E+04  0.20572325784E+04  0.00000000000E+00 0. -1.
<mgrwt>
<rscale>  0 0.11308703E+04</rscale>
<asrwt>0</asrwt>
<pdfrwt beam="1">  1        1 0.35994975E+00 0.11308703E+04</pdfrwt>
<pdfrwt beam="2">  1       -1 0.21023111E-01 0.11308703E+04</pdfrwt>
<totfact> 0.32893619E+01</totfact>
</mgrwt>
</event>
<event>
 6    1  0.1588846E-005  0.2323967E+04  0.7818608E-02  0.8468531E-01
         -2   -1    0    0    0  501 -0.00000000000E+00  0.00000000000E+00  0.86653102138E+03  0.86653102138E+03  0.00000000000E+00 0.  1.
          2   -1    0    0  501    0  0.00000000000E+00 -0.00000000000E+00 -0.15581733576E+04  0.15581733576E+04  0.00000000000E+00 0. -1.
         23    2    1    2    0    0 -0.59130153204E+03 -0.72199329478E+03 -0.10658917337E+04  0.14192321362E+04  0.84751688844E+02 0.  0.
         13    1    3    3    0    0 -0.22247575384E+03 -0.24789367059E+03 -0.43842403310E+03  0.55060182143E+03  0.00000000000E+00 0.  1.
        -13    1    3    3    0    0 -0.36882577821E+03 -0.47409962419E+03 -0.62746770063E+03  0.86863031472E+03  0.00000000000E+00 0. -1.
         22    1    1    2    0    0  0.59130153204E+03  0.72199329478E+03  0.37424939753E+03  0.10054722428E+04  0.00000000000E+00 0.  1.
<mgrwt>
<rscale>  0 0.23239669E+04</rscale>
<asrwt>0</asrwt>
<pdfrwt beam="1">  1        2 0.23971898E+00 0.23239669E+04</pdfrwt>
<pdfrwt beam="2">  1       -2 0.13331246E+00 0.23239669E+04</pdfrwt>
<totfact> 0.43398028E+00</totfact>
</mgrwt>
</event>
<event>
 6    1  0.1713540E-005  0.3309562E+04  0.7818608E-02  0.8160467E-01
          2   -1    0    0  501    0  0.00000000000E+00  0.00000000000E+00  0.11876489491E+04  0.11876489491E+04  0.00000000000E+00 0. -1.
         -2   -1    0    0    0  501 -0.00000000000E+00 -0.00000000000E+00 -0.23056480358E+04  0.23056480358E+04  0.00000000000E+00 0.  1.
         23    2    1    2    0    0 -0.16981359766E+03  0.42989977078E+03 -0.22351445623E+04  0.22843038153E+04  0.92315953646E+02 0.  0.
         13    1    3    3    0    0 -0.11921393508E+03  0.32290800519E+03 -0.14504291177E+04  0.14907133083E+04  0.00000000000E+00 0. -1.
        -13    1    3    3    0    0 -0.50599662581E+02  0.10699176560E+03 -0.78471544457E+03  0.79359050694E+03  0.00000000000E+00 0.  1.
         22    1    1    2    0    0  0.16981359766E+03 -0.42989977078E+03  0.11171454755E+04  0.12089931697E+04  0.00000000000E+00 0. -1.
<mgrwt>
<rscale>  0 0.33095622E+04</rscale>
<asrwt>0</asrwt>
<pdfrwt beam="1">  1        2 0.18271522E+00 0.33095622E+04</pdfrwt>
<pdfrwt beam="2">  1       -2 0.35471508E+00 0.33095622E+04</pdfrwt>
<totfact> 0.23346780E-01</totfact>
</mgrwt>
</event>
<event>
 6    1  0.1588846E-005  0.3445443E+04  0.7818608E-02  0.8126842E-01
         -1   -1    0    0    0  501 -0.00000000000E+00  0.00000000000E+00  0.21736383507E+04  0.21736383507E+04  0.00000000000E+00 0.  1.
          1   -1    0    0  501    0  0.00000000000E+00 -0.00000000000E+00 -0.13653465508E+04  0.13653465508E+04  0.00000000000E+00 0. -1.
         23    2    1    2    0    0  0.15264298660E+03  0.11484387798E+04  0.17123502056E+04  0.20694499025E+04  0.90929421302E+02 0.  0.
         11    1    3    3    0    0  0.78924551418E+02  0.80350559618E+03  0.12464888239E+04  0.14851211116E+04  0.00000000000E+00 0.  1.
        -11    1    3    3    0    0  0.73718435185E+02  0.34493318366E+03  0.46586138170E+03  0.58432879086E+03  0.00000000000E+00 0. -1.
         22    1    1    2    0    0 -0.15264298660E+03 -0.11484387798E+04 -0.90405840568E+03  0.14695349990E+04  0.00000000000E+00 0. -1.
<mgrwt>
<rscale>  0 0.34454431E+04</rscale>
<asrwt>0</asrwt>
<pdfrwt beam="1">  1        1 0.21005332E+00 0.34454431E+04</pdfrwt>
<pdfrwt beam="2">  1       -1 0.33440590E+00 0.34454431E+04</pdfrwt>
<totfact> 0.13114536E-01</totfact>
</mgrwt>
</event>
<event>
 6    1  0.1588846E-005  0.6889878E+04  0.7818608E-02  0.7588900E-01
          1   -1    0    0  501    0  0.00000000000E+00  0.00000000000E+00  0.32025817048E+04  0.32025817048E+04  0.00000000000E+00 0. -1.
         -1   -1    0    0    0  501 -0.00000000000E+00 -0.00000000000E+00 -0.37056367667E+04  0.37056367667E+04  0.00000000000E+00 0.  1.
         23    2    1    2    0    0 -0.18789595782E+04  0.22801150239E+03 -0.31369112941E+04  0.36648133174E+04  0.90365049416E+02 0.  0.
         13    1    3    3    0    0 -0.25526519515E+03  0.26934325399E+02 -0.48736277591E+03  0.55082506577E+03  0.00000000000E+00 0. -1.
        -13    1    3    3    0    0 -0.16236943830E+04  0.20107717699E+03 -0.26495485182E+04  0.31139882516E+04  0.00000000000E+00 0.  1.
         22    1    1    2    0    0  0.18789595782E+04 -0.22801150239E+03  0.26338562323E+04  0.32434051541E+04  0.00000000000E+00 0. -1.
<mgrwt>
<rscale>  0 0.68898779E+04</rscale>
<asrwt>0</asrwt>
<pdfrwt beam="1">  1        1 0.49270488E+00 0.68898779E+04</pdfrwt>
<pdfrwt beam="2">  1       -1 0.57009796E+00 0.68898779E+04</pdfrwt>
<totfact> 0.16125469E-04</totfact>
</mgrwt>
</event>
<event>
 6    1  0.1588846E-005  0.1976670E+04  0.7818608E-02  0.8617606E-01
          2   -1    0    0  501    0  0.00000000000E+00  0.00000000000E+00  0.16091880466E+04  0.16091880466E+04  0.00000000000E+00 0.  1.
         -2   -1    0    0    0  501 -0.00000000000E+00 -0.00000000000E+00 -0.60701824208E+03  0.60701824208E+03  0.00000000000E+00 0. -1.
         23    2    1    2    0    0  0.30474817257E+03  0.26141766602E+03 -0.50774876295E+03  0.65381558044E+03  0.91953043261E+02 0.  0.
         11    1    3    3    0    0  0.12052893663E+03  0.16317595395E+03 -0.23852998338E+03  0.31312963687E+03  0.00000000000E+00 0. -1.
        -11    1    3    3    0    0  0.18421923593E+03  0.98241712069E+02 -0.26921877956E+03  0.34068594357E+03  0.00000000000E+00 0.  1.
         22    1    1    2    0    0 -0.30474817257E+03 -0.26141766602E+03  0.15099185675E+04  0.15623907083E+04  0.00000000000E+00 0.  1.
<mgrwt>
<rscale>  0 0.19766704E+04</rscale>
<asrwt>0</asrwt>
<pdfrwt beam="1">  1        2 0.24756739E+00 0.19766704E+04</pdfrwt>
<pdfrwt beam="2">  1       -2 0.93387423E-01 0.19766704E+04</pdfrwt>
<totfact> 0.99508812E+00</totfact>
</mgrwt>
</event>
<event>
 6    1  0.1588846E-005  0.2612277E+04  0.7818608E-02  0.8364043E-01
          2   -1    0    0  501    0  0.00000000000E+00  0.00000000000E+00  0.29023982796E+04  0.29023982796E+04  0.00000000000E+00 0.  1.
         -2   -1    0    0    0  501 -0.00000000000E+00 -0.00000000000E+00 -0.58778893320E+03  0.58778893320E+03  0.00000000000E+00 0. -1.
         23    2    1    2    0    0 -0.10207928964E+04 -0.11601011992E+03  0.84574895379E+02  0.10348806865E+04  0.91370876887E+02 0.  0.
         11    1    3    3    0    0 -0.44009124122E+03 -0.51676107120E+02 -0.88538195180E+01  0.44320323867E+03  0.00000000000E+00 0.  1.
        -11    1    3    3    0    0 -0.58070165518E+03 -0.64334012799E+02  0.93428714897E+02  0.59167744785E+03  0.00000000000E+00 0. -1.
         22    1    1    2    0    0  0.10207928964E+04  0.11601011992E+03  0.22300344510E+04  0.24553065263E+04  0.00000000000E+00 0.  1.
<mgrwt>
<rscale>  0 0.26122769E+04</rscale>
<asrwt>0</asrwt>
<pdfrwt beam="1">  1        2 0.44652280E+00 0.26122769E+04</pdfrwt>
<pdfrwt beam="2">  1       -2 0.90429068E-01 0.26122769E+04</pdfrwt>
<totfact> 0.18490619E+00</totfact>
</mgrwt>
</event>
<event>
 6    1  0.1588846E-005  0.9755714E+03  0.7818608E-02  0.9335751E-01
         -1   -1    0    0    0  501 -0.00000000000E+00  0.00000000000E+00  0.12757432356E+03  0.12757432356E+03  0.00000000000E+00 0.  1.
          1   -1    0    0  501    0  0.00000000000E+00 -0.00000000000E+00 -0.18650689254E+04  0.18650689254E+04  0.00000000000E+00 0. -1.
         23    2    1    2    0    0 -0.11136023430E+03  0.41829304769E+03 -0.43583461451E+03  0.62089658936E+03  0.90501867033E+02 0.  0.
         13    1    3    3    0    0 -0.97227086682E+02  0.32233334747E+03 -0.28268989568E+03  0.43961968836E+03  0.00000000000E+00 0.  1.
        -13    1    3    3    0    0 -0.14133147619E+02  0.95959700229E+02 -0.15314471883E+03  0.18127690100E+03  0.00000000000E+00 0. -1.
         22    1    1    2    0    0  0.11136023430E+03 -0.41829304769E+03 -0.13016599873E+04  0.13717466596E+04  0.00000000000E+00 0. -1.
<mgrwt>
<rscale>  0 0.97557144E+03</rscale>
<asrwt>0</asrwt>
<pdfrwt beam="1">  1        1 0.28693367E+00 0.97557144E+03</pdfrwt>
<pdfrwt beam="2">  1       -1 0.19626820E-01 0.97557144E+03</pdfrwt>
<totfact> 0.78274205E+01</totfact>
</mgrwt>
</event>
<event>
 6    1  0.1588846E-005  0.1722596E+04  0.7818608E-02  0.8748581E-01
         -2   -1    0    0    0  501 -0.00000000000E+00  0.00000000000E+00  0.59052667267E+03  0.59052667267E+03  0.00000000000E+00 0.  1.
          2   -1    0    0  501    0  0.00000000000E+00 -0.00000000000E+00 -0.12562241176E+04  0.12562241176E+04  0.00000000000E+00 0. -1.
         23    2    1    2    0    0  0.53657146150E+03 -0.57535127992E+03  0.35469250107E+02  0.79291362883E+03  0.92281777651E+02 0.  0.
         13    1    3    3    0    0  0.14339085569E+03 -0.11831090766E+03 -0.22440007016E+02  0.18724839727E+03  0.00000000000E+00 0.  1.
        -13    1    3    3    0    0  0.39318060581E+03 -0.45704037226E+03  0.57909257124E+02  0.60566523156E+03  0.00000000000E+00 0. -1.
         22    1    1    2    0    0 -0.53657146150E+03  0.57535127992E+03 -0.70116669504E+03  0.10538371614E+04  0.00000000000E+00 0. -1.
<mgrwt>
<rscale>  0 0.17225955E+04</rscale>
<asrwt>0</asrwt>
<pdfrwt beam="1">  1        2 0.19326525E+00 0.17225955E+04</pdfrwt>
<pdfrwt beam="2">  1       -2 0.90850258E-01 0.17225955E+04</pdfrwt>
<totfact> 0.17229664E+01</totfact>
</mgrwt>
</event>
<event>
 6    1  0.1588846E-005  0.1355324E+04  0.7818608E-02  0.8986808E-01
         -2   -1    0    0    0  501 -0.00000000000E+00  0.00000000000E+00  0.31145105808E+03  0.31145105808E+03  0.00000000000E+00 0.  1.
          2   -1    0    0  501    0  0.00000000000E+00 -0.00000000000E+00 -0.14744707258E+04  0.14744707258E+04  0.00000000000E+00 0. -1.
         23    2    1    2    0    0 -0.25625920248E+03  0.58765732320E+03 -0.86005569404E+03  0.10768399284E+04  0.94225931736E+02 0.  0.
         13    1    3    3    0    0 -0.17499055023E+03  0.43174850529E+03 -0.55362982604E+03  0.72355680411E+03  0.00000000000E+00 0.  1.
        -13    1    3    3    0    0 -0.81268652250E+02  0.15590881791E+03 -0.30642586800E+03  0.35328312431E+03  0.00000000000E+00 0. -1.
         22    1    1    2    0    0  0.25625920248E+03 -0.58765732320E+03 -0.30296397366E+03  0.70908185543E+03  0.00000000000E+00 0.  1.
<mgrwt>
<rscale>  0 0.13553235E+04</rscale>
<asrwt>0</asrwt>
<pdfrwt beam="1">  1        2 0.22684165E+00 0.13553235E+04</pdfrwt>
<pdfrwt beam="2">  1       -2 0.47915548E-01 0.13553235E+04</pdfrwt>
<totfact> 0.52864949E+01</totfact>
</mgrwt>
</event>
<event>
 6    1  0.1588846E-005  0.1873556E+04  0.7818608E-02  0.8668132E-01
          1   -1    0    0  501    0  0.00000000000E+00  0.00000000000E+00  0.23994777682E+04  0.23994777682E+04  0.00000000000E+00 0. -1.
         -1   -1    0    0    0  501 -0.00000000000E+00 -0.00000000000E+00 -0.36572658619E+03  0.36572658619E+03  0.00000000000E+00 0.  1.
         23    2    1    2    0    0 -0.12043206956E+03 -0.83067302685E+03  0.16259786398E+04  0.18320376988E+04  0.89632760627E+02 0.  0.
         13    1    3    3    0    0 -0.19947242072E+02 -0.40112569950E+03  0.72297819982E+03  0.82704123034E+03  0.00000000000E+00 0.  1.
        -13    1    3    3    0    0 -0.10048482749E+03 -0.42954732735E+03  0.90300044002E+03  0.10049964685E+04  0.00000000000E+00 0. -1.
         22    1    1    2    0    0  0.12043206956E+03  0.83067302685E+03  0.40777254218E+03  0.93316665557E+03  0.00000000000E+00 0.  1.
<mgrwt>
<rscale>  0 0.18735558E+04</rscale>
<asrwt>0</asrwt>
<pdfrwt beam="1">  1        1 0.36915042E+00 0.18735558E+04</pdfrwt>
<pdfrwt beam="2">  1       -1 0.56265630E-01 0.18735558E+04</pdfrwt>
<totfact> 0.47684056E+00</totfact>
</mgrwt>
</event>
<event>
 6    1  0.1588846E-005  0.3846932E+04  0.7818608E-02  0.8036158E-01
         -2   -1    0    0    0  501 -0.00000000000E+00  0.00000000000E+00  0.79326794378E+03  0.79326794378E+03  0.00000000000E+00 0.  1.
          2   -1    0    0  501    0  0.00000000000E+00 -0.00000000000E+00 -0.46638985295E+04  0.46638985295E+04  0.00000000000E+00 0. -1.
         23    2    1    2    0    0 -0.17662999466E+04 -0.50999564506E+03 -0.27335816114E+04  0.32955024315E+04  0.89200843916E+02 0.  0.
         13    1    3    3    0    0 -0.10851473234E+04 -0.27304609447E+03 -0.16978558634E+04  0.20334240621E+04  0.00000000000E+00 0. -1.
        -13    1    3    3    0    0 -0.68115262320E+03 -0.23694955060E+03 -0.10357257480E+04  0.12620783694E+04  0.00000000000E+00 0.  1.
         22    1    1    2    0    0  0.17662999466E+04  0.50999564506E+03 -0.11370489744E+04  0.21616640418E+04  0.00000000000E+00 0.  1.
<mgrwt>
<rscale>  0 0.38469319E+04</rscale>
<asrwt>0</asrwt>
<pdfrwt beam="1">  1        2 0.71752285E+00 0.38469319E+04</pdfrwt>
<pdfrwt beam="2">  1       -2 0.12204122E+00 0.38469319E+04</pdfrwt>
<totfact> 0.33833301E-02</totfact>
</mgrwt>
</event>
<event>
 6    1  0.1588846E-005  0.2255616E+04  0.7818608E-02  0.8495630E-01
         -1   -1    0    0    0  501 -0.00000000000E+00  0.00000000000E+00  0.28621749502E+04  0.28621749502E+04  0.00000000000E+00 0.  1.
          1   -1    0    0  501    0  0.00000000000E+00 -0.00000000000E+00 -0.44440016614E+03  0.44440016614E+03  0.00000000000E+00 0. -1.
         23    2    1    2    0    0 -0.19332019295E+03 -0.76773640142E+03  0.23846667377E+04  0.25141812611E+04  0.87636092886E+02 0.  0.
         13    1    3    3    0    0 -0.60400893066E+02 -0.20524852880E+03  0.77065264614E+03  0.79980042977E+03  0.00000000000E+00 0. -1.
        -13    1    3    3    0    0 -0.13291929988E+03 -0.56248787262E+03  0.16140140916E+04  0.17143808314E+04  0.00000000000E+00 0.  1.
         22    1    1    2    0    0  0.19332019295E+03  0.76773640142E+03  0.33108046362E+02  0.79239385522E+03  0.00000000000E+00 0. -1.
<mgrwt>
<rscale>  0 0.22556161E+04</rscale>
<asrwt>0</asrwt>
<pdfrwt beam="1">  1        1 0.68369258E-01 0.22556161E+04</pdfrwt>
<pdfrwt beam="2">  1       -1 0.44033460E+00 0.22556161E+04</pdfrwt>
<totfact> 0.17829535E-01</totfact>
</mgrwt>
</event>
<event>
 6    1  0.1588846E-005  0.2546765E+04  0.7818608E-02  0.8386512E-01
         -3   -1    0    0    0  501 -0.00000000000E+00  0.00000000000E+00  0.14289466343E+04  0.14289466343E+04  0.00000000000E+00 0. -1.
          3   -1    0    0  501    0  0.00000000000E+00 -0.00000000000E+00 -0.11347543232E+04  0.11347543232E+04  0.00000000000E+00 0.  1.
         23    2    1    2    0    0  0.52286010673E+03  0.75126330807E+03 -0.74157734471E+03  0.11814571189E+04  0.90137208814E+02 0.  0.
         13    1    3    3    0    0  0.31729220379E+03  0.51580894800E+03 -0.52152707783E+03  0.79920191837E+03  0.00000000000E+00 0. -1.
        -13    1    3    3    0    0  0.20556790294E+03  0.23545436007E+03 -0.22005026689E+03  0.38225520056E+03  0.00000000000E+00 0.  1.
         22    1    1    2    0    0 -0.52286010673E+03 -0.75126330807E+03  0.10357696559E+04  0.13822438386E+04  0.00000000000E+00 0. -1.
<mgrwt>
<rscale>  0 0.25467653E+04</rscale>
<asrwt>0</asrwt>
<pdfrwt beam="1">  1        3 0.17457759E+00 0.25467653E+04</pdfrwt>
<pdfrwt beam="2">  1       -3 0.21983794E+00 0.25467653E+04</pdfrwt>
<totfact> 0.55131791E-02</totfact>
</mgrwt>
</event>
<event>
 6    1  0.1588846E-005  0.3833647E+04  0.7818608E-02  0.8038973E-01
          2   -1    0    0  501    0  0.00000000000E+00  0.00000000000E+00  0.18973253006E+04  0.18973253006E+04  0.00000000000E+00 0. -1.
         -2   -1    0    0    0  501 -0.00000000000E+00 -0.00000000000E+00 -0.19365215755E+04  0.19365215755E+04  0.00000000000E+00 0.  1.
         23    2    1    2    0    0 -0.68529281466E+03  0.15501085198E+04  0.87347568281E+03  0.19088968074E+04  0.92003194097E+02 0.  0.
         13    1    3    3    0    0 -0.28443780389E+03  0.75429707774E+03  0.42612082192E+03  0.91183765038E+03  0.00000000000E+00 0. -1.
        -13    1    3    3    0    0 -0.40085501077E+03  0.79581144208E+03  0.44735486088E+03  0.99705915700E+03  0.00000000000E+00 0.  1.
         22    1    1    2    0    0  0.68529281466E+03 -0.15501085198E+04 -0.91267195770E+03  0.19249500688E+04  0.00000000000E+00 0.  1.
<mgrwt>
<rscale>  0 0.38336465E+04</rscale>
<asrwt>0</asrwt>
<pdfrwt beam="1">  1        2 0.29189620E+00 0.38336465E+04</pdfrwt>
<pdfrwt beam="2">  1       -2 0.29792640E+00 0.38336465E+04</pdfrwt>
<totfact> 0.19938711E-01</totfact>
</mgrwt>
</event>
<event>
 6    1  0.1588846E-005  0.2575244E+04  0.7818608E-02  0.8376659E-01
          1   -1    0    0  501    0  0.00000000000E+00  0.00000000000E+00  0.29056029996E+04  0.29056029996E+04  0.00000000000E+00 0. -1.
         -1   -1    0    0    0  501 -0.00000000000E+00 -0.00000000000E+00 -0.57061162736E+03  0.57061162736E+03  0.00000000000E+00 0.  1.
         23    2    1    2    0    0 -0.86018381788E+03  0.94297454501E+03  0.95598583402E+03  0.15971793778E+04  0.89195610976E+02 0.  0.
         13    1    3    3    0    0 -0.14690481783E+03  0.13095438846E+03  0.17947057242E+03  0.26634519655E+03  0.00000000000E+00 0. -1.
        -13    1    3    3    0    0 -0.71327900005E+03  0.81202015655E+03  0.77651526160E+03  0.13308341813E+04  0.00000000000E+00 0.  1.
         22    1    1    2    0    0  0.86018381788E+03 -0.94297454501E+03  0.13790055383E+04  0.18790352492E+04  0.00000000000E+00 0. -1.
<mgrwt>
<rscale>  0 0.25752443E+04</rscale>
<asrwt>0</asrwt>
<pdfrwt beam="1">  1        1 0.44701584E+00 0.25752443E+04</pdfrwt>
<pdfrwt beam="2">  1       -1 0.87786406E-01 0.25752443E+04</pdfrwt>
<totfact> 0.78809477E-01</totfact>
</mgrwt>
</event>
<event>
 6    1  0.1588846E-005  0.2759615E+04  0.7818608E-02  0.8315917E-01
          1   -1    0    0  501    0  0.00000000000E+00  0.00000000000E+00  0.18782530288E+04  0.18782530288E+04  0.00000000000E+00 0. -1.
         -1   -1    0    0    0  501 -0.00000000000E+00 -0.00000000000E+00 -0.10136378981E+04  0.10136378981E+04  0.00000000000E+00 0.  1.
         23    2    1    2    0    0  0.49204107605E+03 -0.12155237480E+04  0.87739354518E+03  0.15804925549E+04  0.92384416955E+02 0.  0.
         13    1    3    3    0    0  0.82545714337E+02 -0.28726406698E+03  0.17261899738E+03  0.34515468618E+03  0.00000000000E+00 0.  1.
        -13    1    3    3    0    0  0.40949536171E+03 -0.92825968098E+03  0.70477454780E+03  0.12353378687E+04  0.00000000000E+00 0. -1.
         22    1    1    2    0    0 -0.49204107605E+03  0.12155237480E+04 -0.12778414415E+02  0.13113983721E+04  0.00000000000E+00 0.  1.
<mgrwt>
<rscale>  0 0.27596148E+04</rscale>
<asrwt>0</asrwt>
<pdfrwt beam="1">  1        1 0.28896200E+00 0.27596148E+04</pdfrwt>
<pdfrwt beam="2">  1       -1 0.15594429E+00 0.27596148E+04</pdfrwt>
<totfact> 0.98268772E-01</totfact>
</mgrwt>
</event>
<event>
 6    1  0.1588846E-005  0.1059747E+04  0.7818608E-02  0.9245338E-01
         -1   -1    0    0    0  501 -0.00000000000E+00  0.00000000000E+00  0.45198687189E+03  0.45198687189E+03  0.00000000000E+00 0.  1.
          1   -1    0    0  501    0  0.00000000000E+00 -0.00000000000E+00 -0.62118176307E+03  0.62118176307E+03  0.00000000000E+00 0. -1.
         23    2    1    2    0    0  0.44442122946E+03  0.19196267782E+03  0.12325119328E+03  0.50758520948E+03  0.89955485514E+02 0.  0.
         11    1    3    3    0    0  0.66041856306E+02  0.64196975395E+02  0.11099879181E+02  0.92768452353E+02  0.00000000000E+00 0. -1.
        -11    1    3    3    0    0  0.37837937315E+03  0.12776570243E+03  0.11215131410E+03  0.41481675713E+03  0.00000000000E+00 0.  1.
         22    1    1    2    0    0 -0.44442122946E+03 -0.19196267782E+03 -0.29244608446E+03  0.56558342549E+03  0.00000000000E+00 0.  1.
<mgrwt>
<rscale>  0 0.10597471E+04</rscale>
<asrwt>0</asrwt>
<pdfrwt beam="1">  1        1 0.95566426E-01 0.10597471E+04</pdfrwt>
<pdfrwt beam="2">  1       -1 0.69536441E-01 0.10597471E+04</pdfrwt>
<totfact> 0.68068145E+01</totfact>
</mgrwt>
</event>
<event>
 6    1  0.1588846E-005  0.1674487E+04  0.7818608E-02  0.8776051E-01
         -2   -1    0    0    0  501 -0.00000000000E+00  0.00000000000E+00  0.19097703539E+03  0.19097703539E+03  0.00000000000E+00 0.  1.
          2   -1    0    0  501    0  0.00000000000E+00 -0.00000000000E+00 -0.36704756054E+04  0.36704756054E+04  0.00000000000E+00 0. -1.
         23    2    1    2    0    0  0.25620941483E+03 -0.33469018276E+03 -0.34065173193E+04  0.34336827896E+04  0.90313179194E+02 0.  0.
         11    1    3    3    0    0  0.38306121436E+02 -0.89955319504E+02 -0.10401490513E+04  0.10447341133E+04  0.00000000000E+00 0. -1.
        -11    1    3    3    0    0  0.21790329340E+03 -0.24473486326E+03 -0.23663682679E+04  0.23889486763E+04  0.00000000000E+00 0.  1.
         22    1    1    2    0    0 -0.25620941483E+03  0.33469018276E+03 -0.72981250807E+02  0.42776985127E+03  0.00000000000E+00 0.  1.
<mgrwt>
<rscale>  0 0.16744868E+04</rscale>
<asrwt>0</asrwt>
<pdfrwt beam="1">  1        2 0.56468857E+00 0.16744868E+04</pdfrwt>
<pdfrwt beam="2">  1       -2 0.29381082E-01 0.16744868E+04</pdfrwt>
<totfact> 0.63175532E+00</totfact>
</mgrwt>
</event>
<event>
 6    1  0.1588846E-005  0.2486115E+04  0.7818608E-02  0.8407949E-01
         -2   -1    0    0    0  501 -0.00000000000E+00  0.00000000000E+00  0.63984998823E+03  0.63984998823E+03  0.00000000000E+00 0.  1.
          2   -1    0    0  501    0  0.00000000000E+00 -0.00000000000E+00 -0.24149292479E+04  0.24149292479E+04  0.00000000000E+00 0. -1.
         23    2    1    2    0    0 -0.53496490088E+03  0.80690839702E+03  0.66045792744E+02  0.97462778372E+03  0.90822154212E+02 0.  0.
         13    1    3    3    0    0 -0.11878018382E+03  0.24799330717E+03  0.33718332406E+02  0.27703129500E+03  0.00000000000E+00 0. -1.
        -13    1    3    3    0    0 -0.41618471706E+03  0.55891508985E+03  0.32327460339E+02  0.69759648872E+03  0.00000000000E+00 0.  1.
         22    1    1    2    0    0  0.53496490088E+03 -0.80690839702E+03 -0.18411250524E+04  0.20801514524E+04  0.00000000000E+00 0. -1.
<mgrwt>
<rscale>  0 0.24861154E+04</rscale>
<asrwt>0</asrwt>
<pdfrwt beam="1">  1        2 0.37152757E+00 0.24861154E+04</pdfrwt>
<pdfrwt beam="2">  1       -2 0.98438461E-01 0.24861154E+04</pdfrwt>
<totfact> 0.29833027E+00</totfact>
</mgrwt>
</event>
<event>
 6    1  0.1588846E-005  0.2198528E+04  0.7818608E-02  0.8519041E-01
         -2   -1    0    0    0  501 -0.00000000000E+00  0.00000000000E+00  0.70708206953E+03  0.70708206953E+03  0.00000000000E+00 0. -1.
          2   -1    0    0  501    0  0.00000000000E+00 -0.00000000000E+00 -0.17089696173E+04  0.17089696173E+04  0.00000000000E+00 0.  1.
         23    2    1    2    0    0 -0.11784984939E+03 -0.10896849318E+04 -0.55799079889E+03  0.12335348112E+04  0.94617974819E+02 0.  0.
         11    1    3    3    0    0 -0.22920535828E+02 -0.61098165530E+03 -0.33180035743E+03  0.69564028870E+03  0.00000000000E+00 0. -1.
        -11    1    3    3    0    0 -0.94929313561E+02 -0.47870327650E+03 -0.22619044146E+03  0.53789452248E+03  0.00000000000E+00 0.  1.
         22    1    1    2    0    0  0.11784984939E+03  0.10896849318E+04 -0.44389674893E+03  0.11825168757E+04  0.00000000000E+00 0.  1.
<mgrwt>
<rscale>  0 0.21985284E+04</rscale>
<asrwt>0</asrwt>
<pdfrwt beam="1">  1        2 0.26291840E+00 0.21985284E+04</pdfrwt>
<pdfrwt beam="2">  1       -2 0.10878186E+00 0.21985284E+04</pdfrwt>
<totfact> 0.59824193E+00</totfact>
</mgrwt>
</event>
<event>
 6    1  0.1588846E-005  0.2032092E+04  0.7818608E-02  0.8591762E-01
          2   -1    0    0  501    0  0.00000000000E+00  0.00000000000E+00  0.17789073411E+04  0.17789073411E+04  0.00000000000E+00 0. -1.
         -2   -1    0    0    0  501 -0.00000000000E+00 -0.00000000000E+00 -0.58032789646E+03  0.58032789646E+03  0.00000000000E+00 0.  1.
         23    2    1    2    0    0  0.73230553320E+03  0.37825025673E+03 -0.85049168198E+02  0.83376905755E+03  0.92697517000E+02 0.  0.
         13    1    3    3    0    0  0.15862423081E+03  0.40556563690E+02 -0.16895955223E+02  0.16459633884E+03  0.00000000000E+00 0.  1.
        -13    1    3    3    0    0  0.57368130239E+03  0.33769369304E+03 -0.68153212974E+02  0.66917271871E+03  0.00000000000E+00 0. -1.
         22    1    1    2    0    0 -0.73230553320E+03 -0.37825025673E+03  0.12836286128E+04  0.15254661800E+04  0.00000000000E+00 0. -1.
<mgrwt>
<rscale>  0 0.20320921E+04</rscale>
<asrwt>0</asrwt>
<pdfrwt beam="1">  1        2 0.27367805E+00 0.20320921E+04</pdfrwt>
<pdfrwt beam="2">  1       -2 0.89281216E-01 0.20320921E+04</pdfrwt>
<totfact> 0.88429496E+00</totfact>
</mgrwt>
</event>
<event>
 6    1  0.1588846E-005  0.6184449E+04  0.7818608E-02  0.7667944E-01
         -1   -1    0    0    0  501 -0.00000000000E+00  0.00000000000E+00  0.34052249361E+04  0.34052249361E+04  0.00000000000E+00 0.  1.
          1   -1    0    0  501    0  0.00000000000E+00 -0.00000000000E+00 -0.28079943372E+04  0.28079943372E+04  0.00000000000E+00 0. -1.
         23    2    1    2    0    0  0.53184411766E+03  0.29646063244E+04  0.99906518121E+03  0.31745978992E+04  0.90508347152E+02 0.  0.
         11    1    3    3    0    0  0.10779654025E+03  0.56913436706E+03  0.15528405015E+03  0.59970589299E+03  0.00000000000E+00 0. -1.
        -11    1    3    3    0    0  0.42404757741E+03  0.23954719573E+04  0.84378113106E+03  0.25748920062E+04  0.00000000000E+00 0.  1.
         22    1    1    2    0    0 -0.53184411766E+03 -0.29646063244E+04 -0.40183458233E+03  0.30386213742E+04  0.00000000000E+00 0. -1.
<mgrwt>
<rscale>  0 0.61844490E+04</rscale>
<asrwt>0</asrwt>
<pdfrwt beam="1">  1        1 0.43199913E+00 0.61844490E+04</pdfrwt>
<pdfrwt beam="2">  1       -1 0.52388076E+00 0.61844490E+04</pdfrwt>
<totfact> 0.58104822E-04</totfact>
</mgrwt>
</event>
<event>
 6    1  0.1588846E-005  0.7564690E+03  0.7818608E-02  0.9625256E-01
          1   -1    0    0  501    0  0.00000000000E+00  0.00000000000E+00  0.44558974048E+03  0.44558974048E+03  0.00000000000E+00 0. -1.
         -1   -1    0    0    0  501 -0.00000000000E+00 -0.00000000000E+00 -0.32106063206E+03  0.32106063206E+03  0.00000000000E+00 0.  1.
         23    2    1    2    0    0  0.33692153962E+03 -0.15382873142E+03  0.20633167276E+02  0.38197678486E+03  0.91110559820E+02 0.  0.
         13    1    3    3    0    0  0.22686837312E+03 -0.14859646688E+03  0.17187907432E+02  0.27174545599E+03  0.00000000000E+00 0. -1.
        -13    1    3    3    0    0  0.11005316650E+03 -0.52322645445E+01  0.34452598441E+01  0.11023132887E+03  0.00000000000E+00 0.  1.
         22    1    1    2    0    0 -0.33692153962E+03  0.15382873142E+03  0.10389594114E+03  0.38467358768E+03  0.00000000000E+00 0.  1.
<mgrwt>
<rscale>  0 0.75646896E+03</rscale>
<asrwt>0</asrwt>
<pdfrwt beam="1">  1        1 0.68552267E-01 0.75646896E+03</pdfrwt>
<pdfrwt beam="2">  1       -1 0.49393944E-01 0.75646896E+03</pdfrwt>
<totfact> 0.21588853E+02</totfact>
</mgrwt>
</event>
<event>
 6    1  0.1588846E-005  0.2131466E+04  0.7818608E-02  0.8547508E-01
          1   -1    0    0  501    0  0.00000000000E+00  0.00000000000E+00  0.19460356233E+04  0.19460356233E+04  0.00000000000E+00 0. -1.
         -1   -1    0    0    0  501 -0.00000000000E+00 -0.00000000000E+00 -0.58364124235E+03  0.58364124235E+03  0.00000000000E+00 0.  1.
         23    2    1    2    0    0  0.71450805363E+02 -0.10171172940E+04  0.10430268298E+04  0.14612067256E+04  0.87105222448E+02 0.  0.
         13    1    3    3    0    0  0.58294472326E+01 -0.44674279913E+03  0.40693889083E+03  0.60432803336E+03  0.00000000000E+00 0.  1.
        -13    1    3    3    0    0  0.65621358131E+02 -0.57037449491E+03  0.63608793897E+03  0.85687869223E+03  0.00000000000E+00 0. -1.
         22    1    1    2    0    0 -0.71450805363E+02  0.10171172940E+04  0.31936755111E+03  0.10684701400E+04  0.00000000000E+00 0. -1.
<mgrwt>
<rscale>  0 0.21314658E+04</rscale>
<asrwt>0</asrwt>
<pdfrwt beam="1">  1        1 0.29939009E+00 0.21314658E+04</pdfrwt>
<pdfrwt beam="2">  1       -1 0.89790962E-01 0.21314658E+04</pdfrwt>
<totfact> 0.36100251E+00</totfact>
</mgrwt>
</event>
<event>
 6    1  0.1588846E-005  0.1541195E+04  0.7818608E-02  0.8857511E-01
          2   -1    0    0  501    0  0.00000000000E+00  0.00000000000E+00  0.49035565147E+03  0.49035565147E+03  0.00000000000E+00 0. -1.
         -2   -1    0    0    0  501 -0.00000000000E+00 -0.00000000000E+00 -0.12110000574E+04  0.12110000574E+04  0.00000000000E+00 0.  1.
         23    2    1    2    0    0  0.55578127505E+03  0.44501204644E+03 -0.44296921386E+02  0.71933001315E+03  0.92438646733E+02 0.  0.
         11    1    3    3    0    0  0.35797704385E+03  0.34046136186E+03 -0.38426114833E+02  0.49551798065E+03  0.00000000000E+00 0. -1.
        -11    1    3    3    0    0  0.19780423119E+03  0.10455068458E+03 -0.58708065529E+01  0.22381203251E+03  0.00000000000E+00 0.  1.
         22    1    1    2    0    0 -0.55578127505E+03 -0.44501204644E+03 -0.67634748449E+03  0.98202569567E+03  0.00000000000E+00 0.  1.
<mgrwt>
<rscale>  0 0.15411953E+04</rscale>
<asrwt>0</asrwt>
<pdfrwt beam="1">  1        2 0.75439332E-01 0.15411953E+04</pdfrwt>
<pdfrwt beam="2">  1       -2 0.18630770E+00 0.15411953E+04</pdfrwt>
<totfact> 0.99491541E+00</totfact>
</mgrwt>
</event>
<event>
 6    1  0.1588846E-005  0.1274966E+04  0.7818608E-02  0.9049656E-01
         -1   -1    0    0    0  501 -0.00000000000E+00  0.00000000000E+00  0.84648177981E+03  0.84648177981E+03  0.00000000000E+00 0.  1.
          1   -1    0    0  501    0  0.00000000000E+00 -0.00000000000E+00 -0.48008697086E+03  0.48008697086E+03  0.00000000000E+00 0. -1.
         23    2    1    2    0    0 -0.63229250201E+03 -0.26939770050E+02  0.22966643346E+03  0.67910121637E+03  0.88950728514E+02 0.  0.
         11    1    3    3    0    0 -0.52709529623E+03 -0.45925480124E+02  0.21539446593E+03  0.57125596451E+03  0.00000000000E+00 0.  1.
        -11    1    3    3    0    0 -0.10519720579E+03  0.18985710074E+02  0.14271967526E+02  0.10784525186E+03  0.00000000000E+00 0. -1.
         22    1    1    2    0    0  0.63229250201E+03  0.26939770050E+02  0.13672837549E+03  0.64746753430E+03  0.00000000000E+00 0. -1.
<mgrwt>
<rscale>  0 0.12749665E+04</rscale>
<asrwt>0</asrwt>
<pdfrwt beam="1">  1        1 0.73859534E-01 0.12749665E+04</pdfrwt>
<pdfrwt beam="2">  1       -1 0.13022797E+00 0.12749665E+04</pdfrwt>
<totfact> 0.23303667E+01</totfact>
</mgrwt>
</event>
<event>
 6    1  0.1588846E-005  0.4866286E+04  0.7818608E-02  0.7849471E-01
          2   -1    0    0  501    0  0.00000000000E+00  0.00000000000E+00  0.20425981894E+04  0.20425981894E+04  0.00000000000E+00 0. -1.
         -2   -1    0    0    0  501 -0.00000000000E+00 -0.00000000000E+00 -0.28983596210E+04  0.28983596210E+04  0.00000000000E+00 0.  1.
         23    2    1    2    0    0 -0.15818187083E+04 -0.14305592169E+04  0.75891538284E+03  0.22659192473E+04  0.98931178248E+02 0.  0.
         11    1    3    3    0    0 -0.12007476591E+04 -0.10298893410E+04  0.57531534984E+03  0.16832868880E+04  0.00000000000E+00 0.  1.
        -11    1    3    3    0    0 -0.38107104911E+03 -0.40066987593E+03  0.18360003300E+03  0.58263235927E+03  0.00000000000E+00 0. -1.
         22    1    1    2    0    0  0.15818187083E+04  0.14305592169E+04 -0.16146768145E+04  0.26750385631E+04  0.00000000000E+00 0.  1.
<mgrwt>
<rscale>  0 0.48662857E+04</rscale>
<asrwt>0</asrwt>
<pdfrwt beam="1">  1        2 0.31424588E+00 0.48662857E+04</pdfrwt>
<pdfrwt beam="2">  1       -2 0.44590148E+00 0.48662857E+04</pdfrwt>
<totfact> 0.17233047E-02</totfact>
</mgrwt>
</event>
<event>
 6    1  0.1588846E-005  0.4496356E+04  0.7818608E-02  0.7911275E-01
         -1   -1    0    0    0  501 -0.00000000000E+00  0.00000000000E+00  0.17284396437E+04  0.17284396437E+04  0.00000000000E+00 0.  1.
          1   -1    0    0  501    0  0.00000000000E+00 -0.00000000000E+00 -0.29242000710E+04  0.29242000710E+04  0.00000000000E+00 0. -1.
         23    2    1    2    0    0  0.13190767127E+04  0.49870686899E+03 -0.24086576947E+04  0.27925881842E+04  0.90801767325E+02 0.  0.
         11    1    3    3    0    0  0.59554239194E+03  0.22208440310E+03 -0.11752087677E+04  0.13360792905E+04  0.00000000000E+00 0.  1.
        -11    1    3    3    0    0  0.72353432075E+03  0.27662246588E+03 -0.12334489270E+04  0.14565088937E+04  0.00000000000E+00 0. -1.
         22    1    1    2    0    0 -0.13190767127E+04 -0.49870686899E+03  0.12128972674E+04  0.18600515306E+04  0.00000000000E+00 0.  1.
<mgrwt>
<rscale>  0 0.44963556E+04</rscale>
<asrwt>0</asrwt>
<pdfrwt beam="1">  1        1 0.44987693E+00 0.44963556E+04</pdfrwt>
<pdfrwt beam="2">  1       -1 0.26591379E+00 0.44963556E+04</pdfrwt>
<totfact> 0.28010260E-02</totfact>
</mgrwt>
</event>
<event>
 6    1  0.1588846E-005  0.6144868E+03  0.7818608E-02  0.9875798E-01
         -1   -1    0    0    0  501 -0.00000000000E+00  0.00000000000E+00  0.16829236037E+03  0.16829236037E+03  0.00000000000E+00 0.  1.
          1   -1    0    0  501    0  0.00000000000E+00 -0.00000000000E+00 -0.56091981783E+03  0.56091981783E+03  0.00000000000E+00 0. -1.
         23    2    1    2    0    0  0.51536771839E+02 -0.17412885270E+03 -0.48480154322E+03  0.52556307244E+03  0.90593104666E+02 0.  0.
         11    1    3    3    0    0 -0.13781940800E+02 -0.51516518483E+02 -0.22183302185E+03  0.22815298190E+03  0.00000000000E+00 0.  1.
        -11    1    3    3    0    0  0.65318712639E+02 -0.12261233421E+03 -0.26296852137E+03  0.29741009054E+03  0.00000000000E+00 0. -1.
         22    1    1    2    0    0 -0.51536771839E+02  0.17412885270E+03  0.92174085750E+02  0.20364910576E+03  0.00000000000E+00 0.  1.
<mgrwt>
<rscale>  0 0.61448684E+03</rscale>
<asrwt>0</asrwt>
<pdfrwt beam="1">  1        1 0.86295358E-01 0.61448684E+03</pdfrwt>
<pdfrwt beam="2">  1       -1 0.25891132E-01 0.61448684E+03</pdfrwt>
<totfact> 0.50256874E+02</totfact>
</mgrwt>
</event>
<event>
 6    1  0.1588846E-005  0.3649823E+04  0.7818608E-02  0.8079173E-01
         -2   -1    0    0    0  501 -0.00000000000E+00  0.00000000000E+00  0.15088588843E+04  0.15088588843E+04  0.00000000000E+00 0.  1.
          2   -1    0    0  501    0  0.00000000000E+00 -0.00000000000E+00 -0.22071664481E+04  0.22071664481E+04  0.00000000000E+00 0. -1.
         23    2    1    2    0    0  0.11553177023E+04  0.29617069055E+03 -0.17541577600E+04  0.21231362252E+04  0.90343302917E+02 0.  0.
         11    1    3    3    0    0  0.44876973509E+03  0.69814348331E+02 -0.66348566852E+03  0.80404076432E+03  0.00000000000E+00 0.  1.
        -11    1    3    3    0    0  0.70654796720E+03  0.22635634221E+03 -0.10906720915E+04  0.13190954608E+04  0.00000000000E+00 0. -1.
         22    1    1    2    0    0 -0.11553177023E+04 -0.29617069055E+03  0.10558501962E+04  0.15928891073E+04  0.00000000000E+00 0.  1.
<mgrwt>
<rscale>  0 0.36498234E+04</rscale>
<asrwt>0</asrwt>
<pdfrwt beam="1">  1        2 0.33956407E+00 0.36498234E+04</pdfrwt>
<pdfrwt beam="2">  1       -2 0.23213214E+00 0.36498234E+04</pdfrwt>
<totfact> 0.34433865E-01</totfact>
</mgrwt>
</event>
<event>
 6    1  0.1588846E-005  0.2249138E+04  0.7818608E-02  0.8498250E-01
          2   -1    0    0  501    0  0.00000000000E+00  0.00000000000E+00  0.10510196777E+04  0.10510196777E+04  0.00000000000E+00 0. -1.
         -2   -1    0    0    0  501 -0.00000000000E+00 -0.00000000000E+00 -0.12032649148E+04  0.12032649148E+04  0.00000000000E+00 0.  1.
         23    2    1    2    0    0 -0.28917715214E+03  0.30960490743E+03 -0.11184218592E+04  0.11993078681E+04  0.89405164925E+02 0.  0.
         11    1    3    3    0    0 -0.19680602516E+03  0.25583062122E+03 -0.90018790543E+03  0.95630548643E+03  0.00000000000E+00 0. -1.
        -11    1    3    3    0    0 -0.92371126982E+02  0.53774286207E+02 -0.21823395374E+03  0.24300238172E+03  0.00000000000E+00 0.  1.
         22    1    1    2    0    0  0.28917715214E+03 -0.30960490743E+03  0.96617662205E+03  0.10549767244E+04  0.00000000000E+00 0. -1.
<mgrwt>
<rscale>  0 0.22491377E+04</rscale>
<asrwt>0</asrwt>
<pdfrwt beam="1">  1        2 0.16169534E+00 0.22491377E+04</pdfrwt>
<pdfrwt beam="2">  1       -2 0.18511768E+00 0.22491377E+04</pdfrwt>
<totfact> 0.35582213E+00</totfact>
</mgrwt>
</event>
<event>
 6    1  0.1588846E-005  0.3732133E+04  0.7818608E-02  0.8060878E-01
          2   -1    0    0  501    0  0.00000000000E+00  0.00000000000E+00  0.25235612871E+04  0.25235612871E+04  0.00000000000E+00 0. -1.
         -2   -1    0    0    0  501 -0.00000000000E+00 -0.00000000000E+00 -0.13798773415E+04  0.13798773415E+04  0.00000000000E+00 0.  1.
         23    2    1    2    0    0 -0.13996040145E+04 -0.92433392917E+03  0.14245228853E+04  0.22028048878E+04  0.98991479230E+02 0.  0.
         13    1    3    3    0    0 -0.76785325844E+03 -0.52229619632E+03  0.85070915847E+03  0.12594038334E+04  0.00000000000E+00 0. -1.
        -13    1    3    3    0    0 -0.63175075608E+03 -0.40203773285E+03  0.57381372687E+03  0.94340105447E+03  0.00000000000E+00 0.  1.
         22    1    1    2    0    0  0.13996040145E+04  0.92433392917E+03 -0.28083893980E+03  0.17006337408E+04  0.00000000000E+00 0.  1.
<mgrwt>
<rscale>  0 0.37321335E+04</rscale>
<asrwt>0</asrwt>
<pdfrwt beam="1">  1        2 0.38824020E+00 0.37321335E+04</pdfrwt>
<pdfrwt beam="2">  1       -2 0.21228882E+00 0.37321335E+04</pdfrwt>
<totfact> 0.30102213E-01</totfact>
</mgrwt>
</event>
<event>
 6    1  0.1588846E-005  0.4698517E+04  0.7818608E-02  0.7876775E-01
          1   -1    0    0  501    0  0.00000000000E+00  0.00000000000E+00  0.42416290305E+04  0.42416290305E+04  0.00000000000E+00 0. -1.
         -1   -1    0    0    0  501 -0.00000000000E+00 -0.00000000000E+00 -0.13011548613E+04  0.13011548613E+04  0.00000000000E+00 0.  1.
         23    2    1    2    0    0 -0.16117190884E+04 -0.16724053161E+04  0.10619512801E+04  0.25555734530E+04  0.92936487947E+02 0.  0.
         11    1    3    3    0    0 -0.10119418099E+04 -0.98464940469E+03  0.64555188428E+03  0.15525134177E+04  0.00000000000E+00 0.  1.
        -11    1    3    3    0    0 -0.59977727855E+03 -0.68775591141E+03  0.41639939586E+03  0.10030600353E+04  0.00000000000E+00 0. -1.
         22    1    1    2    0    0  0.16117190884E+04  0.16724053161E+04  0.18785228890E+04  0.29872104388E+04  0.00000000000E+00 0.  1.
<mgrwt>
<rscale>  0 0.46985173E+04</rscale>
<asrwt>0</asrwt>
<pdfrwt beam="1">  1        1 0.65255830E+00 0.46985173E+04</pdfrwt>
<pdfrwt beam="2">  1       -1 0.20017767E+00 0.46985173E+04</pdfrwt>
<totfact> 0.63835290E-03</totfact>
</mgrwt>
</event>
<event>
 6    1  0.1588846E-005  0.1494351E+04  0.7818608E-02  0.8888218E-01
          2   -1    0    0  501    0  0.00000000000E+00  0.00000000000E+00  0.12299921071E+04  0.12299921071E+04  0.00000000000E+00 0. -1.
         -2   -1    0    0    0  501 -0.00000000000E+00 -0.00000000000E+00 -0.45388183595E+03  0.45388183595E+03  0.00000000000E+00 0.  1.
         23    2    1    2    0    0  0.58746632447E+03  0.45274941210E+03  0.31614813126E+03  0.81114037395E+03  0.88883928871E+02 0.  0.
         11    1    3    3    0    0  0.36926925565E+03  0.23641413084E+03  0.16256559707E+03  0.46763126262E+03  0.00000000000E+00 0. -1.
        -11    1    3    3    0    0  0.21819706882E+03  0.21633528126E+03  0.15358253418E+03  0.34350911133E+03  0.00000000000E+00 0.  1.
         22    1    1    2    0    0 -0.58746632447E+03 -0.45274941210E+03  0.45996213992E+03  0.87273356914E+03  0.00000000000E+00 0.  1.
<mgrwt>
<rscale>  0 0.14943508E+04</rscale>
<asrwt>0</asrwt>
<pdfrwt beam="1">  1        2 0.18922955E+00 0.14943508E+04</pdfrwt>
<pdfrwt beam="2">  1       -2 0.69827975E-01 0.14943508E+04</pdfrwt>
<totfact> 0.32839193E+01</totfact>
</mgrwt>
</event>
<event>
 6    1  0.1588846E-005  0.2299694E+04  0.7818608E-02  0.8478042E-01
          2   -1    0    0  501    0  0.00000000000E+00  0.00000000000E+00  0.39505483431E+04  0.39505483431E+04  0.00000000000E+00 0. -1.
         -2   -1    0    0    0  501 -0.00000000000E+00 -0.00000000000E+00 -0.33467450961E+03  0.33467450961E+03  0.00000000000E+00 0.  1.
         23    2    1    2    0    0 -0.74954320367E+03  0.20198842209E+03  0.23429381573E+03  0.81568430222E+03  0.88503965865E+02 0.  0.
         13    1    3    3    0    0 -0.25159215265E+03  0.30472536404E+02  0.97573248103E+02  0.27156532454E+03  0.00000000000E+00 0. -1.
        -13    1    3    3    0    0 -0.49795105102E+03  0.17151588568E+03  0.13672056762E+03  0.54411897768E+03  0.00000000000E+00 0.  1.
         22    1    1    2    0    0  0.74954320367E+03 -0.20198842209E+03  0.33815800178E+04  0.34695385505E+04  0.00000000000E+00 0. -1.
<mgrwt>
<rscale>  0 0.22996937E+04</rscale>
<asrwt>0</asrwt>
<pdfrwt beam="1">  1        2 0.60777664E+00 0.22996937E+04</pdfrwt>
<pdfrwt beam="2">  1       -2 0.51488389E-01 0.22996937E+04</pdfrwt>
<totfact> 0.12179004E+00</totfact>
</mgrwt>
</event>
<event>
 6    1  0.1588846E-005  0.3439631E+04  0.7818608E-02  0.8128247E-01
          2   -1    0    0  501    0  0.00000000000E+00  0.00000000000E+00  0.25129801316E+04  0.25129801316E+04  0.00000000000E+00 0.  1.
         -2   -1    0    0    0  501 -0.00000000000E+00 -0.00000000000E+00 -0.11769952298E+04  0.11769952298E+04  0.00000000000E+00 0. -1.
         23    2    1    2    0    0  0.12245504950E+04  0.42073094168E+03 -0.54381039098E+03  0.14073959470E+04  0.92169248622E+02 0.  0.
         11    1    3    3    0    0  0.11974278283E+04  0.41522257746E+03 -0.51671006370E+03  0.13686608356E+04  0.00000000000E+00 0.  1.
        -11    1    3    3    0    0  0.27122666648E+02  0.55083642136E+01 -0.27100327282E+02  0.38735111478E+02  0.00000000000E+00 0. -1.
         22    1    1    2    0    0 -0.12245504950E+04 -0.42073094168E+03  0.18797952928E+04  0.22825794143E+04  0.00000000000E+00 0.  1.
<mgrwt>
<rscale>  0 0.34396312E+04</rscale>
<asrwt>0</asrwt>
<pdfrwt beam="1">  1        2 0.38661233E+00 0.34396312E+04</pdfrwt>
<pdfrwt beam="2">  1       -2 0.18107619E+00 0.34396312E+04</pdfrwt>
<totfact> 0.50351450E-01</totfact>
</mgrwt>
</event>
<event>
 6    1  0.1588846E-005  0.2657741E+04  0.7818608E-02  0.8348848E-01
         -1   -1    0    0    0  501 -0.00000000000E+00  0.00000000000E+00  0.92382685844E+03  0.92382685844E+03  0.00000000000E+00 0.  1.
          1   -1    0    0  501    0  0.00000000000E+00 -0.00000000000E+00 -0.19115016035E+04  0.19115016035E+04  0.00000000000E+00 0. -1.
         23    2    1    2    0    0  0.34334314669E+03 -0.73926915852E+03 -0.16117268257E+04  0.18087592219E+04  0.97689083215E+02 0.  0.
         11    1    3    3    0    0  0.61887795651E+02 -0.18122477199E+03 -0.30287897360E+03  0.35834088503E+03  0.00000000000E+00 0. -1.
        -11    1    3    3    0    0  0.28145535104E+03 -0.55804438653E+03 -0.13088478521E+04  0.14504183369E+04  0.00000000000E+00 0.  1.
         22    1    1    2    0    0 -0.34334314669E+03  0.73926915852E+03  0.62405208067E+03  0.10265692400E+04  0.00000000000E+00 0.  1.
<mgrwt>
<rscale>  0 0.26577408E+04</rscale>
<asrwt>0</asrwt>
<pdfrwt beam="1">  1        1 0.29407717E+00 0.26577408E+04</pdfrwt>
<pdfrwt beam="2">  1       -1 0.14212721E+00 0.26577408E+04</pdfrwt>
<totfact> 0.12080552E+00</totfact>
</mgrwt>
</event>
<event>
 6    1  0.1588846E-005  0.5018063E+03  0.7818608E-02  0.1013309E+00
         -1   -1    0    0    0  501 -0.00000000000E+00  0.00000000000E+00  0.80470680288E+02  0.80470680288E+02  0.00000000000E+00 0.  1.
          1   -1    0    0  501    0  0.00000000000E+00 -0.00000000000E+00 -0.78230234038E+03  0.78230234038E+03  0.00000000000E+00 0. -1.
         23    2    1    2    0    0 -0.18552174406E+03 -0.15587536286E+03 -0.38660314915E+03  0.46517465500E+03  0.90609152171E+02 0.  0.
         13    1    3    3    0    0 -0.11429120160E+03 -0.11430297862E+03 -0.32241743928E+03  0.36066695834E+03  0.00000000000E+00 0. -1.
        -13    1    3    3    0    0 -0.71230542460E+02 -0.41572384239E+02 -0.64185709869E+02  0.10450769666E+03  0.00000000000E+00 0.  1.
         22    1    1    2    0    0  0.18552174406E+03  0.15587536286E+03 -0.31522851094E+03  0.39759836566E+03  0.00000000000E+00 0.  1.
<mgrwt>
<rscale>  0 0.50180634E+03</rscale>
<asrwt>0</asrwt>
<pdfrwt beam="1">  1        1 0.12035421E+00 0.50180634E+03</pdfrwt>
<pdfrwt beam="2">  1       -1 0.12380104E-01 0.50180634E+03</pdfrwt>
<totfact> 0.10376022E+03</totfact>
</mgrwt>
</event>
<event>
 6    1  0.1588846E-005  0.5285179E+04  0.7818608E-02  0.7785961E-01
         -1   -1    0    0    0  501 -0.00000000000E+00  0.00000000000E+00  0.34299583793E+04  0.34299583793E+04  0.00000000000E+00 0.  1.
          1   -1    0    0  501    0  0.00000000000E+00 -0.00000000000E+00 -0.20359662850E+04  0.20359662850E+04  0.00000000000E+00 0. -1.
         23    2    1    2    0    0  0.17429613146E+04 -0.33531489871E+03  0.27208418426E+04  0.32498740152E+04  0.91381381344E+02 0.  0.
         11    1    3    3    0    0  0.81691652131E+03 -0.13289616146E+03  0.11973967157E+04  0.14556005247E+04  0.00000000000E+00 0.  1.
        -11    1    3    3    0    0  0.92604479324E+03 -0.20241873725E+03  0.15234451268E+04  0.17942734905E+04  0.00000000000E+00 0. -1.
         22    1    1    2    0    0 -0.17429613146E+04  0.33531489871E+03 -0.13268497482E+04  0.22160506492E+04  0.00000000000E+00 0. -1.
<mgrwt>
<rscale>  0 0.52851791E+04</rscale>
<asrwt>0</asrwt>
<pdfrwt beam="1">  1        1 0.31322558E+00 0.52851791E+04</pdfrwt>
<pdfrwt beam="2">  1       -1 0.52768590E+00 0.52851791E+04</pdfrwt>
<totfact> 0.20147278E-03</totfact>
</mgrwt>
</event>
<event>
 6    1  0.1702486E-005  0.2521471E+04  0.7818608E-02  0.8395376E-01
         -2   -1    0    0    0  501 -0.00000000000E+00  0.00000000000E+00  0.80719953442E+03  0.80719953442E+03  0.00000000000E+00 0.  1.
          2   -1    0    0  501    0  0.00000000000E+00 -0.00000000000E+00 -0.19690965403E+04  0.19690965403E+04  0.00000000000E+00 0. -1.
         23    2    1    2    0    0  0.84526352707E+03  0.35875904199E+03  0.36803472218E+03  0.99195598020E+03  0.73134325191E+02 0.  0.
         13    1    3    3    0    0  0.42251874716E+03  0.14592783592E+03  0.20005272828E+03  0.48973270167E+03  0.00000000000E+00 0. -1.
        -13    1    3    3    0    0  0.42274477991E+03  0.21283120607E+03  0.16798199391E+03  0.50222327853E+03  0.00000000000E+00 0.  1.
         22    1    1    2    0    0 -0.84526352707E+03 -0.35875904199E+03 -0.15299317280E+04  0.17843400945E+04  0.00000000000E+00 0. -1.
<mgrwt>
<rscale>  0 0.25214708E+04</rscale>
<asrwt>0</asrwt>
<pdfrwt beam="1">  1        2 0.30293793E+00 0.25214708E+04</pdfrwt>
<pdfrwt beam="2">  1       -2 0.12418454E+00 0.25214708E+04</pdfrwt>
<totfact> 0.30165133E+00</totfact>
</mgrwt>
</event>
<event>
 6    1  0.1588846E-005  0.3137134E+04  0.7818608E-02  0.8205620E-01
         -1   -1    0    0    0  501 -0.00000000000E+00  0.00000000000E+00  0.11185901501E+04  0.11185901501E+04  0.00000000000E+00 0.  1.
          1   -1    0    0  501    0  0.00000000000E+00 -0.00000000000E+00 -0.21995567003E+04  0.21995567003E+04  0.00000000000E+00 0. -1.
         23    2    1    2    0    0  0.91984086997E+03  0.98765946543E+03 -0.13836569462E+04  0.19349621478E+04  0.89406503422E+02 0.  0.
         13    1    3    3    0    0  0.27978671774E+03  0.24307141386E+03 -0.36802738030E+03  0.52231070476E+03  0.00000000000E+00 0.  1.
        -13    1    3    3    0    0  0.64005415223E+03  0.74458805157E+03 -0.10156295659E+04  0.14126514430E+04  0.00000000000E+00 0. -1.
         22    1    1    2    0    0 -0.91984086997E+03 -0.98765946543E+03  0.30269039599E+03  0.13831847026E+04  0.00000000000E+00 0.  1.
<mgrwt>
<rscale>  0 0.31371340E+04</rscale>
<asrwt>0</asrwt>
<pdfrwt beam="1">  1        1 0.33839334E+00 0.31371340E+04</pdfrwt>
<pdfrwt beam="2">  1       -1 0.17209079E+00 0.31371340E+04</pdfrwt>
<totfact> 0.43551883E-01</totfact>
</mgrwt>
</event>
<event>
 6    1  0.1588846E-005  0.1761027E+04  0.7818608E-02  0.8727304E-01
          3   -1    0    0  501    0  0.00000000000E+00  0.00000000000E+00  0.50119347563E+03  0.50119347563E+03  0.00000000000E+00 0. -1.
         -3   -1    0    0    0  501 -0.00000000000E+00 -0.00000000000E+00 -0.15469152826E+04  0.15469152826E+04  0.00000000000E+00 0.  1.
         23    2    1    2    0    0  0.52523795136E+03  0.56210573208E+03 -0.32738759167E+02  0.77611331218E+03  0.97171433079E+02 0.  0.
         11    1    3    3    0    0  0.10145279467E+03  0.16563781489E+03  0.75808863297E+01  0.19438627808E+03  0.00000000000E+00 0. -1.
        -11    1    3    3    0    0  0.42378515669E+03  0.39646791719E+03 -0.40319645497E+02  0.58172703410E+03  0.00000000000E+00 0.  1.
         22    1    1    2    0    0 -0.52523795136E+03 -0.56210573208E+03 -0.10129830478E+04  0.12719954460E+04  0.00000000000E+00 0.  1.
<mgrwt>
<rscale>  0 0.17610268E+04</rscale>
<asrwt>0</asrwt>
<pdfrwt beam="1">  1        3 0.77106691E-01 0.17610268E+04</pdfrwt>
<pdfrwt beam="2">  1       -3 0.23798696E+00 0.17610268E+04</pdfrwt>
<totfact> 0.33645036E-01</totfact>
</mgrwt>
</event>
<event>
 6    1  0.1588846E-005  0.4106133E+04  0.7818608E-02  0.7983472E-01
          2   -1    0    0  501    0  0.00000000000E+00  0.00000000000E+00  0.25025083850E+04  0.25025083850E+04  0.00000000000E+00 0. -1.
         -2   -1    0    0    0  501 -0.00000000000E+00 -0.00000000000E+00 -0.16843430288E+04  0.16843430288E+04  0.00000000000E+00 0.  1.
         23    2    1    2    0    0 -0.62741671742E+03 -0.24322436839E+03  0.23859928923E+04  0.24807174760E+04  0.90483607222E+02 0.  0.
         11    1    3    3    0    0 -0.22979741082E+03 -0.59120863864E+02  0.72144699697E+03  0.75946553312E+03  0.00000000000E+00 0.  1.
        -11    1    3    3    0    0 -0.39761930661E+03 -0.18410350452E+03  0.16645458953E+04  0.17212519429E+04  0.00000000000E+00 0. -1.
         22    1    1    2    0    0  0.62741671742E+03  0.24322436839E+03 -0.15678275361E+04  0.17061339378E+04  0.00000000000E+00 0.  1.
<mgrwt>
<rscale>  0 0.41061332E+04</rscale>
<asrwt>0</asrwt>
<pdfrwt beam="1">  1        2 0.38500129E+00 0.41061332E+04</pdfrwt>
<pdfrwt beam="2">  1       -2 0.25912970E+00 0.41061332E+04</pdfrwt>
<totfact> 0.15327465E-01</totfact>
</mgrwt>
</event>
<event>
 6    1  0.1588846E-005  0.1809801E+04  0.7818608E-02  0.8701105E-01
         -2   -1    0    0    0  501 -0.00000000000E+00  0.00000000000E+00  0.14491685614E+04  0.14491685614E+04  0.00000000000E+00 0. -1.
          2   -1    0    0  501    0  0.00000000000E+00 -0.00000000000E+00 -0.56504457893E+03  0.56504457893E+03  0.00000000000E+00 0.  1.
         23    2    1    2    0    0 -0.37679003091E+03 -0.60130727722E+02 -0.46724367812E+03  0.61001194894E+03  0.90617279247E+02 0.  0.
         13    1    3    3    0    0 -0.10784493323E+03 -0.58527081379E+02 -0.16115937758E+03  0.20255442197E+03  0.00000000000E+00 0. -1.
        -13    1    3    3    0    0 -0.26894509768E+03 -0.16036463435E+01 -0.30608430054E+03  0.40745752697E+03  0.00000000000E+00 0.  1.
         22    1    1    2    0    0  0.37679003091E+03  0.60130727722E+02  0.13513676606E+04  0.14042011914E+04  0.00000000000E+00 0. -1.
<mgrwt>
<rscale>  0 0.18098009E+04</rscale>
<asrwt>0</asrwt>
<pdfrwt beam="1">  1        2 0.86929935E-01 0.18098009E+04</pdfrwt>
<pdfrwt beam="2">  1       -2 0.22294901E+00 0.18098009E+04</pdfrwt>
<totfact> 0.47583925E+00</totfact>
</mgrwt>
</event>
<event>
 6    1  0.1793519E-005  0.4386576E+04  0.7818608E-02  0.7930800E-01
          2   -1    0    0  501    0  0.00000000000E+00  0.00000000000E+00  0.26570176447E+04  0.26570176447E+04  0.00000000000E+00 0. -1.
         -2   -1    0    0    0  501 -0.00000000000E+00 -0.00000000000E+00 -0.18104933454E+04  0.18104933454E+04  0.00000000000E+00 0.  1.
         23    2    1    2    0    0  0.20463997631E+04 -0.75667495492E+03  0.64228907925E+03  0.22761595799E+04  0.89767444922E+02 0.  0.
         11    1    3    3    0    0  0.12271307943E+04 -0.41377269278E+03  0.35676751253E+03  0.13432575649E+04  0.00000000000E+00 0.  1.
        -11    1    3    3    0    0  0.81926896872E+03 -0.34290226215E+03  0.28552156672E+03  0.93290201498E+03  0.00000000000E+00 0. -1.
         22    1    1    2    0    0 -0.20463997631E+04  0.75667495492E+03  0.20423522008E+03  0.21913514101E+04  0.00000000000E+00 0. -1.
<mgrwt>
<rscale>  0 0.43865762E+04</rscale>
<asrwt>0</asrwt>
<pdfrwt beam="1">  1        2 0.40877194E+00 0.43865762E+04</pdfrwt>
<pdfrwt beam="2">  1       -2 0.27853744E+00 0.43865762E+04</pdfrwt>
<totfact> 0.92569131E-02</totfact>
</mgrwt>
</event>
<event>
 6    1  0.1588846E-005  0.1589113E+04  0.7818608E-02  0.8827264E-01
         -1   -1    0    0    0  501 -0.00000000000E+00  0.00000000000E+00  0.84708147562E+03  0.84708147562E+03  0.00000000000E+00 0.  1.
          1   -1    0    0  501    0  0.00000000000E+00 -0.00000000000E+00 -0.74528838960E+03  0.74528838960E+03  0.00000000000E+00 0. -1.
         23    2    1    2    0    0 -0.16370944958E+03  0.77476611086E+03  0.36928441323E+02  0.79784438888E+03  0.90159018810E+02 0.  0.
         13    1    3    3    0    0 -0.68501846993E+02  0.51146517653E+03  0.42735819004E+02  0.51779868681E+03  0.00000000000E+00 0. -1.
        -13    1    3    3    0    0 -0.95207602583E+02  0.26330093434E+03 -0.58073776810E+01  0.28004570207E+03  0.00000000000E+00 0.  1.
         22    1    1    2    0    0  0.16370944958E+03 -0.77476611086E+03  0.64864644702E+02  0.79452547634E+03  0.00000000000E+00 0. -1.
<mgrwt>
<rscale>  0 0.15891129E+04</rscale>
<asrwt>0</asrwt>
<pdfrwt beam="1">  1        1 0.11465975E+00 0.15891129E+04</pdfrwt>
<pdfrwt beam="2">  1       -1 0.13032023E+00 0.15891129E+04</pdfrwt>
<totfact> 0.11975069E+01</totfact>
</mgrwt>
</event>
<event>
 6    1  0.1588846E-005  0.7148022E+04  0.7818608E-02  0.7562360E-01
         -1   -1    0    0    0  501 -0.00000000000E+00  0.00000000000E+00  0.55055248394E+04  0.55055248394E+04  0.00000000000E+00 0.  1.
          1   -1    0    0  501    0  0.00000000000E+00 -0.00000000000E+00 -0.23201339832E+04  0.23201339832E+04  0.00000000000E+00 0. -1.
         23    2    1    2    0    0 -0.25307594746E+04 -0.18014312137E+03 -0.11620576029E+04  0.27920216518E+04  0.88385344844E+02 0.  0.
         13    1    3    3    0    0 -0.16785439607E+04 -0.16057679142E+03 -0.78049052148E+03  0.18580797044E+04  0.00000000000E+00 0. -1.
        -13    1    3    3    0    0 -0.85221551391E+03 -0.19566329944E+02 -0.38156708143E+03  0.93394194737E+03  0.00000000000E+00 0.  1.
         22    1    1    2    0    0  0.25307594746E+04  0.18014312137E+03  0.43474484591E+04  0.50336371708E+04  0.00000000000E+00 0.  1.
<mgrwt>
<rscale>  0 0.71480222E+04</rscale>
<asrwt>0</asrwt>
<pdfrwt beam="1">  1        1 0.35694369E+00 0.71480222E+04</pdfrwt>
<pdfrwt beam="2">  1       -1 0.84700382E+00 0.71480222E+04</pdfrwt>
<totfact> 0.34630971E-05</totfact>
</mgrwt>
</event>
<event>
 6    1  0.1588846E-005  0.1879120E+04  0.7818608E-02  0.8665320E-01
          2   -1    0    0  501    0  0.00000000000E+00  0.00000000000E+00  0.22013435365E+04  0.22013435365E+04  0.00000000000E+00 0. -1.
         -2   -1    0    0    0  501 -0.00000000000E+00 -0.00000000000E+00 -0.40101557984E+03  0.40101557984E+03  0.00000000000E+00 0.  1.
         23    2    1    2    0    0 -0.38029192662E+03 -0.49067677084E+03 -0.70845816655E+02  0.63089343496E+03  0.87302655363E+02 0.  0.
         13    1    3    3    0    0 -0.14079899620E+03 -0.14490499374E+03  0.11196718657E+02  0.20235409818E+03  0.00000000000E+00 0.  1.
        -13    1    3    3    0    0 -0.23949293042E+03 -0.34577177711E+03 -0.82042535312E+02  0.42853933678E+03  0.00000000000E+00 0. -1.
         22    1    1    2    0    0  0.38029192662E+03  0.49067677084E+03  0.18711737733E+04  0.19714656814E+04  0.00000000000E+00 0. -1.
<mgrwt>
<rscale>  0 0.18791201E+04</rscale>
<asrwt>0</asrwt>
<pdfrwt beam="1">  1        2 0.33866823E+00 0.18791201E+04</pdfrwt>
<pdfrwt beam="2">  1       -2 0.61694706E-01 0.18791201E+04</pdfrwt>
<totfact> 0.11807382E+01</totfact>
</mgrwt>
</event>
<event>
 6    1  0.1588846E-005  0.3110586E+04  0.7818608E-02  0.8212839E-01
         -1   -1    0    0    0  501 -0.00000000000E+00  0.00000000000E+00  0.19131744676E+04  0.19131744676E+04  0.00000000000E+00 0.  1.
          1   -1    0    0  501    0  0.00000000000E+00 -0.00000000000E+00 -0.12643570546E+04  0.12643570546E+04  0.00000000000E+00 0. -1.
         23    2    1    2    0    0  0.23921721713E+03  0.59182866312E+03  0.17717885230E+04  0.18858078066E+04  0.97726504243E+02 0.  0.
         13    1    3    3    0    0  0.10115717593E+03  0.13951384240E+03  0.43976522551E+03  0.47232440127E+03  0.00000000000E+00 0. -1.
        -13    1    3    3    0    0  0.13806004120E+03  0.45231482072E+03  0.13320232975E+04  0.14134834053E+04  0.00000000000E+00 0.  1.
         22    1    1    2    0    0 -0.23921721713E+03 -0.59182866312E+03 -0.11229711101E+04  0.12917237156E+04  0.00000000000E+00 0. -1.
<mgrwt>
<rscale>  0 0.31105856E+04</rscale>
<asrwt>0</asrwt>
<pdfrwt beam="1">  1        1 0.19451647E+00 0.31105856E+04</pdfrwt>
<pdfrwt beam="2">  1       -1 0.29433453E+00 0.31105856E+04</pdfrwt>
<totfact> 0.29068261E-01</totfact>
</mgrwt>
</event>
<event>
 6    1  0.1590730E-005  0.2189239E+04  0.7818608E-02  0.8522921E-01
          2   -1    0    0  501    0  0.00000000000E+00  0.00000000000E+00  0.15582213610E+04  0.15582213610E+04  0.00000000000E+00 0. -1.
         -2   -1    0    0    0  501 -0.00000000000E+00 -0.00000000000E+00 -0.76894811423E+03  0.76894811423E+03  0.00000000000E+00 0.  1.
         23    2    1    2    0    0  0.48790275772E+03  0.55987287707E+02 -0.64235974680E+03  0.81364487826E+03  0.90599482515E+02 0.  0.
         13    1    3    3    0    0  0.23942439426E+03  0.57758619043E+02 -0.26460880402E+03  0.36149400798E+03  0.00000000000E+00 0. -1.
        -13    1    3    3    0    0  0.24847836346E+03 -0.17713313358E+01 -0.37775094278E+03  0.45215087028E+03  0.00000000000E+00 0.  1.
         22    1    1    2    0    0 -0.48790275772E+03 -0.55987287707E+02  0.14316329936E+04  0.15135245970E+04  0.00000000000E+00 0. -1.
<mgrwt>
<rscale>  0 0.21892386E+04</rscale>
<asrwt>0</asrwt>
<pdfrwt beam="1">  1        2 0.23972636E+00 0.21892386E+04</pdfrwt>
<pdfrwt beam="2">  1       -2 0.11829971E+00 0.21892386E+04</pdfrwt>
<totfact> 0.59249042E+00</totfact>
</mgrwt>
</event>
<event>
 6    1  0.1588846E-005  0.2318282E+04  0.7818608E-02  0.8470748E-01
         -2   -1    0    0    0  501 -0.00000000000E+00  0.00000000000E+00  0.99681838162E+03  0.99681838162E+03  0.00000000000E+00 0.  1.
          2   -1    0    0  501    0  0.00000000000E+00 -0.00000000000E+00 -0.13478959054E+04  0.13478959054E+04  0.00000000000E+00 0. -1.
         23    2    1    2    0    0 -0.28864060873E+03 -0.46220270989E+03 -0.12084852905E+04  0.13287945930E+04  0.91179093059E+02 0.  0.
         11    1    3    3    0    0 -0.84949378969E+02 -0.13646891814E+03 -0.46351831089E+03  0.49060104682E+03  0.00000000000E+00 0. -1.
        -11    1    3    3    0    0 -0.20369122976E+03 -0.32573379175E+03 -0.74496697964E+03  0.83819354622E+03  0.00000000000E+00 0.  1.
         22    1    1    2    0    0  0.28864060873E+03  0.46220270989E+03  0.85740776678E+03  0.10159196940E+04  0.00000000000E+00 0.  1.
<mgrwt>
<rscale>  0 0.23182816E+04</rscale>
<asrwt>0</asrwt>
<pdfrwt beam="1">  1        2 0.20736860E+00 0.23182816E+04</pdfrwt>
<pdfrwt beam="2">  1       -2 0.15335667E+00 0.23182816E+04</pdfrwt>
<totfact> 0.39654094E+00</totfact>
</mgrwt>
</event>
<event>
 6    1  0.1588846E-005  0.1575630E+04  0.7818608E-02  0.8835661E-01
          2   -1    0    0  501    0  0.00000000000E+00  0.00000000000E+00  0.25574842175E+04  0.25574842175E+04  0.00000000000E+00 0. -1.
         -2   -1    0    0    0  501 -0.00000000000E+00 -0.00000000000E+00 -0.24268071223E+03  0.24268071223E+03  0.00000000000E+00 0.  1.
         23    2    1    2    0    0  0.42460506103E+03 -0.55853953144E+03  0.53518192528E+03  0.88723293042E+03  0.92231847207E+02 0.  0.
         11    1    3    3    0    0  0.30807062397E+03 -0.36221407954E+03  0.31735943387E+03  0.57168484241E+03  0.00000000000E+00 0. -1.
        -11    1    3    3    0    0  0.11653443706E+03 -0.19632545190E+03  0.21782249141E+03  0.31554808801E+03  0.00000000000E+00 0.  1.
         22    1    1    2    0    0 -0.42460506103E+03  0.55853953144E+03  0.17796215800E+04  0.19129319993E+04  0.00000000000E+00 0. -1.
<mgrwt>
<rscale>  0 0.15756295E+04</rscale>
<asrwt>0</asrwt>
<pdfrwt beam="1">  1        2 0.39345909E+00 0.15756295E+04</pdfrwt>
<pdfrwt beam="2">  1       -2 0.37335496E-01 0.15756295E+04</pdfrwt>
<totfact> 0.21000522E+01</totfact>
</mgrwt>
</event>
<event>
 6    1  0.1588846E-005  0.1540283E+04  0.7818608E-02  0.8858098E-01
          1   -1    0    0  501    0  0.00000000000E+00  0.00000000000E+00  0.10265722953E+04  0.10265722953E+04  0.00000000000E+00 0. -1.
         -1   -1    0    0    0  501 -0.00000000000E+00 -0.00000000000E+00 -0.57776546551E+03  0.57776546551E+03  0.00000000000E+00 0.  1.
         23    2    1    2    0    0 -0.21004262789E+03  0.47471457737E+03 -0.36359142867E+03  0.64025126789E+03  0.90835695253E+02 0.  0.
         11    1    3    3    0    0 -0.63802949366E+02  0.18794260626E+03 -0.18888771211E+03  0.27399234913E+03  0.00000000000E+00 0.  1.
        -11    1    3    3    0    0 -0.14623967853E+03  0.28677197112E+03 -0.17470371655E+03  0.36625891876E+03  0.00000000000E+00 0. -1.
         22    1    1    2    0    0  0.21004262789E+03 -0.47471457737E+03  0.81239825848E+03  0.96408649295E+03  0.00000000000E+00 0.  1.
<mgrwt>
<rscale>  0 0.15402831E+04</rscale>
<asrwt>0</asrwt>
<pdfrwt beam="1">  1        1 0.15793420E+00 0.15402831E+04</pdfrwt>
<pdfrwt beam="2">  1       -1 0.88886995E-01 0.15402831E+04</pdfrwt>
<totfact> 0.17274713E+01</totfact>
</mgrwt>
</event>
<event>
 6    1  0.1588846E-005  0.3010660E+03  0.7818608E-02  0.1084709E+00
         -2   -1    0    0    0  501 -0.00000000000E+00  0.00000000000E+00  0.26366987383E+03  0.26366987383E+03  0.00000000000E+00 0.  1.
          2   -1    0    0  501    0  0.00000000000E+00 -0.00000000000E+00 -0.85941518735E+02  0.85941518735E+02  0.00000000000E+00 0. -1.
         23    2    1    2    0    0  0.18734783906E+02 -0.90469057894E+02  0.21411420821E+03  0.25031601065E+03  0.90981143469E+02 0.  0.
         13    1    3    3    0    0 -0.49826258202E+00 -0.85543056271E+02  0.88289369456E+02  0.12293443578E+03  0.00000000000E+00 0.  1.
        -13    1    3    3    0    0  0.19233046488E+02 -0.49260016228E+01  0.12582483875E+03  0.12738157487E+03  0.00000000000E+00 0. -1.
         22    1    1    2    0    0 -0.18734783906E+02  0.90469057894E+02 -0.36385853108E+02  0.99295381920E+02  0.00000000000E+00 0. -1.
<mgrwt>
<rscale>  0 0.30106604E+03</rscale>
<asrwt>0</asrwt>
<pdfrwt beam="1">  1        2 0.13221772E-01 0.30106604E+03</pdfrwt>
<pdfrwt beam="2">  1       -2 0.40564595E-01 0.30106604E+03</pdfrwt>
<totfact> 0.26315112E+03</totfact>
</mgrwt>
</event>
<event>
 6    1  0.1588846E-005  0.2485435E+04  0.7818608E-02  0.8408193E-01
          2   -1    0    0  501    0  0.00000000000E+00  0.00000000000E+00  0.10072336208E+04  0.10072336208E+04  0.00000000000E+00 0. -1.
         -2   -1    0    0    0  501 -0.00000000000E+00 -0.00000000000E+00 -0.15332559007E+04  0.15332559007E+04  0.00000000000E+00 0.  1.
         23    2    1    2    0    0  0.64981743338E+03  0.50379529500E+03 -0.12136383685E+04  0.14686274588E+04  0.88747547802E+02 0.  0.
         13    1    3    3    0    0  0.17506556933E+03  0.18355665751E+03 -0.34519116067E+03  0.42836659240E+03  0.00000000000E+00 0. -1.
        -13    1    3    3    0    0  0.47475186405E+03  0.32023863749E+03 -0.86844720786E+03  0.10402608664E+04  0.00000000000E+00 0.  1.
         22    1    1    2    0    0 -0.64981743338E+03 -0.50379529500E+03  0.68761608866E+03  0.10718620627E+04  0.00000000000E+00 0. -1.
<mgrwt>
<rscale>  0 0.24854351E+04</rscale>
<asrwt>0</asrwt>
<pdfrwt beam="1">  1        2 0.15495902E+00 0.24854351E+04</pdfrwt>
<pdfrwt beam="2">  1       -2 0.23588552E+00 0.24854351E+04</pdfrwt>
<totfact> 0.17479735E+00</totfact>
</mgrwt>
</event>
<event>
 6    1  0.1588846E-005  0.2048463E+04  0.7818608E-02  0.8584292E-01
         -1   -1    0    0    0  501 -0.00000000000E+00  0.00000000000E+00  0.50550692953E+03  0.50550692953E+03  0.00000000000E+00 0.  1.
          1   -1    0    0  501    0  0.00000000000E+00 -0.00000000000E+00 -0.20752431115E+04  0.20752431115E+04  0.00000000000E+00 0. -1.
         23    2    1    2    0    0 -0.90403145455E+03 -0.26272731847E+03 -0.12883355599E+04  0.15981591674E+04  0.89474548380E+02 0.  0.
         11    1    3    3    0    0 -0.53625958400E+03 -0.20128768010E+03 -0.78484287332E+03  0.97163234168E+03  0.00000000000E+00 0. -1.
        -11    1    3    3    0    0 -0.36777187056E+03 -0.61439638370E+02 -0.50349268661E+03  0.62652682577E+03  0.00000000000E+00 0.  1.
         22    1    1    2    0    0  0.90403145455E+03  0.26272731847E+03 -0.28140062199E+03  0.98259087353E+03  0.00000000000E+00 0.  1.
<mgrwt>
<rscale>  0 0.20484626E+04</rscale>
<asrwt>0</asrwt>
<pdfrwt beam="1">  1        1 0.31926816E+00 0.20484626E+04</pdfrwt>
<pdfrwt beam="2">  1       -1 0.77770300E-01 0.20484626E+04</pdfrwt>
<totfact> 0.40534581E+00</totfact>
</mgrwt>
</event>
<event>
 6    1  0.1588846E-005  0.2071121E+04  0.7818608E-02  0.8574073E-01
          1   -1    0    0  501    0  0.00000000000E+00  0.00000000000E+00  0.15247137051E+04  0.15247137051E+04  0.00000000000E+00 0. -1.
         -1   -1    0    0    0  501 -0.00000000000E+00 -0.00000000000E+00 -0.70333572325E+03  0.70333572325E+03  0.00000000000E+00 0.  1.
         23    2    1    2    0    0  0.55825231345E+03 -0.49150487501E+03  0.11837825801E+04  0.14006681496E+04  0.85483218453E+02 0.  0.
         13    1    3    3    0    0  0.47703842333E+03 -0.45495813357E+03  0.10576081356E+04  0.12462293245E+04  0.00000000000E+00 0. -1.
        -13    1    3    3    0    0  0.81213890124E+02 -0.36546741445E+02  0.12617444445E+03  0.15443882508E+03  0.00000000000E+00 0.  1.
         22    1    1    2    0    0 -0.55825231345E+03  0.49150487501E+03 -0.36240459825E+03  0.82738127878E+03  0.00000000000E+00 0.  1.
<mgrwt>
<rscale>  0 0.20711211E+04</rscale>
<asrwt>0</asrwt>
<pdfrwt beam="1">  1        1 0.23457134E+00 0.20711211E+04</pdfrwt>
<pdfrwt beam="2">  1       -1 0.10820550E+00 0.20711211E+04</pdfrwt>
<totfact> 0.46000790E+00</totfact>
</mgrwt>
</event>
<event>
 6    1  0.1588846E-005  0.1525542E+04  0.7818608E-02  0.8867643E-01
         -2   -1    0    0    0  501 -0.00000000000E+00  0.00000000000E+00  0.32496380455E+03  0.32496380455E+03  0.00000000000E+00 0.  1.
          2   -1    0    0  501    0  0.00000000000E+00 -0.00000000000E+00 -0.17904132377E+04  0.17904132377E+04  0.00000000000E+00 0. -1.
         23    2    1    2    0    0  0.67197709152E+03 -0.34197998607E+03 -0.86846098032E+03  0.11536604857E+04  0.90578802350E+02 0.  0.
         11    1    3    3    0    0  0.36608058699E+03 -0.14051067104E+03 -0.41925205537E+03  0.57404749872E+03  0.00000000000E+00 0.  1.
        -11    1    3    3    0    0  0.30589650453E+03 -0.20146931503E+03 -0.44920892495E+03  0.57961298695E+03  0.00000000000E+00 0. -1.
         22    1    1    2    0    0 -0.67197709152E+03  0.34197998607E+03 -0.59698845282E+03  0.96171655658E+03  0.00000000000E+00 0.  1.
<mgrwt>
<rscale>  0 0.15255419E+04</rscale>
<asrwt>0</asrwt>
<pdfrwt beam="1">  1        2 0.27544819E+00 0.15255419E+04</pdfrwt>
<pdfrwt beam="2">  1       -2 0.49994431E-01 0.15255419E+04</pdfrwt>
<totfact> 0.31883063E+01</totfact>
</mgrwt>
</event>
<event>
 6    1  0.1588846E-005  0.2763102E+04  0.7818608E-02  0.8314816E-01
         -1   -1    0    0    0  501 -0.00000000000E+00  0.00000000000E+00  0.19313238789E+04  0.19313238789E+04  0.00000000000E+00 0.  1.
          1   -1    0    0  501    0  0.00000000000E+00 -0.00000000000E+00 -0.98827699034E+03  0.98827699034E+03  0.00000000000E+00 0. -1.
         23    2    1    2    0    0 -0.56932723726E+03  0.11405317818E+04 -0.86691004562E+02  0.12809104235E+04  0.90939178814E+02 0.  0.
         11    1    3    3    0    0 -0.25299858628E+03  0.52665746105E+03  0.47919079565E+01  0.58429387154E+03  0.00000000000E+00 0. -1.
        -11    1    3    3    0    0 -0.31632865098E+03  0.61387432078E+03 -0.91482912518E+02  0.69661655194E+03  0.00000000000E+00 0.  1.
         22    1    1    2    0    0  0.56932723726E+03 -0.11405317818E+04  0.10297378931E+04  0.16386904457E+04  0.00000000000E+00 0.  1.
<mgrwt>
<rscale>  0 0.27631018E+04</rscale>
<asrwt>0</asrwt>
<pdfrwt beam="1">  1        1 0.15204261E+00 0.27631018E+04</pdfrwt>
<pdfrwt beam="2">  1       -1 0.29712675E+00 0.27631018E+04</pdfrwt>
<totfact> 0.46266286E-01</totfact>
</mgrwt>
</event>
<event>
 6    1  0.1588846E-005  0.4719245E+04  0.7818608E-02  0.7873339E-01
         -2   -1    0    0    0  501 -0.00000000000E+00  0.00000000000E+00  0.28656247629E+04  0.28656247629E+04  0.00000000000E+00 0.  1.
          2   -1    0    0  501    0  0.00000000000E+00 -0.00000000000E+00 -0.19429685205E+04  0.19429685205E+04  0.00000000000E+00 0. -1.
         23    2    1    2    0    0  0.12828628479E+04  0.13336683235E+04 -0.10287594952E+04  0.21192752166E+04  0.92590826573E+02 0.  0.
         13    1    3    3    0    0  0.50207822144E+03  0.58781903619E+03 -0.42920157847E+03  0.88421024351E+03  0.00000000000E+00 0. -1.
        -13    1    3    3    0    0  0.78078462650E+03  0.74584928733E+03 -0.59955791670E+03  0.12350649731E+04  0.00000000000E+00 0.  1.
         22    1    1    2    0    0 -0.12828628479E+04 -0.13336683235E+04  0.19514157376E+04  0.26893180668E+04  0.00000000000E+00 0.  1.
<mgrwt>
<rscale>  0 0.47192452E+04</rscale>
<asrwt>0</asrwt>
<pdfrwt beam="1">  1        2 0.29891823E+00 0.47192452E+04</pdfrwt>
<pdfrwt beam="2">  1       -2 0.44086535E+00 0.47192452E+04</pdfrwt>
<totfact> 0.21377314E-02</totfact>
</mgrwt>
</event>
<event>
 6    1  0.1588846E-005  0.1309958E+04  0.7818608E-02  0.9021705E-01
          2   -1    0    0  501    0  0.00000000000E+00  0.00000000000E+00  0.29120586028E+04  0.29120586028E+04  0.00000000000E+00 0. -1.
         -2   -1    0    0    0  501 -0.00000000000E+00 -0.00000000000E+00 -0.14731762045E+03  0.14731762045E+03  0.00000000000E+00 0.  1.
         23    2    1    2    0    0 -0.37126907368E+03  0.32201326706E+02  0.26391161197E+04  0.26661088121E+04  0.65762104060E+02 0.  0.
         13    1    3    3    0    0 -0.23933614317E+03  0.33520312182E+02  0.19000811124E+04  0.19153886380E+04  0.00000000000E+00 0. -1.
        -13    1    3    3    0    0 -0.13193293051E+03 -0.13189854763E+01  0.73903500733E+03  0.75072017419E+03  0.00000000000E+00 0.  1.
         22    1    1    2    0    0  0.37126907368E+03 -0.32201326706E+02  0.12562486260E+03  0.39326741108E+03  0.00000000000E+00 0.  1.
<mgrwt>
<rscale>  0 0.13099581E+04</rscale>
<asrwt>0</asrwt>
<pdfrwt beam="1">  1        2 0.44800897E+00 0.13099581E+04</pdfrwt>
<pdfrwt beam="2">  1       -2 0.22664252E-01 0.13099581E+04</pdfrwt>
<totfact> 0.33447583E+01</totfact>
</mgrwt>
</event>
<event>
 6    1  0.1588846E-005  0.2141850E+04  0.7818608E-02  0.8543029E-01
         -1   -1    0    0    0  501 -0.00000000000E+00  0.00000000000E+00  0.97201000409E+03  0.97201000409E+03  0.00000000000E+00 0.  1.
          1   -1    0    0  501    0  0.00000000000E+00 -0.00000000000E+00 -0.11799062096E+04  0.11799062096E+04  0.00000000000E+00 0. -1.
         23    2    1    2    0    0  0.96640414787E+03 -0.18598739499E+03  0.31537734250E+03  0.10373115779E+04  0.89577638698E+02 0.  0.
         13    1    3    3    0    0  0.88609980957E+03 -0.16650436991E+03  0.26187393264E+03  0.93886875244E+03  0.00000000000E+00 0. -1.
        -13    1    3    3    0    0  0.80304338299E+02 -0.19483025071E+02  0.53503409858E+02  0.98442825447E+02  0.00000000000E+00 0.  1.
         22    1    1    2    0    0 -0.96640414787E+03  0.18598739499E+03 -0.52327354803E+03  0.11146046358E+04  0.00000000000E+00 0. -1.
<mgrwt>
<rscale>  0 0.21418503E+04</rscale>
<asrwt>0</asrwt>
<pdfrwt beam="1">  1        1 0.18152403E+00 0.21418503E+04</pdfrwt>
<pdfrwt beam="2">  1       -1 0.14954000E+00 0.21418503E+04</pdfrwt>
<totfact> 0.35641194E+00</totfact>
</mgrwt>
</event>
<event>
 6    1  0.1588846E-005  0.8369975E+03  0.7818608E-02  0.9507957E-01
         -2   -1    0    0    0  501 -0.00000000000E+00  0.00000000000E+00  0.16787553554E+03  0.16787553554E+03  0.00000000000E+00 0.  1.
          2   -1    0    0  501    0  0.00000000000E+00 -0.00000000000E+00 -0.10432800791E+04  0.10432800791E+04  0.00000000000E+00 0. -1.
         23    2    1    2    0    0 -0.12872222464E+03 -0.38732564360E+03 -0.54132276344E+03  0.68370779627E+03  0.88518083762E+02 0.  0.
         11    1    3    3    0    0 -0.95278737134E+02 -0.21161528188E+03 -0.24408771488E+03  0.33680540054E+03  0.00000000000E+00 0. -1.
        -11    1    3    3    0    0 -0.33443487510E+02 -0.17571036172E+03 -0.29723504856E+03  0.34690239573E+03  0.00000000000E+00 0.  1.
         22    1    1    2    0    0  0.12872222464E+03  0.38732564360E+03 -0.33408178015E+03  0.52744781840E+03  0.00000000000E+00 0. -1.
<mgrwt>
<rscale>  0 0.83699750E+03</rscale>
<asrwt>0</asrwt>
<pdfrwt beam="1">  1        2 0.16050463E+00 0.83699750E+03</pdfrwt>
<pdfrwt beam="2">  1       -2 0.25827005E-01 0.83699750E+03</pdfrwt>
<totfact> 0.32054554E+02</totfact>
</mgrwt>
</event>
<event>
 6    1  0.1588846E-005  0.2163686E+04  0.7818608E-02  0.8533696E-01
          1   -1    0    0  501    0  0.00000000000E+00  0.00000000000E+00  0.23851529731E+04  0.23851529731E+04  0.00000000000E+00 0. -1.
         -1   -1    0    0    0  501 -0.00000000000E+00 -0.00000000000E+00 -0.49069589539E+03  0.49069589539E+03  0.00000000000E+00 0.  1.
         23    2    1    2    0    0  0.32981870799E+03 -0.22831433054E+03  0.22810408280E+04  0.23187538949E+04  0.11209171466E+03 0.  0.
         13    1    3    3    0    0  0.14282818209E+03 -0.97616234765E+02  0.13043186633E+04  0.13157416138E+04  0.00000000000E+00 0. -1.
        -13    1    3    3    0    0  0.18699052590E+03 -0.13069809577E+03  0.97672216466E+03  0.10030122811E+04  0.00000000000E+00 0.  1.
         22    1    1    2    0    0 -0.32981870799E+03  0.22831433054E+03 -0.38658375025E+03  0.55709497361E+03  0.00000000000E+00 0.  1.
<mgrwt>
<rscale>  0 0.21636865E+04</rscale>
<asrwt>0</asrwt>
<pdfrwt beam="1">  1        1 0.36694661E+00 0.21636865E+04</pdfrwt>
<pdfrwt beam="2">  1       -1 0.75491677E-01 0.21636865E+04</pdfrwt>
<totfact> 0.26236038E+00</totfact>
</mgrwt>
</event>
<event>
 6    1  0.1588846E-005  0.1851984E+04  0.7818608E-02  0.8679133E-01
          2   -1    0    0  501    0  0.00000000000E+00  0.00000000000E+00  0.13148963469E+04  0.13148963469E+04  0.00000000000E+00 0. -1.
         -2   -1    0    0    0  501 -0.00000000000E+00 -0.00000000000E+00 -0.65211317119E+03  0.65211317119E+03  0.00000000000E+00 0.  1.
         23    2    1    2    0    0 -0.85530962818E+03  0.57651727612E+02  0.69584050223E+03  0.11091219563E+04  0.10525791044E+03 0.  0.
         11    1    3    3    0    0 -0.78092631251E+03  0.22649773211E+02  0.63690214757E+03  0.10079698723E+04  0.00000000000E+00 0.  1.
        -11    1    3    3    0    0 -0.74383315675E+02  0.35001954402E+02  0.58938354658E+02  0.10115208407E+03  0.00000000000E+00 0. -1.
         22    1    1    2    0    0  0.85530962818E+03 -0.57651727612E+02 -0.33057326528E+02  0.85788756175E+03  0.00000000000E+00 0.  1.
<mgrwt>
<rscale>  0 0.18519840E+04</rscale>
<asrwt>0</asrwt>
<pdfrwt beam="1">  1        2 0.20229174E+00 0.18519840E+04</pdfrwt>
<pdfrwt beam="2">  1       -2 0.10032510E+00 0.18519840E+04</pdfrwt>
<totfact> 0.12489097E+01</totfact>
</mgrwt>
</event>
<event>
 6    1  0.1588846E-005  0.3130957E+04  0.7818608E-02  0.8207293E-01
          2   -1    0    0  501    0  0.00000000000E+00  0.00000000000E+00  0.21211625804E+04  0.21211625804E+04  0.00000000000E+00 0. -1.
         -2   -1    0    0    0  501 -0.00000000000E+00 -0.00000000000E+00 -0.11553677726E+04  0.11553677726E+04  0.00000000000E+00 0.  1.
         23    2    1    2    0    0 -0.56447226620E+03 -0.84565382764E+03  0.17272124701E+04  0.20062877810E+04  0.90379243998E+02 0.  0.
         13    1    3    3    0    0 -0.15578302438E+03 -0.28814075006E+03  0.61403048149E+03  0.69593597028E+03  0.00000000000E+00 0. -1.
        -13    1    3    3    0    0 -0.40868924181E+03 -0.55751307758E+03  0.11131819886E+04  0.13103518107E+04  0.00000000000E+00 0.  1.
         22    1    1    2    0    0  0.56447226620E+03  0.84565382764E+03 -0.76141766229E+03  0.12702425721E+04  0.00000000000E+00 0.  1.
<mgrwt>
<rscale>  0 0.31309570E+04</rscale>
<asrwt>0</asrwt>
<pdfrwt beam="1">  1        2 0.32633270E+00 0.31309570E+04</pdfrwt>
<pdfrwt beam="2">  1       -2 0.17774889E+00 0.31309570E+04</pdfrwt>
<totfact> 0.91021380E-01</totfact>
</mgrwt>
</event>
<event>
 6    1  0.1588846E-005  0.1789239E+04  0.7818608E-02  0.8712043E-01
          2   -1    0    0  501    0  0.00000000000E+00  0.00000000000E+00  0.25126137024E+03  0.25126137024E+03  0.00000000000E+00 0. -1.
         -2   -1    0    0    0  501 -0.00000000000E+00 -0.00000000000E+00 -0.31853037702E+04  0.31853037702E+04  0.00000000000E+00 0.  1.
         23    2    1    2    0    0  0.26279675922E+03  0.84925646856E+03 -0.13196810471E+04  0.15936160734E+04  0.88064960675E+02 0.  0.
         13    1    3    3    0    0  0.23286485134E+03  0.69388910198E+03 -0.11336707970E+04  0.13494137989E+04  0.00000000000E+00 0.  1.
        -13    1    3    3    0    0  0.29931907889E+02  0.15536736658E+03 -0.18601025014E+03  0.24420227449E+03  0.00000000000E+00 0. -1.
         22    1    1    2    0    0 -0.26279675922E+03 -0.84925646856E+03 -0.16143613529E+04  0.18429490670E+04  0.00000000000E+00 0.  1.
<mgrwt>
<rscale>  0 0.17892387E+04</rscale>
<asrwt>0</asrwt>
<pdfrwt beam="1">  1        2 0.38655595E-01 0.17892387E+04</pdfrwt>
<pdfrwt beam="2">  1       -2 0.49004673E+00 0.17892387E+04</pdfrwt>
<totfact> 0.24078916E-01</totfact>
</mgrwt>
</event>
<event>
 6    1  0.1588846E-005  0.2966215E+04  0.7818608E-02  0.8253445E-01
         -2   -1    0    0    0  501 -0.00000000000E+00  0.00000000000E+00  0.10948123571E+04  0.10948123571E+04  0.00000000000E+00 0.  1.
          2   -1    0    0  501    0  0.00000000000E+00 -0.00000000000E+00 -0.20091182464E+04  0.20091182464E+04  0.00000000000E+00 0. -1.
         23    2    1    2    0    0 -0.20176720998E+03  0.35536933654E+03 -0.19479625494E+04  0.19924255593E+04  0.90576725590E+02 0.  0.
         13    1    3    3    0    0 -0.20450552217E+03  0.30419467008E+03 -0.16664287291E+04  0.17062653999E+04  0.00000000000E+00 0. -1.
        -13    1    3    3    0    0  0.27383121887E+01  0.51174666464E+02 -0.28153382032E+03  0.28616015939E+03  0.00000000000E+00 0.  1.
         22    1    1    2    0    0  0.20176720998E+03 -0.35536933654E+03  0.10336566600E+04  0.11115050442E+04  0.00000000000E+00 0.  1.
<mgrwt>
<rscale>  0 0.29662147E+04</rscale>
<asrwt>0</asrwt>
<pdfrwt beam="1">  1        2 0.30909511E+00 0.29662147E+04</pdfrwt>
<pdfrwt beam="2">  1       -2 0.16843267E+00 0.29662147E+04</pdfrwt>
<totfact> 0.12397754E+00</totfact>
</mgrwt>
</event>
<event>
 6    1  0.1588846E-005  0.2304645E+04  0.7818608E-02  0.8476092E-01
         -1   -1    0    0    0  501 -0.00000000000E+00  0.00000000000E+00  0.98490148107E+03  0.98490148107E+03  0.00000000000E+00 0.  1.
          1   -1    0    0  501    0  0.00000000000E+00 -0.00000000000E+00 -0.13482030699E+04  0.13482030699E+04  0.00000000000E+00 0. -1.
         23    2    1    2    0    0  0.26014847120E+03  0.38189413414E+02  0.95206364144E+03  0.99171670722E+03  0.89113364133E+02 0.  0.
         13    1    3    3    0    0  0.13476046971E+03  0.13778662247E+02  0.33090423269E+03  0.35755817281E+03  0.00000000000E+00 0. -1.
        -13    1    3    3    0    0  0.12538800149E+03  0.24410751167E+02  0.62115940875E+03  0.63415853442E+03  0.00000000000E+00 0.  1.
         22    1    1    2    0    0 -0.26014847120E+03 -0.38189413414E+02 -0.13153652303E+04  0.13413878438E+04  0.00000000000E+00 0. -1.
<mgrwt>
<rscale>  0 0.23046450E+04</rscale>
<asrwt>0</asrwt>
<pdfrwt beam="1">  1        1 0.20741586E+00 0.23046450E+04</pdfrwt>
<pdfrwt beam="2">  1       -1 0.15152330E+00 0.23046450E+04</pdfrwt>
<totfact> 0.25638641E+00</totfact>
</mgrwt>
</event>
<event>
 6    1  0.1588846E-005  0.4672463E+04  0.7818608E-02  0.7881120E-01
         -2   -1    0    0    0  501 -0.00000000000E+00  0.00000000000E+00  0.14761045169E+04  0.14761045169E+04  0.00000000000E+00 0. -1.
          2   -1    0    0  501    0  0.00000000000E+00 -0.00000000000E+00 -0.36975555407E+04  0.36975555407E+04  0.00000000000E+00 0.  1.
         23    2    1    2    0    0 -0.62363956517E+03 -0.21960163455E+04 -0.56592505918E+03  0.23536990089E+04  0.90629769474E+02 0.  0.
         11    1    3    3    0    0 -0.37427917630E+03 -0.11706256412E+04 -0.28331629814E+03  0.12612364641E+04  0.00000000000E+00 0. -1.
        -11    1    3    3    0    0 -0.24936038887E+03 -0.10253907042E+04 -0.28260876104E+03  0.10924625447E+04  0.00000000000E+00 0.  1.
         22    1    1    2    0    0  0.62363956517E+03  0.21960163455E+04 -0.16555259647E+04  0.28199610487E+04  0.00000000000E+00 0.  1.
<mgrwt>
<rscale>  0 0.46724633E+04</rscale>
<asrwt>0</asrwt>
<pdfrwt beam="1">  1        2 0.56885469E+00 0.46724633E+04</pdfrwt>
<pdfrwt beam="2">  1       -2 0.22709300E+00 0.46724633E+04</pdfrwt>
<totfact> 0.38943453E-02</totfact>
</mgrwt>
</event>
<event>
 6    1  0.1588846E-005  0.1106166E+04  0.7818608E-02  0.9199202E-01
         -1   -1    0    0    0  501 -0.00000000000E+00  0.00000000000E+00  0.59122672076E+03  0.59122672076E+03  0.00000000000E+00 0.  1.
          1   -1    0    0  501    0  0.00000000000E+00 -0.00000000000E+00 -0.51740051986E+03  0.51740051986E+03  0.00000000000E+00 0. -1.
         23    2    1    2    0    0  0.51248320058E+03 -0.19143271195E+03 -0.10885787818E+02  0.55503746912E+03  0.93072969584E+02 0.  0.
         13    1    3    3    0    0  0.14757973090E+03 -0.57795373262E+02  0.39063031738E+02  0.16323603338E+03  0.00000000000E+00 0.  1.
        -13    1    3    3    0    0  0.36490346968E+03 -0.13363733868E+03 -0.49948819556E+02  0.39180143574E+03  0.00000000000E+00 0. -1.
         22    1    1    2    0    0 -0.51248320058E+03  0.19143271195E+03  0.84711988721E+02  0.55358977151E+03  0.00000000000E+00 0. -1.
<mgrwt>
<rscale>  0 0.11061664E+04</rscale>
<asrwt>0</asrwt>
<pdfrwt beam="1">  1        1 0.79600080E-01 0.11061664E+04</pdfrwt>
<pdfrwt beam="2">  1       -1 0.90957957E-01 0.11061664E+04</pdfrwt>
<totfact> 0.49706263E+01</totfact>
</mgrwt>
</event>
<event>
 6    1  0.1588846E-005  0.2705380E+04  0.7818608E-02  0.8333262E-01
         -1   -1    0    0    0  501 -0.00000000000E+00  0.00000000000E+00  0.69724418336E+03  0.69724418336E+03  0.00000000000E+00 0. -1.
          1   -1    0    0  501    0  0.00000000000E+00 -0.00000000000E+00 -0.26242884145E+04  0.26242884145E+04  0.00000000000E+00 0.  1.
         23    2    1    2    0    0  0.59921689956E+03 -0.12098546616E+04 -0.10182018193E+04  0.16940180129E+04  0.10076154090E+03 0.  0.
         11    1    3    3    0    0  0.50700268120E+03 -0.98197023375E+03 -0.87436756823E+03  0.14091969000E+04  0.00000000000E+00 0.  1.
        -11    1    3    3    0    0  0.92214218360E+02 -0.22788442783E+03 -0.14383425111E+03  0.28482111282E+03  0.00000000000E+00 0. -1.
         22    1    1    2    0    0 -0.59921689956E+03  0.12098546616E+04 -0.90884241176E+03  0.16275145850E+04  0.00000000000E+00 0. -1.
<mgrwt>
<rscale>  0 0.27053797E+04</rscale>
<asrwt>0</asrwt>
<pdfrwt beam="1">  1        1 0.40373667E+00 0.27053797E+04</pdfrwt>
<pdfrwt beam="2">  1       -1 0.10726834E+00 0.27053797E+04</pdfrwt>
<totfact> 0.78377933E-01</totfact>
</mgrwt>
</event>
<event>
 6    1  0.2075046E-005  0.2842765E+04  0.7818608E-02  0.8290113E-01
          2   -1    0    0  501    0  0.00000000000E+00  0.00000000000E+00  0.24154379001E+04  0.24154379001E+04  0.00000000000E+00 0. -1.
         -2   -1    0    0    0  501 -0.00000000000E+00 -0.00000000000E+00 -0.83642312235E+03  0.83642312235E+03  0.00000000000E+00 0.  1.
         23    2    1    2    0    0  0.33794676429E+03 -0.47494302407E+03 -0.69064949891E+03  0.90853969998E+03  0.93106200018E+02 0.  0.
         11    1    3    3    0    0  0.90078765734E+02 -0.93188816627E+02 -0.20836257451E+03  0.24538398896E+03  0.00000000000E+00 0.  1.
        -11    1    3    3    0    0  0.24786799856E+03 -0.38175420744E+03 -0.48228692440E+03  0.66315571102E+03  0.00000000000E+00 0. -1.
         22    1    1    2    0    0 -0.33794676429E+03  0.47494302407E+03  0.22696642766E+04  0.23433213225E+04  0.00000000000E+00 0. -1.
<mgrwt>
<rscale>  0 0.28427649E+04</rscale>
<asrwt>0</asrwt>
<pdfrwt beam="1">  1        2 0.37160583E+00 0.28427649E+04</pdfrwt>
<pdfrwt beam="2">  1       -2 0.12868048E+00 0.28427649E+04</pdfrwt>
<totfact> 0.15050111E+00</totfact>
</mgrwt>
</event>
<event>
 6    1  0.1588846E-005  0.4024098E+04  0.7818608E-02  0.7999703E-01
         -2   -1    0    0    0  501 -0.00000000000E+00  0.00000000000E+00  0.13481109300E+04  0.13481109300E+04  0.00000000000E+00 0.  1.
          2   -1    0    0  501    0  0.00000000000E+00 -0.00000000000E+00 -0.30029731112E+04  0.30029731112E+04  0.00000000000E+00 0. -1.
         23    2    1    2    0    0 -0.58246997398E+03 -0.54375633910E+03 -0.28243241147E+04  0.29359573893E+04  0.89982552677E+02 0.  0.
         13    1    3    3    0    0 -0.50609693646E+03 -0.43155671227E+03 -0.22865746359E+04  0.23813439211E+04  0.00000000000E+00 0. -1.
        -13    1    3    3    0    0 -0.76373037516E+02 -0.11219962683E+03 -0.53774947883E+03  0.55461346819E+03  0.00000000000E+00 0.  1.
         22    1    1    2    0    0  0.58246997398E+03  0.54375633910E+03  0.11694619336E+04  0.14151266519E+04  0.00000000000E+00 0.  1.
<mgrwt>
<rscale>  0 0.40240978E+04</rscale>
<asrwt>0</asrwt>
<pdfrwt beam="1">  1        2 0.46199586E+00 0.40240978E+04</pdfrwt>
<pdfrwt beam="2">  1       -2 0.20740168E+00 0.40240978E+04</pdfrwt>
<totfact> 0.16236119E-01</totfact>
</mgrwt>
</event>
<event>
 6    1  0.1588846E-005  0.3544831E+04  0.7818608E-02  0.8103247E-01
         -2   -1    0    0    0  501 -0.00000000000E+00  0.00000000000E+00  0.11374001801E+04  0.11374001801E+04  0.00000000000E+00 0.  1.
          2   -1    0    0  501    0  0.00000000000E+00 -0.00000000000E+00 -0.27619630405E+04  0.27619630405E+04  0.00000000000E+00 0. -1.
         23    2    1    2    0    0 -0.25577258687E+03 -0.49893187903E+03 -0.26610151545E+04  0.27209804331E+04  0.91543590676E+02 0.  0.
         13    1    3    3    0    0 -0.13821112517E+02 -0.74260556151E+02 -0.47699638701E+03  0.48294016873E+03  0.00000000000E+00 0. -1.
        -13    1    3    3    0    0 -0.24195147435E+03 -0.42467132287E+03 -0.21840187675E+04  0.22380402644E+04  0.00000000000E+00 0.  1.
         22    1    1    2    0    0  0.25577258687E+03  0.49893187903E+03  0.10364522940E+04  0.11783827875E+04  0.00000000000E+00 0.  1.
<mgrwt>
<rscale>  0 0.35448313E+04</rscale>
<asrwt>0</asrwt>
<pdfrwt beam="1">  1        2 0.42491739E+00 0.35448313E+04</pdfrwt>
<pdfrwt beam="2">  1       -2 0.17498465E+00 0.35448313E+04</pdfrwt>
<totfact> 0.39212786E-01</totfact>
</mgrwt>
</event>
<event>
 6    1  0.1588846E-005  0.2954867E+04  0.7818608E-02  0.8256738E-01
          1   -1    0    0  501    0  0.00000000000E+00  0.00000000000E+00  0.17882543657E+04  0.17882543657E+04  0.00000000000E+00 0. -1.
         -1   -1    0    0    0  501 -0.00000000000E+00 -0.00000000000E+00 -0.12206369395E+04  0.12206369395E+04  0.00000000000E+00 0.  1.
         23    2    1    2    0    0 -0.61171453535E+03 -0.13422247633E+04  0.33991916396E+03  0.15163738057E+04  0.89902683599E+02 0.  0.
         13    1    3    3    0    0 -0.54767758511E+03 -0.11317903772E+04  0.27542561104E+03  0.12871516858E+04  0.00000000000E+00 0. -1.
        -13    1    3    3    0    0 -0.64036950241E+02 -0.21043438607E+03  0.64493552923E+02  0.22922211980E+03  0.00000000000E+00 0.  1.
         22    1    1    2    0    0  0.61171453535E+03  0.13422247633E+04  0.22769826218E+03  0.14925174996E+04  0.00000000000E+00 0. -1.
<mgrwt>
<rscale>  0 0.29548667E+04</rscale>
<asrwt>0</asrwt>
<pdfrwt beam="1">  1        1 0.27511606E+00 0.29548667E+04</pdfrwt>
<pdfrwt beam="2">  1       -1 0.18779030E+00 0.29548667E+04</pdfrwt>
<totfact> 0.64932528E-01</totfact>
</mgrwt>
</event>
<event>
 6    1  0.1588846E-005  0.2931985E+04  0.7818608E-02  0.8263424E-01
         -2   -1    0    0    0  501 -0.00000000000E+00  0.00000000000E+00  0.16420944524E+04  0.16420944524E+04  0.00000000000E+00 0.  1.
          2   -1    0    0  501    0  0.00000000000E+00 -0.00000000000E+00 -0.13087762643E+04  0.13087762643E+04  0.00000000000E+00 0. -1.
         23    2    1    2    0    0 -0.83476305304E+03  0.10267505746E+03 -0.10400401291E+04  0.13404407774E+04  0.87900428902E+02 0.  0.
         11    1    3    3    0    0 -0.37391032483E+03  0.54395121531E+01 -0.48719824882E+03  0.61416663290E+03  0.00000000000E+00 0. -1.
        -11    1    3    3    0    0 -0.46085272820E+03  0.97235545303E+02 -0.55284188029E+03  0.72627414450E+03  0.00000000000E+00 0.  1.
         22    1    1    2    0    0  0.83476305304E+03 -0.10267505746E+03  0.13733583172E+04  0.16104299393E+04  0.00000000000E+00 0.  1.
<mgrwt>
<rscale>  0 0.29319852E+04</rscale>
<asrwt>0</asrwt>
<pdfrwt beam="1">  1        2 0.20135019E+00 0.29319852E+04</pdfrwt>
<pdfrwt beam="2">  1       -2 0.25262992E+00 0.29319852E+04</pdfrwt>
<totfact> 0.87070782E-01</totfact>
</mgrwt>
</event>
<event>
 6    1  0.1588846E-005  0.8603920E+03  0.7818608E-02  0.9476494E-01
          2   -1    0    0  501    0  0.00000000000E+00  0.00000000000E+00  0.74546426709E+03  0.74546426709E+03  0.00000000000E+00 0. -1.
         -2   -1    0    0    0  501 -0.00000000000E+00 -0.00000000000E+00 -0.24825949883E+03  0.24825949883E+03  0.00000000000E+00 0.  1.
         23    2    1    2    0    0  0.39924953582E+03 -0.26278143210E+02  0.41872752119E+03  0.58598682748E+03  0.89202535358E+02 0.  0.
         13    1    3    3    0    0  0.16902910884E+03  0.32936279654E+02  0.17347177025E+03  0.24443423088E+03  0.00000000000E+00 0.  1.
        -13    1    3    3    0    0  0.23022042698E+03 -0.59214422864E+02  0.24525575095E+03  0.34155259660E+03  0.00000000000E+00 0. -1.
         22    1    1    2    0    0 -0.39924953582E+03  0.26278143210E+02  0.78477247067E+02  0.40773693844E+03  0.00000000000E+00 0.  1.
<mgrwt>
<rscale>  0 0.86039197E+03</rscale>
<asrwt>0</asrwt>
<pdfrwt beam="1">  1        2 0.11468681E+00 0.86039197E+03</pdfrwt>
<pdfrwt beam="2">  1       -2 0.38193769E-01 0.86039197E+03</pdfrwt>
<totfact> 0.24553071E+02</totfact>
</mgrwt>
</event>
<event>
 6    1  0.1588846E-005  0.1169684E+04  0.7818608E-02  0.9139814E-01
         -1   -1    0    0    0  501 -0.00000000000E+00  0.00000000000E+00  0.77690936325E+03  0.77690936325E+03  0.00000000000E+00 0.  1.
          1   -1    0    0  501    0  0.00000000000E+00 -0.00000000000E+00 -0.44025747614E+03  0.44025747614E+03  0.00000000000E+00 0. -1.
         23    2    1    2    0    0 -0.44291143741E+03 -0.11250444349E+03  0.54308062087E+03  0.71572829548E+03  0.92209766213E+02 0.  0.
         13    1    3    3    0    0 -0.33626811265E+03 -0.46164541931E+02  0.41830358497E+03  0.53868849785E+03  0.00000000000E+00 0.  1.
        -13    1    3    3    0    0 -0.10664332476E+03 -0.66339901563E+02  0.12477703590E+03  0.17703979763E+03  0.00000000000E+00 0. -1.
         22    1    1    2    0    0  0.44291143741E+03  0.11250444349E+03 -0.20642873376E+03  0.50143854391E+03  0.00000000000E+00 0. -1.
<mgrwt>
<rscale>  0 0.11696840E+04</rscale>
<asrwt>0</asrwt>
<pdfrwt beam="1">  1        1 0.67731919E-01 0.11696840E+04</pdfrwt>
<pdfrwt beam="2">  1       -1 0.11952452E+00 0.11696840E+04</pdfrwt>
<totfact> 0.32716242E+01</totfact>
</mgrwt>
</event>
<event>
 6    1  0.1588846E-005  0.1858556E+04  0.7818608E-02  0.8675765E-01
          2   -1    0    0  501    0  0.00000000000E+00  0.00000000000E+00  0.32593365980E+04  0.32593365980E+04  0.00000000000E+00 0. -1.
         -2   -1    0    0    0  501 -0.00000000000E+00 -0.00000000000E+00 -0.26494878213E+03  0.26494878213E+03  0.00000000000E+00 0.  1.
         23    2    1    2    0    0 -0.32967011235E+03 -0.40944283314E+03  0.54312533777E+02  0.53758678787E+03  0.98609769194E+02 0.  0.
         11    1    3    3    0    0 -0.74714402584E+02 -0.11162441458E+03 -0.27475451396E+02  0.13710270717E+03  0.00000000000E+00 0. -1.
        -11    1    3    3    0    0 -0.25495570977E+03 -0.29781841856E+03  0.81787985173E+02  0.40048408070E+03  0.00000000000E+00 0.  1.
         22    1    1    2    0    0  0.32967011235E+03  0.40944283314E+03  0.29400752821E+04  0.29866985923E+04  0.00000000000E+00 0. -1.
<mgrwt>
<rscale>  0 0.18585556E+04</rscale>
<asrwt>0</asrwt>
<pdfrwt beam="1">  1        2 0.50143637E+00 0.18585556E+04</pdfrwt>
<pdfrwt beam="2">  1       -2 0.40761353E-01 0.18585556E+04</pdfrwt>
<totfact> 0.63814333E+00</totfact>
</mgrwt>
</event>
<event>
 6    1  0.1588846E-005  0.2739477E+04  0.7818608E-02  0.8322309E-01
         -1   -1    0    0    0  501 -0.00000000000E+00  0.00000000000E+00  0.12956285560E+04  0.12956285560E+04  0.00000000000E+00 0.  1.
          1   -1    0    0  501    0  0.00000000000E+00 -0.00000000000E+00 -0.14480871007E+04  0.14480871007E+04  0.00000000000E+00 0. -1.
         23    2    1    2    0    0  0.32604916758E+03 -0.71200368498E+03 -0.12003416334E+04  0.14355427802E+04  0.81888521162E+02 0.  0.
         13    1    3    3    0    0  0.24619700490E+03 -0.44360332213E+03 -0.77046760043E+03  0.92250593274E+03  0.00000000000E+00 0. -1.
        -13    1    3    3    0    0  0.79852162672E+02 -0.26840036285E+03 -0.42987403299E+03  0.51303684751E+03  0.00000000000E+00 0.  1.
         22    1    1    2    0    0 -0.32604916758E+03  0.71200368498E+03  0.10478830887E+04  0.13081728764E+04  0.00000000000E+00 0.  1.
<mgrwt>
<rscale>  0 0.27394766E+04</rscale>
<asrwt>0</asrwt>
<pdfrwt beam="1">  1        1 0.22278263E+00 0.27394766E+04</pdfrwt>
<pdfrwt beam="2">  1       -1 0.19932747E+00 0.27394766E+04</pdfrwt>
<totfact> 0.94116999E-01</totfact>
</mgrwt>
</event>
<event>
 6    1  0.1588846E-005  0.1634982E+04  0.7818608E-02  0.8799341E-01
          1   -1    0    0  501    0  0.00000000000E+00  0.00000000000E+00  0.12999944479E+04  0.12999944479E+04  0.00000000000E+00 0. -1.
         -1   -1    0    0    0  501 -0.00000000000E+00 -0.00000000000E+00 -0.51407252542E+03  0.51407252542E+03  0.00000000000E+00 0.  1.
         23    2    1    2    0    0 -0.11913200985E+03  0.18185938066E+03 -0.47707571046E+03  0.53249438821E+03  0.93186747201E+02 0.  0.
         11    1    3    3    0    0 -0.11506554765E+03  0.11987379697E+03 -0.40241638727E+03  0.43537197452E+03  0.00000000000E+00 0.  1.
        -11    1    3    3    0    0 -0.40664621996E+01  0.61985583694E+02 -0.74659323195E+02  0.97122413688E+02  0.00000000000E+00 0. -1.
         22    1    1    2    0    0  0.11913200985E+03 -0.18185938066E+03  0.12629976329E+04  0.12815725851E+04  0.00000000000E+00 0. -1.
<mgrwt>
<rscale>  0 0.16349819E+04</rscale>
<asrwt>0</asrwt>
<pdfrwt beam="1">  1        1 0.19999915E+00 0.16349819E+04</pdfrwt>
<pdfrwt beam="2">  1       -1 0.79088081E-01 0.16349819E+04</pdfrwt>
<totfact> 0.13834595E+01</totfact>
</mgrwt>
</event>
<event>
 6    1  0.1596062E-005  0.2523674E+04  0.7818608E-02  0.8394600E-01
         -1   -1    0    0    0  501 -0.00000000000E+00  0.00000000000E+00  0.69309939902E+03  0.69309939902E+03  0.00000000000E+00 0.  1.
          1   -1    0    0  501    0  0.00000000000E+00 -0.00000000000E+00 -0.22972636798E+04  0.22972636798E+04  0.00000000000E+00 0. -1.
         23    2    1    2    0    0 -0.55898443379E+03  0.24677942074E+03 -0.21090947895E+04  0.21976976398E+04  0.90721580039E+02 0.  0.
         11    1    3    3    0    0 -0.34055999256E+03  0.16895156007E+03 -0.11608913786E+04  0.12215541458E+04  0.00000000000E+00 0. -1.
        -11    1    3    3    0    0 -0.21842444122E+03  0.77827860668E+02 -0.94820341091E+03  0.97614349400E+03  0.00000000000E+00 0.  1.
         22    1    1    2    0    0  0.55898443379E+03 -0.24677942074E+03  0.50493050868E+03  0.79266543908E+03  0.00000000000E+00 0.  1.
<mgrwt>
<rscale>  0 0.25236736E+04</rscale>
<asrwt>0</asrwt>
<pdfrwt beam="1">  1        1 0.35342518E+00 0.25236736E+04</pdfrwt>
<pdfrwt beam="2">  1       -1 0.10663068E+00 0.25236736E+04</pdfrwt>
<totfact> 0.13605219E+00</totfact>
</mgrwt>
</event>
<event>
 6    1  0.1588846E-005  0.2335153E+04  0.7818608E-02  0.8464189E-01
         -1   -1    0    0    0  501 -0.00000000000E+00  0.00000000000E+00  0.50104979637E+03  0.50104979637E+03  0.00000000000E+00 0.  1.
          1   -1    0    0  501    0  0.00000000000E+00 -0.00000000000E+00 -0.27207561825E+04  0.27207561825E+04  0.00000000000E+00 0. -1.
         23    2    1    2    0    0 -0.44985377164E+02  0.10669111394E+04 -0.46605616553E+03  0.11686103818E+04  0.90104448101E+02 0.  0.
         11    1    3    3    0    0 -0.16799149371E+01  0.87148220921E+03 -0.37857563516E+03  0.95015976268E+03  0.00000000000E+00 0.  1.
        -11    1    3    3    0    0 -0.43305462227E+02  0.19542893018E+03 -0.87480530362E+02  0.21845061914E+03  0.00000000000E+00 0. -1.
         22    1    1    2    0    0  0.44985377164E+02 -0.10669111394E+04 -0.17536502206E+04  0.20531955971E+04  0.00000000000E+00 0. -1.
<mgrwt>
<rscale>  0 0.23351525E+04</rscale>
<asrwt>0</asrwt>
<pdfrwt beam="1">  1        1 0.41857788E+00 0.23351525E+04</pdfrwt>
<pdfrwt beam="2">  1       -1 0.77084582E-01 0.23351525E+04</pdfrwt>
<totfact> 0.14430381E+00</totfact>
</mgrwt>
</event>
<event>
 6    1  0.1588846E-005  0.1644654E+04  0.7818608E-02  0.8793575E-01
         -1   -1    0    0    0  501 -0.00000000000E+00  0.00000000000E+00  0.47339176194E+03  0.47339176194E+03  0.00000000000E+00 0.  1.
          1   -1    0    0  501    0  0.00000000000E+00 -0.00000000000E+00 -0.14284610701E+04  0.14284610701E+04  0.00000000000E+00 0. -1.
         23    2    1    2    0    0  0.32050195797E+03  0.73553384161E+03 -0.67453263647E+03  0.10518926204E+04  0.88046975622E+02 0.  0.
         13    1    3    3    0    0  0.20036313299E+03  0.44554233849E+03 -0.46532541176E+03  0.67467110452E+03  0.00000000000E+00 0. -1.
        -13    1    3    3    0    0  0.12013882498E+03  0.28999150312E+03 -0.20920722471E+03  0.37722151585E+03  0.00000000000E+00 0.  1.
         22    1    1    2    0    0 -0.32050195797E+03 -0.73553384161E+03 -0.28053667164E+03  0.84996021163E+03  0.00000000000E+00 0.  1.
<mgrwt>
<rscale>  0 0.16446540E+04</rscale>
<asrwt>0</asrwt>
<pdfrwt beam="1">  1        1 0.21976324E+00 0.16446540E+04</pdfrwt>
<pdfrwt beam="2">  1       -1 0.72829503E-01 0.16446540E+04</pdfrwt>
<totfact> 0.13334022E+01</totfact>
</mgrwt>
</event>
<event>
 6    1  0.1588846E-005  0.4896733E+04  0.7818608E-02  0.7844637E-01
          2   -1    0    0  501    0  0.00000000000E+00  0.00000000000E+00  0.44189663025E+04  0.44189663025E+04  0.00000000000E+00 0. -1.
         -2   -1    0    0    0  501 -0.00000000000E+00 -0.00000000000E+00 -0.13565389083E+04  0.13565389083E+04  0.00000000000E+00 0.  1.
         23    2    1    2    0    0  0.15786867775E+04 -0.97436995112E+02  0.37347575062E+04  0.40568505949E+04  0.88753648498E+02 0.  0.
         11    1    3    3    0    0  0.39470919561E+03 -0.59704407644E+02  0.90219146884E+03  0.98656444890E+03  0.00000000000E+00 0. -1.
        -11    1    3    3    0    0  0.11839775819E+04 -0.37732587468E+02  0.28325660374E+04  0.30702861460E+04  0.00000000000E+00 0.  1.
         22    1    1    2    0    0 -0.15786867775E+04  0.97436995112E+02 -0.67233011198E+03  0.17186546159E+04  0.00000000000E+00 0.  1.
<mgrwt>
<rscale>  0 0.48967335E+04</rscale>
<asrwt>0</asrwt>
<pdfrwt beam="1">  1        2 0.67984096E+00 0.48967335E+04</pdfrwt>
<pdfrwt beam="2">  1       -2 0.20869830E+00 0.48967335E+04</pdfrwt>
<totfact> 0.12513606E-02</totfact>
</mgrwt>
</event>
<event>
 6    1  0.1588846E-005  0.3252157E+04  0.7818608E-02  0.8175177E-01
         -2   -1    0    0    0  501 -0.00000000000E+00  0.00000000000E+00  0.87053012020E+03  0.87053012020E+03  0.00000000000E+00 0. -1.
          2   -1    0    0  501    0  0.00000000000E+00 -0.00000000000E+00 -0.30373813795E+04  0.30373813795E+04  0.00000000000E+00 0.  1.
         23    2    1    2    0    0 -0.70017131815E+02 -0.98894393948E+03 -0.26311163000E+04  0.28131720137E+04  0.90836559150E+02 0.  0.
         11    1    3    3    0    0 -0.53469269337E+02 -0.30803943000E+03 -0.75056554594E+03  0.81307803558E+03  0.00000000000E+00 0. -1.
        -11    1    3    3    0    0 -0.16547862478E+02 -0.68090450948E+03 -0.18805507541E+04  0.20000939781E+04  0.00000000000E+00 0.  1.
         22    1    1    2    0    0  0.70017131815E+02  0.98894393948E+03  0.46426504068E+03  0.10947394860E+04  0.00000000000E+00 0.  1.
<mgrwt>
<rscale>  0 0.32521574E+04</rscale>
<asrwt>0</asrwt>
<pdfrwt beam="1">  1        2 0.46728945E+00 0.32521574E+04</pdfrwt>
<pdfrwt beam="2">  1       -2 0.13392771E+00 0.32521574E+04</pdfrwt>
<totfact> 0.55636781E-01</totfact>
</mgrwt>
</event>
<event>
 6    1  0.1588846E-005  0.3042674E+04  0.7818608E-02  0.8231649E-01
         -1   -1    0    0    0  501 -0.00000000000E+00  0.00000000000E+00  0.97043833731E+03  0.97043833731E+03  0.00000000000E+00 0.  1.
          1   -1    0    0  501    0  0.00000000000E+00 -0.00000000000E+00 -0.23849696377E+04  0.23849696377E+04  0.00000000000E+00 0. -1.
         23    2    1    2    0    0 -0.10759438301E+04  0.10295989781E+04 -0.36843662243E+03  0.15355059841E+04  0.65604125958E+02 0.  0.
         13    1    3    3    0    0 -0.52212829472E+03  0.53098039783E+03 -0.20860014326E+03  0.77335125189E+03  0.00000000000E+00 0. -1.
        -13    1    3    3    0    0 -0.55381553539E+03  0.49861858024E+03 -0.15983647917E+03  0.76215473224E+03  0.00000000000E+00 0.  1.
         22    1    1    2    0    0  0.10759438301E+04 -0.10295989781E+04 -0.10460946780E+04  0.18199019909E+04  0.00000000000E+00 0.  1.
<mgrwt>
<rscale>  0 0.30426738E+04</rscale>
<asrwt>0</asrwt>
<pdfrwt beam="1">  1        1 0.36691840E+00 0.30426738E+04</pdfrwt>
<pdfrwt beam="2">  1       -1 0.14929821E+00 0.30426738E+04</pdfrwt>
<totfact> 0.48735768E-01</totfact>
</mgrwt>
</event>
<event>
 6    1  0.1588846E-005  0.1980554E+04  0.7818608E-02  0.8615767E-01
          1   -1    0    0  501    0  0.00000000000E+00  0.00000000000E+00  0.10195594447E+04  0.10195594447E+04  0.00000000000E+00 0. -1.
         -1   -1    0    0    0  501 -0.00000000000E+00 -0.00000000000E+00 -0.96183514388E+03  0.96183514388E+03  0.00000000000E+00 0.  1.
         23    2    1    2    0    0 -0.60120071551E+03  0.76994994769E+03  0.17812583098E+03  0.99713763496E+03  0.91046302041E+02 0.  0.
         13    1    3    3    0    0 -0.46019397050E+03  0.54373407592E+03  0.15914195090E+03  0.72989820957E+03  0.00000000000E+00 0. -1.
        -13    1    3    3    0    0 -0.14100674501E+03  0.22621587177E+03  0.18983880080E+02  0.26723942538E+03  0.00000000000E+00 0.  1.
         22    1    1    2    0    0  0.60120071551E+03 -0.76994994769E+03 -0.12040153017E+03  0.98425695361E+03  0.00000000000E+00 0. -1.
<mgrwt>
<rscale>  0 0.19805536E+04</rscale>
<asrwt>0</asrwt>
<pdfrwt beam="1">  1        1 0.15685530E+00 0.19805536E+04</pdfrwt>
<pdfrwt beam="2">  1       -1 0.14797464E+00 0.19805536E+04</pdfrwt>
<totfact> 0.49131041E+00</totfact>
</mgrwt>
</event>
<event>
 6    1  0.1588846E-005  0.2445844E+04  0.7818608E-02  0.8422537E-01
         -1   -1    0    0    0  501 -0.00000000000E+00  0.00000000000E+00  0.54063332850E+03  0.54063332850E+03  0.00000000000E+00 0.  1.
          1   -1    0    0  501    0  0.00000000000E+00 -0.00000000000E+00 -0.27662700062E+04  0.27662700062E+04  0.00000000000E+00 0. -1.
         23    2    1    2    0    0  0.24302164947E+02 -0.52710115987E+03 -0.26034333352E+04  0.26579375864E+04  0.91328279664E+02 0.  0.
         11    1    3    3    0    0 -0.30341755335E+02 -0.31555444203E+03 -0.15348370545E+04  0.15672332347E+04  0.00000000000E+00 0.  1.
        -11    1    3    3    0    0  0.54643920281E+02 -0.21154671784E+03 -0.10685962807E+04  0.10907043518E+04  0.00000000000E+00 0. -1.
         22    1    1    2    0    0 -0.24302164947E+02  0.52710115987E+03  0.37779665752E+03  0.64896574824E+03  0.00000000000E+00 0.  1.
<mgrwt>
<rscale>  0 0.24458436E+04</rscale>
<asrwt>0</asrwt>
<pdfrwt beam="1">  1        1 0.42558000E+00 0.24458436E+04</pdfrwt>
<pdfrwt beam="2">  1       -1 0.83174358E-01 0.24458436E+04</pdfrwt>
<totfact> 0.11279951E+00</totfact>
</mgrwt>
</event>
<event>
 6    1  0.1588846E-005  0.8151251E+03  0.7818608E-02  0.9538379E-01
         -2   -1    0    0    0  501 -0.00000000000E+00  0.00000000000E+00  0.20021770121E+03  0.20021770121E+03  0.00000000000E+00 0.  1.
          2   -1    0    0  501    0  0.00000000000E+00 -0.00000000000E+00 -0.82963306616E+03  0.82963306616E+03  0.00000000000E+00 0. -1.
         23    2    1    2    0    0  0.79782873521E+01  0.34629269540E+03 -0.57742256383E+03  0.67958581718E+03  0.91857398956E+02 0.  0.
         11    1    3    3    0    0  0.20769233450E+02  0.20222205212E+02 -0.75888138392E+02  0.81236126141E+02  0.00000000000E+00 0. -1.
        -11    1    3    3    0    0 -0.12790946098E+02  0.32607049019E+03 -0.50153442543E+03  0.59834969104E+03  0.00000000000E+00 0.  1.
         22    1    1    2    0    0 -0.79782873521E+01 -0.34629269540E+03 -0.51992801125E+02  0.35026495019E+03  0.00000000000E+00 0.  1.
<mgrwt>
<rscale>  0 0.81512508E+03</rscale>
<asrwt>0</asrwt>
<pdfrwt beam="1">  1        2 0.12763586E+00 0.81512508E+03</pdfrwt>
<pdfrwt beam="2">  1       -2 0.30802723E-01 0.81512508E+03</pdfrwt>
<totfact> 0.32144277E+02</totfact>
</mgrwt>
</event>
<event>
 6    1  0.1588846E-005  0.2143948E+04  0.7818608E-02  0.8542127E-01
         -2   -1    0    0    0  501 -0.00000000000E+00  0.00000000000E+00  0.47238827071E+03  0.47238827071E+03  0.00000000000E+00 0.  1.
          2   -1    0    0  501    0  0.00000000000E+00 -0.00000000000E+00 -0.24325932087E+04  0.24325932087E+04  0.00000000000E+00 0. -1.
         23    2    1    2    0    0 -0.81634612102E+03 -0.50020287490E+03 -0.16299150914E+04  0.18922054488E+04  0.84819515357E+02 0.  0.
         13    1    3    3    0    0 -0.45540044823E+03 -0.23665643327E+03 -0.91442451676E+03  0.10486028955E+04  0.00000000000E+00 0. -1.
        -13    1    3    3    0    0 -0.36094567279E+03 -0.26354644163E+03 -0.71549057462E+03  0.84360255332E+03  0.00000000000E+00 0.  1.
         22    1    1    2    0    0  0.81634612102E+03  0.50020287490E+03 -0.33028984666E+03  0.10127760306E+04  0.00000000000E+00 0.  1.
<mgrwt>
<rscale>  0 0.21439482E+04</rscale>
<asrwt>0</asrwt>
<pdfrwt beam="1">  1        2 0.37424511E+00 0.21439482E+04</pdfrwt>
<pdfrwt beam="2">  1       -2 0.72675118E-01 0.21439482E+04</pdfrwt>
<totfact> 0.59865507E+00</totfact>
</mgrwt>
</event>
<event>
 6    1  0.1588846E-005  0.2805946E+04  0.7818608E-02  0.8301425E-01
          2   -1    0    0  501    0  0.00000000000E+00  0.00000000000E+00  0.12744129111E+04  0.12744129111E+04  0.00000000000E+00 0. -1.
         -2   -1    0    0    0  501 -0.00000000000E+00 -0.00000000000E+00 -0.15445019315E+04  0.15445019315E+04  0.00000000000E+00 0.  1.
         23    2    1    2    0    0  0.63881984578E+03  0.82302648106E+03  0.80591300843E+03  0.13211686191E+04  0.10260291946E+03 0.  0.
         11    1    3    3    0    0  0.48887747050E+03  0.56988696323E+03  0.61357264360E+03  0.96966165284E+03  0.00000000000E+00 0. -1.
        -11    1    3    3    0    0  0.14994237528E+03  0.25313951784E+03  0.19234036483E+03  0.35150696628E+03  0.00000000000E+00 0.  1.
         22    1    1    2    0    0 -0.63881984578E+03 -0.82302648106E+03 -0.10760020288E+04  0.14977462235E+04  0.00000000000E+00 0.  1.
<mgrwt>
<rscale>  0 0.28059460E+04</rscale>
<asrwt>0</asrwt>
<pdfrwt beam="1">  1        2 0.19606353E+00 0.28059460E+04</pdfrwt>
<pdfrwt beam="2">  1       -2 0.23761568E+00 0.28059460E+04</pdfrwt>
<totfact> 0.11406323E+00</totfact>
</mgrwt>
</event>
<event>
 6    1  0.1588846E-005  0.2166273E+04  0.7818608E-02  0.8532599E-01
          1   -1    0    0  501    0  0.00000000000E+00  0.00000000000E+00  0.12004368222E+04  0.12004368222E+04  0.00000000000E+00 0. -1.
         -1   -1    0    0    0  501 -0.00000000000E+00 -0.00000000000E+00 -0.97729778116E+03  0.97729778116E+03  0.00000000000E+00 0.  1.
         23    2    1    2    0    0 -0.61429307183E+03 -0.87484814359E+03  0.27502756811E+03  0.11074973999E+04  0.90526654316E+02 0.  0.
         11    1    3    3    0    0 -0.42210022453E+03 -0.61969125540E+03  0.15113182877E+03  0.76487036891E+03  0.00000000000E+00 0. -1.
        -11    1    3    3    0    0 -0.19219284730E+03 -0.25515688819E+03  0.12389573935E+03  0.34262703101E+03  0.00000000000E+00 0.  1.
         22    1    1    2    0    0  0.61429307183E+03  0.87484814359E+03 -0.51888527052E+02  0.10702372035E+04  0.00000000000E+00 0. -1.
<mgrwt>
<rscale>  0 0.21662726E+04</rscale>
<asrwt>0</asrwt>
<pdfrwt beam="1">  1        1 0.18468259E+00 0.21662726E+04</pdfrwt>
<pdfrwt beam="2">  1       -1 0.15035350E+00 0.21662726E+04</pdfrwt>
<totfact> 0.33852873E+00</totfact>
</mgrwt>
</event>
<event>
 6    1  0.1588846E-005  0.9012915E+03  0.7818608E-02  0.9423968E-01
         -2   -1    0    0    0  501 -0.00000000000E+00  0.00000000000E+00  0.12093404905E+03  0.12093404905E+03  0.00000000000E+00 0.  1.
          2   -1    0    0  501    0  0.00000000000E+00 -0.00000000000E+00 -0.16792757313E+04  0.16792757313E+04  0.00000000000E+00 0. -1.
         23    2    1    2    0    0  0.24008039610E+03 -0.63585197132E+02 -0.15272785872E+04  0.15499167725E+04  0.89333336246E+02 0.  0.
         11    1    3    3    0    0  0.15803193049E+03 -0.24724985028E+02 -0.72024490178E+03  0.73779274494E+03  0.00000000000E+00 0.  1.
        -11    1    3    3    0    0  0.82048465603E+02 -0.38860212104E+02 -0.80703368540E+03  0.81212402758E+03  0.00000000000E+00 0. -1.
         22    1    1    2    0    0 -0.24008039610E+03  0.63585197132E+02 -0.31063095044E+02  0.25029300781E+03  0.00000000000E+00 0.  1.
<mgrwt>
<rscale>  0 0.90129155E+03</rscale>
<asrwt>0</asrwt>
<pdfrwt beam="1">  1        2 0.25835012E+00 0.90129155E+03</pdfrwt>
<pdfrwt beam="2">  1       -2 0.18605238E-01 0.90129155E+03</pdfrwt>
<totfact> 0.24538807E+02</totfact>
</mgrwt>
</event>
<event>
 6    1  0.1588846E-005  0.5422673E+04  0.7818608E-02  0.7766420E-01
          2   -1    0    0  501    0  0.00000000000E+00  0.00000000000E+00  0.24722210331E+04  0.24722210331E+04  0.00000000000E+00 0. -1.
         -2   -1    0    0    0  501 -0.00000000000E+00 -0.00000000000E+00 -0.29735798971E+04  0.29735798971E+04  0.00000000000E+00 0.  1.
         23    2    1    2    0    0 -0.21364699747E+04  0.15011472675E+04  0.47964935999E+03  0.26564776777E+04  0.94143889520E+02 0.  0.
         11    1    3    3    0    0 -0.11553353694E+04  0.83467972284E+03  0.21808791717E+03  0.14418919499E+04  0.00000000000E+00 0. -1.
        -11    1    3    3    0    0 -0.98113460531E+03  0.66646754470E+03  0.26156144281E+03  0.12145857278E+04  0.00000000000E+00 0.  1.
         22    1    1    2    0    0  0.21364699747E+04 -0.15011472675E+04 -0.98100822395E+03  0.27893232525E+04  0.00000000000E+00 0.  1.
<mgrwt>
<rscale>  0 0.54226734E+04</rscale>
<asrwt>0</asrwt>
<pdfrwt beam="1">  1        2 0.38034170E+00 0.54226734E+04</pdfrwt>
<pdfrwt beam="2">  1       -2 0.45747383E+00 0.54226734E+04</pdfrwt>
<totfact> 0.79147329E-03</totfact>
</mgrwt>
</event>
<event>
 6    1  0.1588846E-005  0.1007384E+04  0.7818608E-02  0.9300483E-01
         -2   -1    0    0    0  501 -0.00000000000E+00  0.00000000000E+00  0.19122895445E+03  0.19122895445E+03  0.00000000000E+00 0. -1.
          2   -1    0    0  501    0  0.00000000000E+00 -0.00000000000E+00 -0.13267123537E+04  0.13267123537E+04  0.00000000000E+00 0.  1.
         23    2    1    2    0    0 -0.34594713013E+03  0.23371568898E+03 -0.98618310197E+03  0.10745531950E+04  0.88346013643E+02 0.  0.
         11    1    3    3    0    0 -0.28720096172E+03  0.16040806257E+03 -0.70220138083E+03  0.77543659844E+03  0.00000000000E+00 0. -1.
        -11    1    3    3    0    0 -0.58746168408E+02  0.73307626405E+02 -0.28398172113E+03  0.29911659655E+03  0.00000000000E+00 0.  1.
         22    1    1    2    0    0  0.34594713013E+03 -0.23371568898E+03 -0.14930029727E+03  0.44338811315E+03  0.00000000000E+00 0. -1.
<mgrwt>
<rscale>  0 0.10073844E+04</rscale>
<asrwt>0</asrwt>
<pdfrwt beam="1">  1        2 0.20410959E+00 0.10073844E+04</pdfrwt>
<pdfrwt beam="2">  1       -2 0.29419839E-01 0.10073844E+04</pdfrwt>
<totfact> 0.16906006E+02</totfact>
</mgrwt>
</event>
<event>
 6    1  0.1588846E-005  0.2256221E+04  0.7818608E-02  0.8495385E-01
          1   -1    0    0  501    0  0.00000000000E+00  0.00000000000E+00  0.14740363758E+04  0.14740363758E+04  0.00000000000E+00 0. -1.
         -1   -1    0    0    0  501 -0.00000000000E+00 -0.00000000000E+00 -0.86336652481E+03  0.86336652481E+03  0.00000000000E+00 0.  1.
         23    2    1    2    0    0 -0.21606141407E+03  0.27910108122E+03  0.14137700788E+04  0.14601629540E+04  0.93541800462E+02 0.  0.
         13    1    3    3    0    0 -0.12545410748E+03  0.87634026750E+02  0.56448788677E+03  0.58486325756E+03  0.00000000000E+00 0. -1.
        -13    1    3    3    0    0 -0.90607306583E+02  0.19146705447E+03  0.84928219199E+03  0.87529969643E+03  0.00000000000E+00 0.  1.
         22    1    1    2    0    0  0.21606141407E+03 -0.27910108122E+03 -0.80310022774E+03  0.87723994664E+03  0.00000000000E+00 0.  1.
<mgrwt>
<rscale>  0 0.22562213E+04</rscale>
<asrwt>0</asrwt>
<pdfrwt beam="1">  1        1 0.22677483E+00 0.22562213E+04</pdfrwt>
<pdfrwt beam="2">  1       -1 0.13282562E+00 0.22562213E+04</pdfrwt>
<totfact> 0.29710133E+00</totfact>
</mgrwt>
</event>
<event>
 6    1  0.1588846E-005  0.8722438E+03  0.7818608E-02  0.9460959E-01
          1   -1    0    0  501    0  0.00000000000E+00  0.00000000000E+00  0.44670072778E+03  0.44670072778E+03  0.00000000000E+00 0. -1.
         -1   -1    0    0    0  501 -0.00000000000E+00 -0.00000000000E+00 -0.42579357779E+03  0.42579357779E+03  0.00000000000E+00 0.  1.
         23    2    1    2    0    0 -0.79170370768E+02  0.18643628138E+03 -0.37066542458E+03  0.43163660089E+03  0.88830533192E+02 0.  0.
         13    1    3    3    0    0 -0.91496343025E+02  0.11234117190E+03 -0.26455056224E+03  0.30162745179E+03  0.00000000000E+00 0. -1.
        -13    1    3    3    0    0  0.12325972258E+02  0.74095109479E+02 -0.10611486234E+03  0.13000914910E+03  0.00000000000E+00 0.  1.
         22    1    1    2    0    0  0.79170370768E+02 -0.18643628138E+03  0.39157257457E+03  0.44085770468E+03  0.00000000000E+00 0. -1.
<mgrwt>
<rscale>  0 0.87224378E+03</rscale>
<asrwt>0</asrwt>
<pdfrwt beam="1">  1        1 0.68723189E-01 0.87224378E+03</pdfrwt>
<pdfrwt beam="2">  1       -1 0.65506704E-01 0.87224378E+03</pdfrwt>
<totfact> 0.12333837E+02</totfact>
</mgrwt>
</event>
<event>
 6    1  0.1588846E-005  0.1357422E+04  0.7818608E-02  0.8985229E-01
          1   -1    0    0  501    0  0.00000000000E+00  0.00000000000E+00  0.13038964592E+04  0.13038964592E+04  0.00000000000E+00 0. -1.
         -1   -1    0    0    0  501 -0.00000000000E+00 -0.00000000000E+00 -0.35328604209E+03  0.35328604209E+03  0.00000000000E+00 0.  1.
         23    2    1    2    0    0  0.25917032728E+03  0.53787233736E+03  0.86351264137E+03  0.10538070523E+04  0.91538581438E+02 0.  0.
         13    1    3    3    0    0  0.29183148698E+02  0.14762649853E+03  0.23563257995E+03  0.27958532145E+03  0.00000000000E+00 0. -1.
        -13    1    3    3    0    0  0.22998717858E+03  0.39024583883E+03  0.62788006142E+03  0.77422173088E+03  0.00000000000E+00 0.  1.
         22    1    1    2    0    0 -0.25917032728E+03 -0.53787233736E+03  0.87097775707E+02  0.60337544893E+03  0.00000000000E+00 0. -1.
<mgrwt>
<rscale>  0 0.13574217E+04</rscale>
<asrwt>0</asrwt>
<pdfrwt beam="1">  1        1 0.20059945E+00 0.13574217E+04</pdfrwt>
<pdfrwt beam="2">  1       -1 0.54351700E-01 0.13574217E+04</pdfrwt>
<totfact> 0.30056647E+01</totfact>
</mgrwt>
</event>
<event>
 6    1  0.1588846E-005  0.1879705E+04  0.7818608E-02  0.8665025E-01
          4   -1    0    0  501    0  0.00000000000E+00  0.00000000000E+00  0.47352699037E+03  0.47352699037E+03  0.00000000000E+00 0. -1.
         -4   -1    0    0    0  501 -0.00000000000E+00 -0.00000000000E+00 -0.18654117803E+04  0.18654117803E+04  0.00000000000E+00 0.  1.
         23    2    1    2    0    0 -0.41342276674E+03  0.82512185336E+01 -0.17447585105E+04  0.17953338320E+04  0.89748769453E+02 0.  0.
         11    1    3    3    0    0 -0.29515639014E+03  0.35836176030E+02 -0.13482660531E+04  0.13806603044E+04  0.00000000000E+00 0. -1.
        -11    1    3    3    0    0 -0.11826637660E+03 -0.27584957496E+02 -0.39649245738E+03  0.41467352757E+03  0.00000000000E+00 0.  1.
         22    1    1    2    0    0  0.41342276674E+03 -0.82512185336E+01  0.35287372059E+03  0.54360493867E+03  0.00000000000E+00 0. -1.
<mgrwt>
<rscale>  0 0.18797051E+04</rscale>
<asrwt>0</asrwt>
<pdfrwt beam="1">  1        4 0.72850304E-01 0.18797051E+04</pdfrwt>
<pdfrwt beam="2">  1       -4 0.28698644E+00 0.18797051E+04</pdfrwt>
<totfact> 0.11994521E-01</totfact>
</mgrwt>
</event>
<event>
 6    1  0.1588846E-005  0.1435142E+04  0.7818608E-02  0.8928767E-01
         -3   -1    0    0    0  501 -0.00000000000E+00  0.00000000000E+00  0.39261332095E+03  0.39261332095E+03  0.00000000000E+00 0.  1.
          3   -1    0    0  501    0  0.00000000000E+00 -0.00000000000E+00 -0.13114885862E+04  0.13114885862E+04  0.00000000000E+00 0. -1.
         23    2    1    2    0    0  0.26698541724E+03 -0.21101657908E+03  0.28455954127E+03  0.45347624645E+03  0.94113569129E+02 0.  0.
         11    1    3    3    0    0  0.35965434194E+02 -0.92708594639E+01  0.69754543849E+02  0.79026310046E+02  0.00000000000E+00 0. -1.
        -11    1    3    3    0    0  0.23101998305E+03 -0.20174571962E+03  0.21480499743E+03  0.37444993640E+03  0.00000000000E+00 0.  1.
         22    1    1    2    0    0 -0.26698541724E+03  0.21101657908E+03 -0.12034348066E+04  0.12506256607E+04  0.00000000000E+00 0. -1.
<mgrwt>
<rscale>  0 0.14351417E+04</rscale>
<asrwt>0</asrwt>
<pdfrwt beam="1">  1        3 0.20176747E+00 0.14351417E+04</pdfrwt>
<pdfrwt beam="2">  1       -3 0.60402050E-01 0.14351417E+04</pdfrwt>
<totfact> 0.97824710E-01</totfact>
</mgrwt>
</event>
<event>
 6    1  0.1588846E-005  0.2504387E+04  0.7818608E-02  0.8401424E-01
         -2   -1    0    0    0  501 -0.00000000000E+00  0.00000000000E+00  0.13947482198E+04  0.13947482198E+04  0.00000000000E+00 0.  1.
          2   -1    0    0  501    0  0.00000000000E+00 -0.00000000000E+00 -0.11242093553E+04  0.11242093553E+04  0.00000000000E+00 0. -1.
         23    2    1    2    0    0  0.48557416173E+03 -0.64652927536E+03 -0.82410658192E+03  0.11580641098E+04  0.90434802711E+02 0.  0.
         13    1    3    3    0    0  0.19069965605E+03 -0.26289357980E+03 -0.26932375914E+03  0.42191785972E+03  0.00000000000E+00 0. -1.
        -13    1    3    3    0    0  0.29487450568E+03 -0.38363569556E+03 -0.55478282277E+03  0.73614625004E+03  0.00000000000E+00 0.  1.
         22    1    1    2    0    0 -0.48557416173E+03  0.64652927536E+03  0.10946454465E+04  0.13608934653E+04  0.00000000000E+00 0.  1.
<mgrwt>
<rscale>  0 0.25043873E+04</rscale>
<asrwt>0</asrwt>
<pdfrwt beam="1">  1        2 0.17295529E+00 0.25043873E+04</pdfrwt>
<pdfrwt beam="2">  1       -2 0.21457665E+00 0.25043873E+04</pdfrwt>
<totfact> 0.20083530E+00</totfact>
</mgrwt>
</event>
<event>
 6    1  0.1588846E-005  0.4648391E+04  0.7818608E-02  0.7885161E-01
          1   -1    0    0  501    0  0.00000000000E+00  0.00000000000E+00  0.26875840811E+04  0.26875840811E+04  0.00000000000E+00 0. -1.
         -1   -1    0    0    0  501 -0.00000000000E+00 -0.00000000000E+00 -0.20099407624E+04  0.20099407624E+04  0.00000000000E+00 0.  1.
         23    2    1    2    0    0 -0.52991458538E+03  0.11065999633E+04  0.23327368540E+04  0.26372560365E+04  0.89917882330E+02 0.  0.
         13    1    3    3    0    0 -0.18495655774E+02  0.30291748978E+02  0.41018937049E+02  0.54242350016E+02  0.00000000000E+00 0.  1.
        -13    1    3    3    0    0 -0.51141892960E+03  0.10763082143E+04  0.22917179170E+04  0.25830136865E+04  0.00000000000E+00 0. -1.
         22    1    1    2    0    0  0.52991458538E+03 -0.11065999633E+04 -0.16550935354E+04  0.20602688070E+04  0.00000000000E+00 0.  1.
<mgrwt>
<rscale>  0 0.46483910E+04</rscale>
<asrwt>0</asrwt>
<pdfrwt beam="1">  1        1 0.41347447E+00 0.46483910E+04</pdfrwt>
<pdfrwt beam="2">  1       -1 0.30922166E+00 0.46483910E+04</pdfrwt>
<totfact> 0.21391002E-02</totfact>
</mgrwt>
</event>
<event>
 6    1  0.1588846E-005  0.2383239E+04  0.7818608E-02  0.8445805E-01
          1   -1    0    0  501    0  0.00000000000E+00  0.00000000000E+00  0.65032117237E+03  0.65032117237E+03  0.00000000000E+00 0. -1.
         -1   -1    0    0    0  501 -0.00000000000E+00 -0.00000000000E+00 -0.21834712420E+04  0.21834712420E+04  0.00000000000E+00 0.  1.
         23    2    1    2    0    0 -0.10316031955E+04  0.29430671183E+03 -0.15580014119E+03  0.10879646969E+04  0.92584578478E+02 0.  0.
         13    1    3    3    0    0 -0.40017053136E+03  0.16051424684E+03 -0.53889961732E+02  0.43451743991E+03  0.00000000000E+00 0. -1.
        -13    1    3    3    0    0 -0.63143266414E+03  0.13379246499E+03 -0.10191017946E+03  0.65344725702E+03  0.00000000000E+00 0.  1.
         22    1    1    2    0    0  0.10316031955E+04 -0.29430671183E+03 -0.13773499285E+04  0.17458277175E+04  0.00000000000E+00 0.  1.
<mgrwt>
<rscale>  0 0.23832395E+04</rscale>
<asrwt>0</asrwt>
<pdfrwt beam="1">  1        1 0.10004941E+00 0.23832395E+04</pdfrwt>
<pdfrwt beam="2">  1       -1 0.33591866E+00 0.23832395E+04</pdfrwt>
<totfact> 0.52596038E-01</totfact>
</mgrwt>
</event>
<event>
 6    1  0.1588846E-005  0.4015608E+04  0.7818608E-02  0.8001405E-01
         -2   -1    0    0    0  501 -0.00000000000E+00  0.00000000000E+00  0.16374952709E+04  0.16374952709E+04  0.00000000000E+00 0.  1.
          2   -1    0    0  501    0  0.00000000000E+00 -0.00000000000E+00 -0.24618552128E+04  0.24618552128E+04  0.00000000000E+00 0. -1.
         23    2    1    2    0    0  0.20780774153E+03  0.51832610545E+03 -0.23800908274E+04  0.24464304623E+04  0.91343589826E+02 0.  0.
         11    1    3    3    0    0  0.19478860303E+03  0.46862435217E+03 -0.22508214381E+04  0.23073249727E+04  0.00000000000E+00 0.  1.
        -11    1    3    3    0    0  0.13019138500E+02  0.49701753280E+02 -0.12926938922E+03  0.13910548959E+03  0.00000000000E+00 0. -1.
         22    1    1    2    0    0 -0.20780774153E+03 -0.51832610545E+03  0.15557308855E+04  0.16529200214E+04  0.00000000000E+00 0.  1.
<mgrwt>
<rscale>  0 0.40156077E+04</rscale>
<asrwt>0</asrwt>
<pdfrwt beam="1">  1        2 0.37874695E+00 0.40156077E+04</pdfrwt>
<pdfrwt beam="2">  1       -2 0.25192235E+00 0.40156077E+04</pdfrwt>
<totfact> 0.18046711E-01</totfact>
</mgrwt>
</event>
<event>
 6    1  0.1588846E-005  0.2703549E+04  0.7818608E-02  0.8333855E-01
         -2   -1    0    0    0  501 -0.00000000000E+00  0.00000000000E+00  0.12673150255E+04  0.12673150255E+04  0.00000000000E+00 0.  1.
          2   -1    0    0  501    0  0.00000000000E+00 -0.00000000000E+00 -0.14418622493E+04  0.14418622493E+04  0.00000000000E+00 0. -1.
         23    2    1    2    0    0  0.13328315143E+04 -0.15853305807E+03  0.59928533972E+02  0.13466239889E+04  0.90731264168E+02 0.  0.
         13    1    3    3    0    0  0.45467009467E+03 -0.68917843677E+02 -0.19941764946E+02  0.46029581592E+03  0.00000000000E+00 0.  1.
        -13    1    3    3    0    0  0.87816141965E+03 -0.89615214396E+02  0.79870298918E+02  0.88632817300E+03  0.00000000000E+00 0. -1.
         22    1    1    2    0    0 -0.13328315143E+04  0.15853305807E+03 -0.23447575778E+03  0.13625532860E+04  0.00000000000E+00 0. -1.
<mgrwt>
<rscale>  0 0.27035486E+04</rscale>
<asrwt>0</asrwt>
<pdfrwt beam="1">  1        2 0.22182496E+00 0.27035486E+04</pdfrwt>
<pdfrwt beam="2">  1       -2 0.19497154E+00 0.27035486E+04</pdfrwt>
<totfact> 0.17247943E+00</totfact>
</mgrwt>
</event>
<event>
 6    1  0.1588846E-005  0.3121964E+04  0.7818608E-02  0.8209736E-01
         -1   -1    0    0    0  501 -0.00000000000E+00  0.00000000000E+00  0.18828470677E+04  0.18828470677E+04  0.00000000000E+00 0.  1.
          1   -1    0    0  501    0  0.00000000000E+00 -0.00000000000E+00 -0.12941381347E+04  0.12941381347E+04  0.00000000000E+00 0. -1.
         23    2    1    2    0    0 -0.32716601518E+03 -0.75042170691E+03 -0.10563902781E+04  0.13394537730E+04  0.89474301840E+02 0.  0.
         13    1    3    3    0    0 -0.25744070838E+03 -0.48611150492E+03 -0.71494855600E+03  0.90207070193E+03  0.00000000000E+00 0. -1.
        -13    1    3    3    0    0 -0.69725306797E+02 -0.26431020199E+03 -0.34144172208E+03  0.43738307107E+03  0.00000000000E+00 0.  1.
         22    1    1    2    0    0  0.32716601518E+03  0.75042170691E+03  0.16450992111E+04  0.18375314294E+04  0.00000000000E+00 0.  1.
<mgrwt>
<rscale>  0 0.31219636E+04</rscale>
<asrwt>0</asrwt>
<pdfrwt beam="1">  1        1 0.19909817E+00 0.31219636E+04</pdfrwt>
<pdfrwt beam="2">  1       -1 0.28966878E+00 0.31219636E+04</pdfrwt>
<totfact> 0.29636693E-01</totfact>
</mgrwt>
</event>
<event>
 6    1  0.1588846E-005  0.1676102E+04  0.7818608E-02  0.8775113E-01
         -2   -1    0    0    0  501 -0.00000000000E+00  0.00000000000E+00  0.70953442937E+03  0.70953442937E+03  0.00000000000E+00 0.  1.
          2   -1    0    0  501    0  0.00000000000E+00 -0.00000000000E+00 -0.98984512432E+03  0.98984512432E+03  0.00000000000E+00 0. -1.
         23    2    1    2    0    0 -0.16206347868E+03 -0.23384929381E+03 -0.93692583808E+03  0.98377246210E+03  0.95016671167E+02 0.  0.
         11    1    3    3    0    0 -0.85881603919E+02 -0.19655507847E+03 -0.69961495099E+03  0.73175858616E+03  0.00000000000E+00 0.  1.
        -11    1    3    3    0    0 -0.76181874762E+02 -0.37294215337E+02 -0.23731088709E+03  0.25201387595E+03  0.00000000000E+00 0. -1.
         22    1    1    2    0    0  0.16206347868E+03  0.23384929381E+03  0.65661514313E+03  0.71560709158E+03  0.00000000000E+00 0.  1.
<mgrwt>
<rscale>  0 0.16761017E+04</rscale>
<asrwt>0</asrwt>
<pdfrwt beam="1">  1        2 0.15228386E+00 0.16761017E+04</pdfrwt>
<pdfrwt beam="2">  1       -2 0.10915914E+00 0.16761017E+04</pdfrwt>
<totfact> 0.16319346E+01</totfact>
</mgrwt>
</event>
<event>
 6    1  0.1588846E-005  0.7113900E+03  0.7818608E-02  0.9697950E-01
          2   -1    0    0  501    0  0.00000000000E+00  0.00000000000E+00  0.11722555319E+03  0.11722555319E+03  0.00000000000E+00 0.  1.
         -2   -1    0    0    0  501 -0.00000000000E+00 -0.00000000000E+00 -0.10792778622E+04  0.10792778622E+04  0.00000000000E+00 0. -1.
         23    2    1    2    0    0  0.21214279873E+03 -0.16396980239E+03 -0.11079063025E+03  0.30401413877E+03  0.90881074332E+02 0.  0.
         13    1    3    3    0    0  0.94752488397E+02 -0.12543124278E+03 -0.42492657880E+02  0.16283935856E+03  0.00000000000E+00 0. -1.
        -13    1    3    3    0    0  0.11739031034E+03 -0.38538559608E+02 -0.68297972373E+02  0.14117478021E+03  0.00000000000E+00 0.  1.
         22    1    1    2    0    0 -0.21214279873E+03  0.16396980239E+03 -0.85126167871E+03  0.89248927657E+03  0.00000000000E+00 0. -1.
<mgrwt>
<rscale>  0 0.71139003E+03</rscale>
<asrwt>0</asrwt>
<pdfrwt beam="1">  1        2 0.18034700E-01 0.71139003E+03</pdfrwt>
<pdfrwt beam="2">  1       -2 0.16604275E+00 0.71139003E+03</pdfrwt>
<totfact> 0.74131809E+01</totfact>
</mgrwt>
</event>
<event>
 6    1  0.1588846E-005  0.2187730E+04  0.7818608E-02  0.8523553E-01
          2   -1    0    0  501    0  0.00000000000E+00  0.00000000000E+00  0.13203941716E+04  0.13203941716E+04  0.00000000000E+00 0. -1.
         -2   -1    0    0    0  501 -0.00000000000E+00 -0.00000000000E+00 -0.90619966208E+03  0.90619966208E+03  0.00000000000E+00 0.  1.
         23    2    1    2    0    0  0.84552629735E+03 -0.28784088071E+03 -0.43132128020E+03  0.99668975498E+03  0.97904692544E+02 0.  0.
         13    1    3    3    0    0  0.43128102958E+03 -0.17219622244E+03 -0.17658946125E+03  0.49682864583E+03  0.00000000000E+00 0.  1.
        -13    1    3    3    0    0  0.41424526777E+03 -0.11564465828E+03 -0.25473181895E+03  0.49986110915E+03  0.00000000000E+00 0. -1.
         22    1    1    2    0    0 -0.84552629735E+03  0.28784088071E+03  0.84551578973E+03  0.12299040787E+04  0.00000000000E+00 0. -1.
<mgrwt>
<rscale>  0 0.21877301E+04</rscale>
<asrwt>0</asrwt>
<pdfrwt beam="1">  1        2 0.20313757E+00 0.21877301E+04</pdfrwt>
<pdfrwt beam="2">  1       -2 0.13941533E+00 0.21877301E+04</pdfrwt>
<totfact> 0.53445822E+00</totfact>
</mgrwt>
</event>
<event>
 6    1  0.1588846E-005  0.3366225E+04  0.7818608E-02  0.8146246E-01
         -1   -1    0    0    0  501 -0.00000000000E+00  0.00000000000E+00  0.13171543201E+04  0.13171543201E+04  0.00000000000E+00 0.  1.
          1   -1    0    0  501    0  0.00000000000E+00 -0.00000000000E+00 -0.21507483217E+04  0.21507483217E+04  0.00000000000E+00 0. -1.
         23    2    1    2    0    0 -0.31597384891E+03  0.16036460551E+04 -0.84853905977E+01  0.16369672625E+04  0.89831360176E+02 0.  0.
         11    1    3    3    0    0 -0.22634438247E+03  0.10536688659E+04  0.32822300597E+02  0.10782055286E+04  0.00000000000E+00 0. -1.
        -11    1    3    3    0    0 -0.89629466437E+02  0.54997718920E+03 -0.41307691194E+02  0.55876173388E+03  0.00000000000E+00 0.  1.
         22    1    1    2    0    0  0.31597384891E+03 -0.16036460551E+04 -0.82510861098E+03  0.18309353793E+04  0.00000000000E+00 0. -1.
<mgrwt>
<rscale>  0 0.33662249E+04</rscale>
<asrwt>0</asrwt>
<pdfrwt beam="1">  1        1 0.33088435E+00 0.33662249E+04</pdfrwt>
<pdfrwt beam="2">  1       -1 0.20263913E+00 0.33662249E+04</pdfrwt>
<totfact> 0.28027669E-01</totfact>
</mgrwt>
</event>
<event>
 6    1  0.1588846E-005  0.4690168E+04  0.7818608E-02  0.7878164E-01
          2   -1    0    0  501    0  0.00000000000E+00  0.00000000000E+00  0.21366493354E+04  0.21366493354E+04  0.00000000000E+00 0. -1.
         -2   -1    0    0    0  501 -0.00000000000E+00 -0.00000000000E+00 -0.25738521358E+04  0.25738521358E+04  0.00000000000E+00 0.  1.
         23    2    1    2    0    0 -0.10893758363E+04  0.78491231504E+03 -0.21486414981E+04  0.25352200019E+04  0.88617808357E+02 0.  0.
         11    1    3    3    0    0 -0.85774150791E+03  0.58641958623E+03 -0.17102481539E+04  0.20011389691E+04  0.00000000000E+00 0.  1.
        -11    1    3    3    0    0 -0.23163432843E+03  0.19849272881E+03 -0.43839334414E+03  0.53408103289E+03  0.00000000000E+00 0. -1.
         22    1    1    2    0    0  0.10893758363E+04 -0.78491231504E+03  0.17114386976E+04  0.21752814694E+04  0.00000000000E+00 0. -1.
<mgrwt>
<rscale>  0 0.46901682E+04</rscale>
<asrwt>0</asrwt>
<pdfrwt beam="1">  1        2 0.32871528E+00 0.46901682E+04</pdfrwt>
<pdfrwt beam="2">  1       -2 0.39597725E+00 0.46901682E+04</pdfrwt>
<totfact> 0.32988049E-02</totfact>
</mgrwt>
</event>
<event>
 6    1  0.1588846E-005  0.1323269E+04  0.7818608E-02  0.9011314E-01
          1   -1    0    0  501    0  0.00000000000E+00  0.00000000000E+00  0.16687753866E+04  0.16687753866E+04  0.00000000000E+00 0. -1.
         -1   -1    0    0    0  501 -0.00000000000E+00 -0.00000000000E+00 -0.26232408796E+03  0.26232408796E+03  0.00000000000E+00 0.  1.
         23    2    1    2    0    0 -0.59353856053E+03  0.24206713168E+02  0.29070956251E+03  0.66707668619E+03  0.87208186105E+02 0.  0.
         13    1    3    3    0    0 -0.35145230745E+03  0.46143873938E+02  0.20410421954E+03  0.40903118946E+03  0.00000000000E+00 0.  1.
        -13    1    3    3    0    0 -0.24208625308E+03 -0.21937160769E+02  0.86605342968E+02  0.25804549673E+03  0.00000000000E+00 0. -1.
         22    1    1    2    0    0  0.59353856053E+03 -0.24206713168E+02  0.11157417361E+04  0.12640227884E+04  0.00000000000E+00 0. -1.
<mgrwt>
<rscale>  0 0.13232687E+04</rscale>
<asrwt>0</asrwt>
<pdfrwt beam="1">  1        1 0.25673467E+00 0.13232687E+04</pdfrwt>
<pdfrwt beam="2">  1       -1 0.40357553E-01 0.13232687E+04</pdfrwt>
<totfact> 0.29425311E+01</totfact>
</mgrwt>
</event>
<event>
 6    1  0.1588846E-005  0.2122327E+04  0.7818608E-02  0.8551471E-01
         -2   -1    0    0    0  501 -0.00000000000E+00  0.00000000000E+00  0.83356423041E+03  0.83356423041E+03  0.00000000000E+00 0.  1.
          2   -1    0    0  501    0  0.00000000000E+00 -0.00000000000E+00 -0.13509073670E+04  0.13509073670E+04  0.00000000000E+00 0. -1.
         23    2    1    2    0    0  0.72783165264E+03  0.57114247411E+03 -0.79022596352E+03  0.12198951736E+04  0.88002958558E+02 0.  0.
         13    1    3    3    0    0  0.49686132502E+02  0.26723054277E+02 -0.75419037407E+02  0.94185267406E+02  0.00000000000E+00 0. -1.
        -13    1    3    3    0    0  0.67814552014E+03  0.54441941983E+03 -0.71480692611E+03  0.11257099061E+04  0.00000000000E+00 0.  1.
         22    1    1    2    0    0 -0.72783165264E+03 -0.57114247411E+03  0.27288282690E+03  0.96457642390E+03  0.00000000000E+00 0.  1.
<mgrwt>
<rscale>  0 0.21223271E+04</rscale>
<asrwt>0</asrwt>
<pdfrwt beam="1">  1        2 0.20783190E+00 0.21223271E+04</pdfrwt>
<pdfrwt beam="2">  1       -2 0.12824065E+00 0.21223271E+04</pdfrwt>
<totfact> 0.63872010E+00</totfact>
</mgrwt>
</event>
<event>
 6    1  0.1588846E-005  0.3950855E+04  0.7818608E-02  0.8014535E-01
          2   -1    0    0  501    0  0.00000000000E+00  0.00000000000E+00  0.25338446749E+04  0.25338446749E+04  0.00000000000E+00 0. -1.
         -2   -1    0    0    0  501 -0.00000000000E+00 -0.00000000000E+00 -0.15400762792E+04  0.15400762792E+04  0.00000000000E+00 0.  1.
         23    2    1    2    0    0  0.13743571511E+03 -0.55389391326E+03  0.24461236391E+04  0.25134649964E+04  0.91095484821E+02 0.  0.
         13    1    3    3    0    0  0.10886704033E+03 -0.25423000833E+03  0.12139371706E+04  0.12450415189E+04  0.00000000000E+00 0.  1.
        -13    1    3    3    0    0  0.28568674785E+02 -0.29966390493E+03  0.12321864685E+04  0.12684234775E+04  0.00000000000E+00 0. -1.
         22    1    1    2    0    0 -0.13743571511E+03  0.55389391326E+03 -0.14523552434E+04  0.15604559577E+04  0.00000000000E+00 0.  1.
<mgrwt>
<rscale>  0 0.39508551E+04</rscale>
<asrwt>0</asrwt>
<pdfrwt beam="1">  1        2 0.38982226E+00 0.39508551E+04</pdfrwt>
<pdfrwt beam="2">  1       -2 0.23693481E+00 0.39508551E+04</pdfrwt>
<totfact> 0.20392000E-01</totfact>
</mgrwt>
</event>
<event>
 6    1  0.1588846E-005  0.2157411E+04  0.7818608E-02  0.8536367E-01
          2   -1    0    0  501    0  0.00000000000E+00  0.00000000000E+00  0.10397184289E+04  0.10397184289E+04  0.00000000000E+00 0. -1.
         -2   -1    0    0    0  501 -0.00000000000E+00 -0.00000000000E+00 -0.11191542333E+04  0.11191542333E+04  0.00000000000E+00 0.  1.
         23    2    1    2    0    0 -0.15251387560E+03  0.84602342327E+03 -0.68867433732E+03  0.11052182099E+04  0.90657782661E+02 0.  0.
         13    1    3    3    0    0 -0.13937660100E+03  0.52698655990E+03 -0.43733655940E+03  0.69885902542E+03  0.00000000000E+00 0.  1.
        -13    1    3    3    0    0 -0.13137274606E+02  0.31903686337E+03 -0.25133777793E+03  0.40635918445E+03  0.00000000000E+00 0. -1.
         22    1    1    2    0    0  0.15251387560E+03 -0.84602342327E+03  0.60923853285E+03  0.10536544523E+04  0.00000000000E+00 0. -1.
<mgrwt>
<rscale>  0 0.21574107E+04</rscale>
<asrwt>0</asrwt>
<pdfrwt beam="1">  1        2 0.15995668E+00 0.21574107E+04</pdfrwt>
<pdfrwt beam="2">  1       -2 0.17217757E+00 0.21574107E+04</pdfrwt>
<totfact> 0.44821618E+00</totfact>
</mgrwt>
</event>
<event>
 6    1  0.1588846E-005  0.2158520E+04  0.7818608E-02  0.8535894E-01
          2   -1    0    0  501    0  0.00000000000E+00  0.00000000000E+00  0.44190490285E+04  0.44190490285E+04  0.00000000000E+00 0. -1.
         -2   -1    0    0    0  501 -0.00000000000E+00 -0.00000000000E+00 -0.26358657227E+03  0.26358657227E+03  0.00000000000E+00 0.  1.
         23    2    1    2    0    0 -0.98633570601E+02  0.29819111154E+03  0.43170437623E+04  0.43294288076E+04  0.91871835009E+02 0.  0.
         11    1    3    3    0    0 -0.47963787855E+02  0.23695313783E+03  0.35676014280E+04  0.35757834476E+04  0.00000000000E+00 0. -1.
        -11    1    3    3    0    0 -0.50669782746E+02  0.61237973706E+02  0.74944233429E+03  0.75364536006E+03  0.00000000000E+00 0.  1.
         22    1    1    2    0    0  0.98633570601E+02 -0.29819111154E+03 -0.16158130610E+03  0.35320679316E+03  0.00000000000E+00 0.  1.
<mgrwt>
<rscale>  0 0.21585199E+04</rscale>
<asrwt>0</asrwt>
<pdfrwt beam="1">  1        2 0.67985364E+00 0.21585199E+04</pdfrwt>
<pdfrwt beam="2">  1       -2 0.40551784E-01 0.21585199E+04</pdfrwt>
<totfact> 0.78678623E-01</totfact>
</mgrwt>
</event>
<event>
 6    1  0.1588846E-005  0.8918956E+03  0.7818608E-02  0.9435769E-01
         -1   -1    0    0    0  501 -0.00000000000E+00  0.00000000000E+00  0.15638240630E+03  0.15638240630E+03  0.00000000000E+00 0.  1.
          1   -1    0    0  501    0  0.00000000000E+00 -0.00000000000E+00 -0.12716867560E+04  0.12716867560E+04  0.00000000000E+00 0. -1.
         23    2    1    2    0    0  0.35803338610E+03 -0.33716129434E+02 -0.97320111193E+03  0.10413935707E+04  0.89752336239E+02 0.  0.
         11    1    3    3    0    0  0.25066732486E+03 -0.50306983360E+02 -0.58827329675E+03  0.64142838416E+03  0.00000000000E+00 0.  1.
        -11    1    3    3    0    0  0.10736606123E+03  0.16590853926E+02 -0.38492781517E+03  0.39996518653E+03  0.00000000000E+00 0. -1.
         22    1    1    2    0    0 -0.35803338610E+03  0.33716129434E+02 -0.14210323773E+03  0.38667559157E+03  0.00000000000E+00 0.  1.
<mgrwt>
<rscale>  0 0.89189559E+03</rscale>
<asrwt>0</asrwt>
<pdfrwt beam="1">  1        1 0.19564411E+00 0.89189559E+03</pdfrwt>
<pdfrwt beam="2">  1       -1 0.24058832E-01 0.89189559E+03</pdfrwt>
<totfact> 0.14284484E+02</totfact>
</mgrwt>
</event>
<event>
 6    1  0.1588846E-005  0.3343225E+04  0.7818608E-02  0.8151983E-01
          2   -1    0    0  501    0  0.00000000000E+00  0.00000000000E+00  0.23291373038E+04  0.23291373038E+04  0.00000000000E+00 0. -1.
         -2   -1    0    0    0  501 -0.00000000000E+00 -0.00000000000E+00 -0.11997092543E+04  0.11997092543E+04  0.00000000000E+00 0.  1.
         23    2    1    2    0    0 -0.16701910791E+04 -0.17534744431E+02  0.55928640759E+03  0.17639365888E+04  0.93943043893E+02 0.  0.
         13    1    3    3    0    0 -0.68137341153E+03  0.38757318632E+02  0.22302899457E+03  0.71799288862E+03  0.00000000000E+00 0. -1.
        -13    1    3    3    0    0 -0.98881766758E+03 -0.56292063063E+02  0.33625741301E+03  0.10459437001E+04  0.00000000000E+00 0.  1.
         22    1    1    2    0    0  0.16701910791E+04  0.17534744431E+02  0.57014164191E+03  0.17649099693E+04  0.00000000000E+00 0.  1.
<mgrwt>
<rscale>  0 0.33432245E+04</rscale>
<asrwt>0</asrwt>
<pdfrwt beam="1">  1        2 0.35832882E+00 0.33432245E+04</pdfrwt>
<pdfrwt beam="2">  1       -2 0.18457065E+00 0.33432245E+04</pdfrwt>
<totfact> 0.61263576E-01</totfact>
</mgrwt>
</event>
<event>
 6    1  0.1588846E-005  0.6470963E+04  0.7818608E-02  0.7634601E-01
          2   -1    0    0  501    0  0.00000000000E+00  0.00000000000E+00  0.23100402178E+04  0.23100402178E+04  0.00000000000E+00 0. -1.
         -2   -1    0    0    0  501 -0.00000000000E+00 -0.00000000000E+00 -0.45316707704E+04  0.45316707704E+04  0.00000000000E+00 0.  1.
         23    2    1    2    0    0  0.38176831455E+03 -0.94307918991E+03 -0.43572877804E+04  0.44760869269E+04  0.11938161967E+03 0.  0.
         11    1    3    3    0    0  0.13600530820E+03 -0.20726115991E+03 -0.11289306616E+04  0.11558283051E+04  0.00000000000E+00 0. -1.
        -11    1    3    3    0    0  0.24576300635E+03 -0.73581803000E+03 -0.32283571188E+04  0.33202586217E+04  0.00000000000E+00 0.  1.
         22    1    1    2    0    0 -0.38176831455E+03  0.94307918991E+03  0.21356572279E+04  0.23656240613E+04  0.00000000000E+00 0. -1.
<mgrwt>
<rscale>  0 0.64709634E+04</rscale>
<asrwt>0</asrwt>
<pdfrwt beam="1">  1        2 0.35539081E+00 0.64709634E+04</pdfrwt>
<pdfrwt beam="2">  1       -2 0.69718011E+00 0.64709634E+04</pdfrwt>
<totfact> 0.69138814E-04</totfact>
</mgrwt>
</event>
<event>
 6    1  0.1588846E-005  0.2299240E+04  0.7818608E-02  0.8478221E-01
         -1   -1    0    0    0  501 -0.00000000000E+00  0.00000000000E+00  0.85158594203E+03  0.85158594203E+03  0.00000000000E+00 0. -1.
          1   -1    0    0  501    0  0.00000000000E+00 -0.00000000000E+00 -0.15519584664E+04  0.15519584664E+04  0.00000000000E+00 0.  1.
         23    2    1    2    0    0  0.57555251851E+03 -0.92706231927E+02  0.68287169934E+03  0.90247154896E+03  0.91027424044E+02 0.  0.
         11    1    3    3    0    0  0.37274802864E+03 -0.10361415910E+03  0.45369064626E+03  0.59624842920E+03  0.00000000000E+00 0.  1.
        -11    1    3    3    0    0  0.20280448987E+03  0.10907927171E+02  0.22918105308E+03  0.30622311977E+03  0.00000000000E+00 0. -1.
         22    1    1    2    0    0 -0.57555251851E+03  0.92706231927E+02 -0.13832442237E+04  0.15010728595E+04  0.00000000000E+00 0.  1.
<mgrwt>
<rscale>  0 0.22992399E+04</rscale>
<asrwt>0</asrwt>
<pdfrwt beam="1">  1        1 0.23876284E+00 0.22992399E+04</pdfrwt>
<pdfrwt beam="2">  1       -1 0.13101322E+00 0.22992399E+04</pdfrwt>
<totfact> 0.27068354E+00</totfact>
</mgrwt>
</event>
<event>
 6    1  0.1588846E-005  0.1471490E+04  0.7818608E-02  0.8903636E-01
         -2   -1    0    0    0  501 -0.00000000000E+00  0.00000000000E+00  0.23845994582E+03  0.23845994582E+03  0.00000000000E+00 0. -1.
          2   -1    0    0  501    0  0.00000000000E+00 -0.00000000000E+00 -0.22700687494E+04  0.22700687494E+04  0.00000000000E+00 0.  1.
         23    2    1    2    0    0 -0.65406963212E+03  0.27307299440E+03 -0.13381130276E+04  0.15169076309E+04  0.89924090121E+02 0.  0.
         11    1    3    3    0    0 -0.27187413990E+03  0.14475846906E+03 -0.50824773846E+03  0.59429481401E+03  0.00000000000E+00 0.  1.
        -11    1    3    3    0    0 -0.38219549223E+03  0.12831452534E+03 -0.82986528915E+03  0.92261281685E+03  0.00000000000E+00 0. -1.
         22    1    1    2    0    0  0.65406963212E+03 -0.27307299440E+03 -0.69349577593E+03  0.99162106430E+03  0.00000000000E+00 0. -1.
<mgrwt>
<rscale>  0 0.14714897E+04</rscale>
<asrwt>0</asrwt>
<pdfrwt beam="1">  1        2 0.34924135E+00 0.14714897E+04</pdfrwt>
<pdfrwt beam="2">  1       -2 0.36686145E-01 0.14714897E+04</pdfrwt>
<totfact> 0.31992643E+01</totfact>
</mgrwt>
</event>
<event>
 6    1  0.1588846E-005  0.2884163E+04  0.7818608E-02  0.8277605E-01
          1   -1    0    0  501    0  0.00000000000E+00  0.00000000000E+00  0.22560739722E+04  0.22560739722E+04  0.00000000000E+00 0. -1.
         -1   -1    0    0    0  501 -0.00000000000E+00 -0.00000000000E+00 -0.92177773829E+03  0.92177773829E+03  0.00000000000E+00 0.  1.
         23    2    1    2    0    0  0.13913144727E+04 -0.31593679677E+03  0.88772329993E+03  0.16828602701E+04  0.91618830143E+02 0.  0.
         13    1    3    3    0    0  0.46867505029E+03 -0.94192862696E+02  0.34689057830E+03  0.59064513158E+03  0.00000000000E+00 0. -1.
        -13    1    3    3    0    0  0.92263942240E+03 -0.22174393408E+03  0.54083272163E+03  0.10922151385E+04  0.00000000000E+00 0.  1.
         22    1    1    2    0    0 -0.13913144727E+04  0.31593679677E+03  0.44657293399E+03  0.14949914404E+04  0.00000000000E+00 0. -1.
<mgrwt>
<rscale>  0 0.28841628E+04</rscale>
<asrwt>0</asrwt>
<pdfrwt beam="1">  1        1 0.34708830E+00 0.28841628E+04</pdfrwt>
<pdfrwt beam="2">  1       -1 0.14181196E+00 0.28841628E+04</pdfrwt>
<totfact> 0.69458108E-01</totfact>
</mgrwt>
</event>
<event>
 6    1  0.1588846E-005  0.1777753E+04  0.7818608E-02  0.8718221E-01
         -1   -1    0    0    0  501 -0.00000000000E+00  0.00000000000E+00  0.10915018267E+04  0.10915018267E+04  0.00000000000E+00 0.  1.
          1   -1    0    0  501    0  0.00000000000E+00 -0.00000000000E+00 -0.72386622341E+03  0.72386622341E+03  0.00000000000E+00 0. -1.
         23    2    1    2    0    0 -0.15919952547E+03 -0.42325464088E+02  0.10739141408E+04  0.10901333939E+04  0.89237329113E+02 0.  0.
         13    1    3    3    0    0 -0.46345255093E+02  0.24691132038E+02  0.41185782327E+03  0.41519200529E+03  0.00000000000E+00 0. -1.
        -13    1    3    3    0    0 -0.11285427038E+03 -0.67016596126E+02  0.66205631756E+03  0.67494138865E+03  0.00000000000E+00 0.  1.
         22    1    1    2    0    0  0.15919952547E+03  0.42325464088E+02 -0.70627853757E+03  0.72523465613E+03  0.00000000000E+00 0. -1.
<mgrwt>
<rscale>  0 0.17777529E+04</rscale>
<asrwt>0</asrwt>
<pdfrwt beam="1">  1        1 0.11136403E+00 0.17777529E+04</pdfrwt>
<pdfrwt beam="2">  1       -1 0.16792336E+00 0.17777529E+04</pdfrwt>
<totfact> 0.62363351E+00</totfact>
</mgrwt>
</event>
<event>
 6    1  0.1588846E-005  0.5231282E+03  0.7818608E-02  0.1007912E+00
         -2   -1    0    0    0  501 -0.00000000000E+00  0.00000000000E+00  0.30176587025E+02  0.30176587025E+02  0.00000000000E+00 0.  1.
          2   -1    0    0  501    0  0.00000000000E+00 -0.00000000000E+00 -0.22671809185E+04  0.22671809185E+04  0.00000000000E+00 0. -1.
         23    2    1    2    0    0  0.11854943346E+03 -0.20260090780E+03 -0.15733112404E+04  0.15933762451E+04  0.91861324707E+02 0.  0.
         13    1    3    3    0    0  0.12183170218E+03 -0.20148995187E+03 -0.15722048194E+04  0.15897387076E+04  0.00000000000E+00 0. -1.
        -13    1    3    3    0    0 -0.32822687240E+01 -0.11109559317E+01 -0.11064210458E+01  0.36375374348E+01  0.00000000000E+00 0.  1.
         22    1    1    2    0    0 -0.11854943346E+03  0.20260090780E+03 -0.66369309106E+03  0.70398126050E+03  0.00000000000E+00 0. -1.
<mgrwt>
<rscale>  0 0.52312821E+03</rscale>
<asrwt>0</asrwt>
<pdfrwt beam="1">  1        2 0.34879720E+00 0.52312821E+03</pdfrwt>
<pdfrwt beam="2">  1       -2 0.46425501E-02 0.52312821E+03</pdfrwt>
<totfact> 0.11473834E+03</totfact>
</mgrwt>
</event>
<event>
 6    1  0.1588846E-005  0.2213994E+04  0.7818608E-02  0.8512626E-01
          2   -1    0    0  501    0  0.00000000000E+00  0.00000000000E+00  0.72622373894E+03  0.72622373894E+03  0.00000000000E+00 0. -1.
         -2   -1    0    0    0  501 -0.00000000000E+00 -0.00000000000E+00 -0.16874173865E+04  0.16874173865E+04  0.00000000000E+00 0.  1.
         23    2    1    2    0    0  0.11026028257E+03  0.10041833955E+04  0.74231123020E+01  0.10140840351E+04  0.88145935915E+02 0.  0.
         11    1    3    3    0    0  0.49465704015E+02  0.40977510186E+03 -0.40069912062E+02  0.41469035174E+03  0.00000000000E+00 0. -1.
        -11    1    3    3    0    0  0.60794578554E+02  0.59440829360E+03  0.47493024364E+02  0.59939368336E+03  0.00000000000E+00 0.  1.
         22    1    1    2    0    0 -0.11026028257E+03 -0.10041833955E+04 -0.96861675985E+03  0.13995570903E+04  0.00000000000E+00 0.  1.
<mgrwt>
<rscale>  0 0.22139942E+04</rscale>
<asrwt>0</asrwt>
<pdfrwt beam="1">  1        2 0.11172673E+00 0.22139942E+04</pdfrwt>
<pdfrwt beam="2">  1       -2 0.25960267E+00 0.22139942E+04</pdfrwt>
<totfact> 0.20023629E+00</totfact>
</mgrwt>
</event>
<event>
 6    1  0.1588846E-005  0.2071744E+04  0.7818608E-02  0.8573794E-01
          2   -1    0    0  501    0  0.00000000000E+00  0.00000000000E+00  0.15517812121E+04  0.15517812121E+04  0.00000000000E+00 0. -1.
         -2   -1    0    0    0  501 -0.00000000000E+00 -0.00000000000E+00 -0.69148328463E+03  0.69148328463E+03  0.00000000000E+00 0.  1.
         23    2    1    2    0    0  0.91868042143E+03  0.42342489694E+03  0.19965873782E+03  0.10350813571E+04  0.90925486305E+02 0.  0.
         11    1    3    3    0    0  0.99950623462E+02  0.58190491178E+02  0.50736432813E+02  0.12629507516E+03  0.00000000000E+00 0. -1.
        -11    1    3    3    0    0  0.81872979797E+03  0.36523440577E+03  0.14892230501E+03  0.90878628190E+03  0.00000000000E+00 0.  1.
         22    1    1    2    0    0 -0.91868042143E+03 -0.42342489694E+03  0.66063918963E+03  0.12081831397E+04  0.00000000000E+00 0.  1.
<mgrwt>
<rscale>  0 0.20717440E+04</rscale>
<asrwt>0</asrwt>
<pdfrwt beam="1">  1        2 0.23873557E+00 0.20717440E+04</pdfrwt>
<pdfrwt beam="2">  1       -2 0.10638204E+00 0.20717440E+04</pdfrwt>
<totfact> 0.78099115E+00</totfact>
</mgrwt>
</event>
<event>
 6    1  0.1588846E-005  0.1528035E+04  0.7818608E-02  0.8866021E-01
          2   -1    0    0  501    0  0.00000000000E+00  0.00000000000E+00  0.17938842502E+04  0.17938842502E+04  0.00000000000E+00 0. -1.
         -2   -1    0    0    0  501 -0.00000000000E+00 -0.00000000000E+00 -0.32539603342E+03  0.32539603342E+03  0.00000000000E+00 0.  1.
         23    2    1    2    0    0 -0.66670159770E+03 -0.13394840531E+03  0.12121488430E+04  0.13925457584E+04  0.86288330304E+02 0.  0.
         13    1    3    3    0    0 -0.21324403611E+03 -0.82338801672E+02  0.42998026388E+03  0.48696583507E+03  0.00000000000E+00 0. -1.
        -13    1    3    3    0    0 -0.45345756159E+03 -0.51609603643E+02  0.78216857910E+03  0.90557992330E+03  0.00000000000E+00 0.  1.
         22    1    1    2    0    0  0.66670159770E+03  0.13394840531E+03  0.25633937382E+03  0.72673452528E+03  0.00000000000E+00 0.  1.
<mgrwt>
<rscale>  0 0.15280351E+04</rscale>
<asrwt>0</asrwt>
<pdfrwt beam="1">  1        2 0.27598219E+00 0.15280351E+04</pdfrwt>
<pdfrwt beam="2">  1       -2 0.50060929E-01 0.15280351E+04</pdfrwt>
<totfact> 0.31649965E+01</totfact>
</mgrwt>
</event>
<event>
 6    1  0.1588846E-005  0.2670595E+04  0.7818608E-02  0.8344609E-01
          1   -1    0    0  501    0  0.00000000000E+00  0.00000000000E+00  0.25859789944E+04  0.25859789944E+04  0.00000000000E+00 0. -1.
         -1   -1    0    0    0  501 -0.00000000000E+00 -0.00000000000E+00 -0.68949503176E+03  0.68949503176E+03  0.00000000000E+00 0.  1.
         23    2    1    2    0    0  0.10090191768E+04 -0.64866999580E+03  0.23416559400E+03  0.12255484613E+04  0.90791205366E+02 0.  0.
         13    1    3    3    0    0  0.44974753415E+03 -0.34258750789E+03  0.11575428039E+03  0.57709453165E+03  0.00000000000E+00 0.  1.
        -13    1    3    3    0    0  0.55927164268E+03 -0.30608248792E+03  0.11841131361E+03  0.64845392967E+03  0.00000000000E+00 0. -1.
         22    1    1    2    0    0 -0.10090191768E+04  0.64866999580E+03  0.16623183686E+04  0.20499255648E+04  0.00000000000E+00 0. -1.
<mgrwt>
<rscale>  0 0.26705952E+04</rscale>
<asrwt>0</asrwt>
<pdfrwt beam="1">  1        1 0.39784292E+00 0.26705952E+04</pdfrwt>
<pdfrwt beam="2">  1       -1 0.10607616E+00 0.26705952E+04</pdfrwt>
<totfact> 0.85844240E-01</totfact>
</mgrwt>
</event>
<event>
 6    1  0.1588846E-005  0.4252765E+03  0.7818608E-02  0.1035363E+00
          2   -1    0    0  501    0  0.00000000000E+00  0.00000000000E+00  0.23561251365E+03  0.23561251365E+03  0.00000000000E+00 0. -1.
         -2   -1    0    0    0  501 -0.00000000000E+00 -0.00000000000E+00 -0.19190417731E+03  0.19190417731E+03  0.00000000000E+00 0.  1.
         23    2    1    2    0    0  0.17454032528E+03 -0.55896302906E+02  0.11000122258E+03  0.23262321083E+03  0.91785442314E+02 0.  0.
         11    1    3    3    0    0  0.13436311747E+03 -0.77844506919E-01  0.87150879153E+02  0.16015220615E+03  0.00000000000E+00 0.  1.
        -11    1    3    3    0    0  0.40177207809E+02 -0.55818458399E+02  0.22850343430E+02  0.72471004686E+02  0.00000000000E+00 0. -1.
         22    1    1    2    0    0 -0.17454032528E+03  0.55896302906E+02 -0.66292886248E+02  0.19489348013E+03  0.00000000000E+00 0.  1.
<mgrwt>
<rscale>  0 0.42527650E+03</rscale>
<asrwt>0</asrwt>
<pdfrwt beam="1">  1        2 0.36248079E-01 0.42527650E+03</pdfrwt>
<pdfrwt beam="2">  1       -2 0.29523720E-01 0.42527650E+03</pdfrwt>
<totfact> 0.15096676E+03</totfact>
</mgrwt>
</event>
<event>
 6    1  0.1588846E-005  0.1982910E+04  0.7818608E-02  0.8614653E-01
          4   -1    0    0  501    0  0.00000000000E+00  0.00000000000E+00  0.48335983325E+03  0.48335983325E+03  0.00000000000E+00 0. -1.
         -4   -1    0    0    0  501 -0.00000000000E+00 -0.00000000000E+00 -0.20336470024E+04  0.20336470024E+04  0.00000000000E+00 0.  1.
         23    2    1    2    0    0  0.51667401021E+03 -0.54541726803E+03 -0.15936363538E+04  0.17644703376E+04  0.96159841237E+02 0.  0.
         13    1    3    3    0    0  0.46449309891E+03 -0.51840460621E+03 -0.14255077326E+04  0.15863699034E+04  0.00000000000E+00 0.  1.
        -13    1    3    3    0    0  0.52180911293E+02 -0.27012661815E+02 -0.16812862125E+03  0.17810043427E+03  0.00000000000E+00 0. -1.
         22    1    1    2    0    0 -0.51667401021E+03  0.54541726803E+03  0.43349184646E+02  0.75253649805E+03  0.00000000000E+00 0. -1.
<mgrwt>
<rscale>  0 0.19829103E+04</rscale>
<asrwt>0</asrwt>
<pdfrwt beam="1">  1        4 0.74363052E-01 0.19829103E+04</pdfrwt>
<pdfrwt beam="2">  1       -4 0.31286877E+00 0.19829103E+04</pdfrwt>
<totfact> 0.78279539E-02</totfact>
</mgrwt>
</event>
<event>
 6    1  0.1588846E-005  0.2935317E+04  0.7818608E-02  0.8262446E-01
         -2   -1    0    0    0  501 -0.00000000000E+00  0.00000000000E+00  0.22892756617E+04  0.22892756617E+04  0.00000000000E+00 0.  1.
          2   -1    0    0  501    0  0.00000000000E+00 -0.00000000000E+00 -0.94091849522E+03  0.94091849522E+03  0.00000000000E+00 0. -1.
         23    2    1    2    0    0  0.12631029948E+04 -0.91174371709E+02 -0.13845005519E+03  0.12771612191E+04  0.90721663576E+02 0.  0.
         13    1    3    3    0    0  0.31289218097E+03  0.94097587887E+01 -0.11495791371E+02  0.31324465469E+03  0.00000000000E+00 0. -1.
        -13    1    3    3    0    0  0.95021081387E+03 -0.10058413050E+03 -0.12695426382E+03  0.96391656444E+03  0.00000000000E+00 0.  1.
         22    1    1    2    0    0 -0.12631029948E+04  0.91174371709E+02  0.14868072217E+04  0.19530329378E+04  0.00000000000E+00 0.  1.
<mgrwt>
<rscale>  0 0.29353172E+04</rscale>
<asrwt>0</asrwt>
<pdfrwt beam="1">  1        2 0.14475669E+00 0.29353172E+04</pdfrwt>
<pdfrwt beam="2">  1       -2 0.35219625E+00 0.29353172E+04</pdfrwt>
<totfact> 0.35691166E-01</totfact>
</mgrwt>
</event>
<event>
 6    1  0.1588846E-005  0.2455037E+04  0.7818608E-02  0.8419181E-01
          2   -1    0    0  501    0  0.00000000000E+00  0.00000000000E+00  0.23674276788E+04  0.23674276788E+04  0.00000000000E+00 0. -1.
         -2   -1    0    0    0  501 -0.00000000000E+00 -0.00000000000E+00 -0.63647209391E+03  0.63647209391E+03  0.00000000000E+00 0.  1.
         23    2    1    2    0    0 -0.24576567792E+03 -0.11239245072E+04  0.34854472082E+03  0.12053818096E+04  0.88627412124E+02 0.  0.
         11    1    3    3    0    0 -0.11509163968E+03 -0.70637801233E+03  0.23634767925E+03  0.75370830387E+03  0.00000000000E+00 0.  1.
        -11    1    3    3    0    0 -0.13067403824E+03 -0.41754649490E+03  0.11219704157E+03  0.45167350577E+03  0.00000000000E+00 0. -1.
         22    1    1    2    0    0  0.24576567792E+03  0.11239245072E+04  0.13824108641E+04  0.17985179631E+04  0.00000000000E+00 0.  1.
<mgrwt>
<rscale>  0 0.24550370E+04</rscale>
<asrwt>0</asrwt>
<pdfrwt beam="1">  1        2 0.36421964E+00 0.24550370E+04</pdfrwt>
<pdfrwt beam="2">  1       -2 0.97918785E-01 0.24550370E+04</pdfrwt>
<totfact> 0.32243780E+00</totfact>
</mgrwt>
</event>
<event>
 6    1  0.1588846E-005  0.4645632E+04  0.7818608E-02  0.7885625E-01
         -2   -1    0    0    0  501 -0.00000000000E+00  0.00000000000E+00  0.20082128358E+04  0.20082128358E+04  0.00000000000E+00 0.  1.
          2   -1    0    0  501    0  0.00000000000E+00 -0.00000000000E+00 -0.26867042062E+04  0.26867042062E+04  0.00000000000E+00 0. -1.
         23    2    1    2    0    0 -0.20923320788E+04 -0.10063279733E+04 -0.36704115194E+03  0.23523648535E+04  0.91387522138E+02 0.  0.
         11    1    3    3    0    0 -0.10347062686E+04 -0.44983416173E+03 -0.16291541640E+03  0.11399602047E+04  0.00000000000E+00 0. -1.
        -11    1    3    3    0    0 -0.10576258101E+04 -0.55649381153E+03 -0.20412573554E+03  0.12124046488E+04  0.00000000000E+00 0.  1.
         22    1    1    2    0    0  0.20923320788E+04  0.10063279733E+04 -0.31145021846E+03  0.23425521886E+04  0.00000000000E+00 0. -1.
<mgrwt>
<rscale>  0 0.46456319E+04</rscale>
<asrwt>0</asrwt>
<pdfrwt beam="1">  1        2 0.41333911E+00 0.46456319E+04</pdfrwt>
<pdfrwt beam="2">  1       -2 0.30895582E+00 0.46456319E+04</pdfrwt>
<totfact> 0.56712281E-02</totfact>
</mgrwt>
</event>
<event>
 6    1  0.1588846E-005  0.3750366E+04  0.7818608E-02  0.8056891E-01
          2   -1    0    0  501    0  0.00000000000E+00  0.00000000000E+00  0.21062115903E+04  0.21062115903E+04  0.00000000000E+00 0. -1.
         -2   -1    0    0    0  501 -0.00000000000E+00 -0.00000000000E+00 -0.16694960569E+04  0.16694960569E+04  0.00000000000E+00 0.  1.
         23    2    1    2    0    0 -0.11940734274E+04  0.11145046687E+04 -0.70615989192E+03  0.17821941047E+04  0.98091933938E+02 0.  0.
         11    1    3    3    0    0 -0.72732557148E+03  0.72529833722E+03 -0.40746962941E+03  0.11050301642E+04  0.00000000000E+00 0. -1.
        -11    1    3    3    0    0 -0.46674785592E+03  0.38920633143E+03 -0.29869026251E+03  0.67716394053E+03  0.00000000000E+00 0.  1.
         22    1    1    2    0    0  0.11940734274E+04 -0.11145046687E+04  0.11428754253E+04  0.19935135425E+04  0.00000000000E+00 0. -1.
<mgrwt>
<rscale>  0 0.37503664E+04</rscale>
<asrwt>0</asrwt>
<pdfrwt beam="1">  1        2 0.32403255E+00 0.37503664E+04</pdfrwt>
<pdfrwt beam="2">  1       -2 0.25684555E+00 0.37503664E+04</pdfrwt>
<totfact> 0.27375828E-01</totfact>
</mgrwt>
</event>
<event>
 6    1  0.1588846E-005  0.5938199E+03  0.7818608E-02  0.9918311E-01
          1   -1    0    0  501    0  0.00000000000E+00  0.00000000000E+00  0.16968672129E+03  0.16968672129E+03  0.00000000000E+00 0. -1.
         -1   -1    0    0    0  501 -0.00000000000E+00 -0.00000000000E+00 -0.51951923014E+03  0.51951923014E+03  0.00000000000E+00 0.  1.
         23    2    1    2    0    0  0.16306839382E+03  0.21278997485E+02 -0.45658714528E+03  0.49314308092E+03  0.87602398527E+02 0.  0.
         13    1    3    3    0    0  0.65324794034E+02  0.49371379415E+02 -0.24629720512E+03  0.25955187357E+03  0.00000000000E+00 0. -1.
        -13    1    3    3    0    0  0.97743599782E+02 -0.28092381929E+02 -0.21028994016E+03  0.23359120735E+03  0.00000000000E+00 0.  1.
         22    1    1    2    0    0 -0.16306839382E+03 -0.21278997485E+02  0.10675463642E+03  0.19606287051E+03  0.00000000000E+00 0. -1.
<mgrwt>
<rscale>  0 0.59381989E+03</rscale>
<asrwt>0</asrwt>
<pdfrwt beam="1">  1        1 0.26105650E-01 0.59381989E+03</pdfrwt>
<pdfrwt beam="2">  1       -1 0.79926034E-01 0.59381989E+03</pdfrwt>
<totfact> 0.29283643E+02</totfact>
</mgrwt>
</event>
<event>
 6    1  0.1588846E-005  0.1372838E+04  0.7818608E-02  0.8973718E-01
         -1   -1    0    0    0  501 -0.00000000000E+00  0.00000000000E+00  0.62068528745E+03  0.62068528745E+03  0.00000000000E+00 0.  1.
          1   -1    0    0  501    0  0.00000000000E+00 -0.00000000000E+00 -0.75911437204E+03  0.75911437204E+03  0.00000000000E+00 0. -1.
         23    2    1    2    0    0  0.26834475428E+03  0.87863559514E+02 -0.69510948272E+03  0.75560259292E+03  0.89605653893E+02 0.  0.
         13    1    3    3    0    0  0.17973889311E+03  0.92617403487E+02 -0.41251642961E+03  0.45940598366E+03  0.00000000000E+00 0.  1.
        -13    1    3    3    0    0  0.88605861168E+02 -0.47538439730E+01 -0.28259305312E+03  0.29619660926E+03  0.00000000000E+00 0. -1.
         22    1    1    2    0    0 -0.26834475428E+03 -0.87863559514E+02  0.55668039814E+03  0.62419706657E+03  0.00000000000E+00 0.  1.
<mgrwt>
<rscale>  0 0.13728381E+04</rscale>
<asrwt>0</asrwt>
<pdfrwt beam="1">  1        1 0.11678683E+00 0.13728381E+04</pdfrwt>
<pdfrwt beam="2">  1       -1 0.95490044E-01 0.13728381E+04</pdfrwt>
<totfact> 0.24866265E+01</totfact>
</mgrwt>
</event>
<event>
 6    1  0.1588846E-005  0.2633736E+04  0.7818608E-02  0.8356831E-01
          1   -1    0    0  501    0  0.00000000000E+00  0.00000000000E+00  0.14484608571E+04  0.14484608571E+04  0.00000000000E+00 0. -1.
         -1   -1    0    0    0  501 -0.00000000000E+00 -0.00000000000E+00 -0.11972302510E+04  0.11972302510E+04  0.00000000000E+00 0.  1.
         23    2    1    2    0    0  0.38666893326E+03 -0.11910374539E+04  0.52984364108E+03  0.13628394784E+04  0.92271768472E+02 0.  0.
         13    1    3    3    0    0  0.20488082684E+03 -0.68592533030E+03  0.25658002636E+03  0.76046237375E+03  0.00000000000E+00 0. -1.
        -13    1    3    3    0    0  0.18178810641E+03 -0.50511212363E+03  0.27326361472E+03  0.60237710464E+03  0.00000000000E+00 0.  1.
         22    1    1    2    0    0 -0.38666893326E+03  0.11910374539E+04 -0.27861303505E+03  0.12828516297E+04  0.00000000000E+00 0.  1.
<mgrwt>
<rscale>  0 0.26337359E+04</rscale>
<asrwt>0</asrwt>
<pdfrwt beam="1">  1        1 0.22284013E+00 0.26337359E+04</pdfrwt>
<pdfrwt beam="2">  1       -1 0.18418927E+00 0.26337359E+04</pdfrwt>
<totfact> 0.12119694E+00</totfact>
</mgrwt>
</event>
<event>
 6    1  0.1588846E-005  0.2128394E+04  0.7818608E-02  0.8548838E-01
         -1   -1    0    0    0  501 -0.00000000000E+00  0.00000000000E+00  0.59703258756E+03  0.59703258756E+03  0.00000000000E+00 0.  1.
          1   -1    0    0  501    0  0.00000000000E+00 -0.00000000000E+00 -0.18969066216E+04  0.18969066216E+04  0.00000000000E+00 0. -1.
         23    2    1    2    0    0  0.42432104120E+03  0.93878932994E+03 -0.95451545030E+03  0.14073637155E+04  0.90549052085E+02 0.  0.
         11    1    3    3    0    0  0.23441525302E+03  0.42537405488E+03 -0.41639828846E+03  0.63975083591E+03  0.00000000000E+00 0.  1.
        -11    1    3    3    0    0  0.18990578818E+03  0.51341527505E+03 -0.53811716184E+03  0.76761287959E+03  0.00000000000E+00 0. -1.
         22    1    1    2    0    0 -0.42432104120E+03 -0.93878932994E+03 -0.34535858372E+03  0.10865754936E+04  0.00000000000E+00 0.  1.
<mgrwt>
<rscale>  0 0.21283938E+04</rscale>
<asrwt>0</asrwt>
<pdfrwt beam="1">  1        1 0.29183178E+00 0.21283938E+04</pdfrwt>
<pdfrwt beam="2">  1       -1 0.91851169E-01 0.21283938E+04</pdfrwt>
<totfact> 0.37079528E+00</totfact>
</mgrwt>
</event>
<event>
 6    1  0.1588846E-005  0.4151979E+03  0.7818608E-02  0.1038641E+00
          1   -1    0    0  501    0  0.00000000000E+00  0.00000000000E+00  0.11691783626E+04  0.11691783626E+04  0.00000000000E+00 0. -1.
         -1   -1    0    0    0  501 -0.00000000000E+00 -0.00000000000E+00 -0.36861210690E+02  0.36861210690E+02  0.00000000000E+00 0.  1.
         23    2    1    2    0    0  0.10985413857E+02  0.14367217991E+03  0.98641260197E+03  0.10009773576E+04  0.90462558864E+02 0.  0.
         11    1    3    3    0    0  0.36278896098E+02  0.10840937592E+03  0.85442324964E+03  0.86203702973E+03  0.00000000000E+00 0. -1.
        -11    1    3    3    0    0 -0.25293482241E+02  0.35262803985E+02  0.13198935233E+03  0.13894032790E+03  0.00000000000E+00 0.  1.
         22    1    1    2    0    0 -0.10985413857E+02 -0.14367217991E+03  0.14590454992E+03  0.20506221564E+03  0.00000000000E+00 0.  1.
<mgrwt>
<rscale>  0 0.41519793E+03</rscale>
<asrwt>0</asrwt>
<pdfrwt beam="1">  1        1 0.17987357E+00 0.41519793E+03</pdfrwt>
<pdfrwt beam="2">  1       -1 0.56709564E-02 0.41519793E+03</pdfrwt>
<totfact> 0.17499790E+03</totfact>
</mgrwt>
</event>
<event>
 6    1  0.1588846E-005  0.1170882E+04  0.7818608E-02  0.9138733E-01
         -2   -1    0    0    0  501 -0.00000000000E+00  0.00000000000E+00  0.24951125694E+03  0.24951125694E+03  0.00000000000E+00 0.  1.
          2   -1    0    0  501    0  0.00000000000E+00 -0.00000000000E+00 -0.13736490992E+04  0.13736490992E+04  0.00000000000E+00 0. -1.
         23    2    1    2    0    0  0.41646296068E+03  0.39705065822E+03 -0.44540371414E+03  0.73334540939E+03  0.91216216153E+02 0.  0.
         11    1    3    3    0    0  0.28602488283E+03  0.25507141577E+03 -0.24286108887E+03  0.45371044646E+03  0.00000000000E+00 0. -1.
        -11    1    3    3    0    0  0.13043807786E+03  0.14197924245E+03 -0.20254262528E+03  0.27963496293E+03  0.00000000000E+00 0.  1.
         22    1    1    2    0    0 -0.41646296068E+03 -0.39705065822E+03 -0.67873412813E+03  0.88981494678E+03  0.00000000000E+00 0.  1.
<mgrwt>
<rscale>  0 0.11708816E+04</rscale>
<asrwt>0</asrwt>
<pdfrwt beam="1">  1        2 0.21133063E+00 0.11708816E+04</pdfrwt>
<pdfrwt beam="2">  1       -2 0.38386347E-01 0.11708816E+04</pdfrwt>
<totfact> 0.94877302E+01</totfact>
</mgrwt>
</event>
<event>
 6    1  0.1588846E-005  0.2607384E+04  0.7818608E-02  0.8365697E-01
          2   -1    0    0  501    0  0.00000000000E+00  0.00000000000E+00  0.18484017704E+04  0.18484017704E+04  0.00000000000E+00 0. -1.
         -2   -1    0    0    0  501 -0.00000000000E+00 -0.00000000000E+00 -0.91950431864E+03  0.91950431864E+03  0.00000000000E+00 0.  1.
         23    2    1    2    0    0 -0.74182581999E+03  0.26308671949E+03  0.15662212911E+04  0.17551366950E+04  0.89081514460E+02 0.  0.
         13    1    3    3    0    0 -0.28317408141E+03  0.68206858065E+02  0.64645080991E+03  0.70904046817E+03  0.00000000000E+00 0. -1.
        -13    1    3    3    0    0 -0.45865173859E+03  0.19487986142E+03  0.91977048120E+03  0.10460962268E+04  0.00000000000E+00 0.  1.
         22    1    1    2    0    0  0.74182581999E+03 -0.26308671949E+03 -0.63732383939E+03  0.10127693940E+04  0.00000000000E+00 0.  1.
<mgrwt>
<rscale>  0 0.26073844E+04</rscale>
<asrwt>0</asrwt>
<pdfrwt beam="1">  1        2 0.28436950E+00 0.26073844E+04</pdfrwt>
<pdfrwt beam="2">  1       -2 0.14146220E+00 0.26073844E+04</pdfrwt>
<totfact> 0.25068506E+00</totfact>
</mgrwt>
</event>
<event>
 6    1  0.1588846E-005  0.2975162E+04  0.7818608E-02  0.8250859E-01
          1   -1    0    0  501    0  0.00000000000E+00  0.00000000000E+00  0.22429589138E+04  0.22429589138E+04  0.00000000000E+00 0. -1.
         -1   -1    0    0    0  501 -0.00000000000E+00 -0.00000000000E+00 -0.98659740060E+03  0.98659740060E+03  0.00000000000E+00 0.  1.
         23    2    1    2    0    0  0.40633484152E+03 -0.12952749056E+04 -0.27768663675E+02  0.13609109774E+04  0.91991875686E+02 0.  0.
         11    1    3    3    0    0  0.63444907961E+02 -0.13151001570E+03 -0.22048420305E+02  0.14766947353E+03  0.00000000000E+00 0. -1.
        -11    1    3    3    0    0  0.34288993355E+03 -0.11637648899E+04 -0.57202433699E+01  0.12132415038E+04  0.00000000000E+00 0.  1.
         22    1    1    2    0    0 -0.40633484152E+03  0.12952749056E+04  0.12841301769E+04  0.18686453370E+04  0.00000000000E+00 0. -1.
<mgrwt>
<rscale>  0 0.29751621E+04</rscale>
<asrwt>0</asrwt>
<pdfrwt beam="1">  1        1 0.34507060E+00 0.29751621E+04</pdfrwt>
<pdfrwt beam="2">  1       -1 0.15178422E+00 0.29751621E+04</pdfrwt>
<totfact> 0.58671001E-01</totfact>
</mgrwt>
</event>
<event>
 6    1  0.1588846E-005  0.5925485E+04  0.7818608E-02  0.7699710E-01
         -2   -1    0    0    0  501 -0.00000000000E+00  0.00000000000E+00  0.31220702609E+04  0.31220702609E+04  0.00000000000E+00 0.  1.
          2   -1    0    0  501    0  0.00000000000E+00 -0.00000000000E+00 -0.28115456812E+04  0.28115456812E+04  0.00000000000E+00 0. -1.
         23    2    1    2    0    0  0.17676253336E+04 -0.69459887057E+03 -0.21208708312E+04  0.28483849045E+04  0.90755553489E+02 0.  0.
         13    1    3    3    0    0  0.15334022064E+03 -0.88141676616E+02 -0.20376532878E+03  0.26981936112E+03  0.00000000000E+00 0. -1.
        -13    1    3    3    0    0  0.16142851130E+04 -0.60645719395E+03 -0.19171055025E+04  0.25785655434E+04  0.00000000000E+00 0.  1.
         22    1    1    2    0    0 -0.17676253336E+04  0.69459887057E+03  0.24313954109E+04  0.30852310376E+04  0.00000000000E+00 0.  1.
<mgrwt>
<rscale>  0 0.59254850E+04</rscale>
<asrwt>0</asrwt>
<pdfrwt beam="1">  1        2 0.43254549E+00 0.59254850E+04</pdfrwt>
<pdfrwt beam="2">  1       -2 0.48031850E+00 0.59254850E+04</pdfrwt>
<totfact> 0.34133341E-03</totfact>
</mgrwt>
</event>
<event>
 6    1  0.1588846E-005  0.5613463E+04  0.7818608E-02  0.7740267E-01
         -2   -1    0    0    0  501 -0.00000000000E+00  0.00000000000E+00  0.17026232622E+04  0.17026232622E+04  0.00000000000E+00 0.  1.
          2   -1    0    0  501    0  0.00000000000E+00 -0.00000000000E+00 -0.46268263140E+04  0.46268263140E+04  0.00000000000E+00 0. -1.
         23    2    1    2    0    0  0.30219663350E+03  0.27516008405E+04 -0.94477201104E+03  0.29263954721E+04  0.92554390476E+02 0.  0.
         13    1    3    3    0    0  0.24519493853E+02  0.47939227279E+03 -0.18619577642E+03  0.51486602525E+03  0.00000000000E+00 0. -1.
        -13    1    3    3    0    0  0.27767713964E+03  0.22722085677E+04 -0.75857623462E+03  0.24115294468E+04  0.00000000000E+00 0.  1.
         22    1    1    2    0    0 -0.30219663350E+03 -0.27516008405E+04 -0.19794310407E+04  0.34030541042E+04  0.00000000000E+00 0. -1.
<mgrwt>
<rscale>  0 0.56134631E+04</rscale>
<asrwt>0</asrwt>
<pdfrwt beam="1">  1        2 0.71181942E+00 0.56134631E+04</pdfrwt>
<pdfrwt beam="2">  1       -2 0.26194204E+00 0.56134631E+04</pdfrwt>
<totfact> 0.34076535E-03</totfact>
</mgrwt>
</event>
<event>
 6    1  0.1588846E-005  0.1722833E+04  0.7818608E-02  0.8748448E-01
          1   -1    0    0  501    0  0.00000000000E+00  0.00000000000E+00  0.61775442176E+03  0.61775442176E+03  0.00000000000E+00 0. -1.
         -1   -1    0    0    0  501 -0.00000000000E+00 -0.00000000000E+00 -0.12011869355E+04  0.12011869355E+04  0.00000000000E+00 0.  1.
         23    2    1    2    0    0 -0.19046493166E+03 -0.66384671288E+03  0.24675513413E+03  0.73904280690E+03  0.91251442771E+02 0.  0.
         13    1    3    3    0    0  0.63997114186E+01 -0.82460779769E+02  0.33603123026E+02  0.89274332165E+02  0.00000000000E+00 0. -1.
        -13    1    3    3    0    0 -0.19686464308E+03 -0.58138593311E+03  0.21315201111E+03  0.64976847473E+03  0.00000000000E+00 0.  1.
         22    1    1    2    0    0  0.19046493166E+03  0.66384671288E+03 -0.83018764786E+03  0.10798985504E+04  0.00000000000E+00 0.  1.
<mgrwt>
<rscale>  0 0.17228332E+04</rscale>
<asrwt>0</asrwt>
<pdfrwt beam="1">  1        1 0.95039143E-01 0.17228332E+04</pdfrwt>
<pdfrwt beam="2">  1       -1 0.18479799E+00 0.17228332E+04</pdfrwt>
<totfact> 0.59948670E+00</totfact>
</mgrwt>
</event>
<event>
 6    1  0.1588846E-005  0.3454998E+03  0.7818608E-02  0.1064477E+00
         -1   -1    0    0    0  501 -0.00000000000E+00  0.00000000000E+00  0.17779928881E+02  0.17779928881E+02  0.00000000000E+00 0.  1.
          1   -1    0    0  501    0  0.00000000000E+00 -0.00000000000E+00 -0.16784393766E+04  0.16784393766E+04  0.00000000000E+00 0. -1.
         23    2    1    2    0    0  0.77980417604E+02  0.14128513952E+03 -0.88129108800E+03  0.90031888689E+03  0.88643556606E+02 0.  0.
         11    1    3    3    0    0  0.82950739416E+02  0.11464499615E+03 -0.83308442488E+03  0.84501713550E+03  0.00000000000E+00 0. -1.
        -11    1    3    3    0    0 -0.49703218121E+01  0.26640143372E+02 -0.48206663114E+02  0.55301751386E+02  0.00000000000E+00 0.  1.
         22    1    1    2    0    0 -0.77980417604E+02 -0.14128513952E+03 -0.77936835975E+03  0.79590041862E+03  0.00000000000E+00 0. -1.
<mgrwt>
<rscale>  0 0.34549983E+03</rscale>
<asrwt>0</asrwt>
<pdfrwt beam="1">  1        1 0.25822148E+00 0.34549983E+03</pdfrwt>
<pdfrwt beam="2">  1       -1 0.27353733E-02 0.34549983E+03</pdfrwt>
<totfact> 0.23587867E+03</totfact>
</mgrwt>
</event>
<event>
 6    1  0.1588846E-005  0.3361454E+04  0.7818608E-02  0.8147432E-01
          1   -1    0    0  501    0  0.00000000000E+00  0.00000000000E+00  0.20183079032E+04  0.20183079032E+04  0.00000000000E+00 0. -1.
         -1   -1    0    0    0  501 -0.00000000000E+00 -0.00000000000E+00 -0.13996097458E+04  0.13996097458E+04  0.00000000000E+00 0.  1.
         23    2    1    2    0    0  0.28582521485E+03 -0.16547525283E+04  0.28237671859E+03  0.17053131723E+04  0.91947925212E+02 0.  0.
         13    1    3    3    0    0  0.18937806717E+02 -0.11077725511E+03 -0.41386116381E+01  0.11246052142E+03  0.00000000000E+00 0.  1.
        -13    1    3    3    0    0  0.26688740814E+03 -0.15439752732E+04  0.28651533023E+03  0.15928526509E+04  0.00000000000E+00 0. -1.
         22    1    1    2    0    0 -0.28582521485E+03  0.16547525283E+04  0.33632143880E+03  0.17126044767E+04  0.00000000000E+00 0. -1.
<mgrwt>
<rscale>  0 0.33614541E+04</rscale>
<asrwt>0</asrwt>
<pdfrwt beam="1">  1        1 0.31050891E+00 0.33614541E+04</pdfrwt>
<pdfrwt beam="2">  1       -1 0.21532458E+00 0.33614541E+04</pdfrwt>
<totfact> 0.28281101E-01</totfact>
</mgrwt>
</event>
<event>
 6    1  0.1588846E-005  0.4996986E+04  0.7818608E-02  0.7828972E-01
         -2   -1    0    0    0  501 -0.00000000000E+00  0.00000000000E+00  0.22436233249E+04  0.22436233249E+04  0.00000000000E+00 0.  1.
          2   -1    0    0  501    0  0.00000000000E+00 -0.00000000000E+00 -0.27823147727E+04  0.27823147727E+04  0.00000000000E+00 0. -1.
         23    2    1    2    0    0  0.12121503238E+03  0.10719189471E+04 -0.25352564000E+04  0.27565824795E+04  0.86710089383E+02 0.  0.
         13    1    3    3    0    0  0.34846160223E+01  0.38816778336E+03 -0.93720804363E+03  0.10144186944E+04  0.00000000000E+00 0. -1.
        -13    1    3    3    0    0  0.11773041635E+03  0.68375116372E+03 -0.15980483563E+04  0.17421637851E+04  0.00000000000E+00 0.  1.
         22    1    1    2    0    0 -0.12121503238E+03 -0.10719189471E+04  0.19965649521E+04  0.22693556181E+04  0.00000000000E+00 0.  1.
<mgrwt>
<rscale>  0 0.49969856E+04</rscale>
<asrwt>0</asrwt>
<pdfrwt beam="1">  1        2 0.42804842E+00 0.49969856E+04</pdfrwt>
<pdfrwt beam="2">  1       -2 0.34517282E+00 0.49969856E+04</pdfrwt>
<totfact> 0.28795242E-02</totfact>
</mgrwt>
</event>
<event>
 6    1  0.1588846E-005  0.2385985E+04  0.7818608E-02  0.8444769E-01
          2   -1    0    0  501    0  0.00000000000E+00  0.00000000000E+00  0.34257956372E+04  0.34257956372E+04  0.00000000000E+00 0. -1.
         -2   -1    0    0    0  501 -0.00000000000E+00 -0.00000000000E+00 -0.41544559197E+03  0.41544559197E+03  0.00000000000E+00 0.  1.
         23    2    1    2    0    0  0.48114193940E+03 -0.76536967239E+03  0.25839928723E+03  0.94460157681E+03  0.90629167559E+02 0.  0.
         13    1    3    3    0    0  0.37574756511E+02 -0.11545358547E+03  0.26327894069E+02  0.12423586733E+03  0.00000000000E+00 0.  1.
        -13    1    3    3    0    0  0.44356718289E+03 -0.64991608691E+03  0.23207139316E+03  0.82036570948E+03  0.00000000000E+00 0. -1.
         22    1    1    2    0    0 -0.48114193940E+03  0.76536967239E+03  0.27519507580E+04  0.28966396524E+04  0.00000000000E+00 0. -1.
<mgrwt>
<rscale>  0 0.23859855E+04</rscale>
<asrwt>0</asrwt>
<pdfrwt beam="1">  1        2 0.52704546E+00 0.23859855E+04</pdfrwt>
<pdfrwt beam="2">  1       -2 0.63914709E-01 0.23859855E+04</pdfrwt>
<totfact> 0.18686168E+00</totfact>
</mgrwt>
</event>
<event>
 6    1  0.1588846E-005  0.1942173E+04  0.7818608E-02  0.8634145E-01
         -2   -1    0    0    0  501 -0.00000000000E+00  0.00000000000E+00  0.70968211320E+03  0.70968211320E+03  0.00000000000E+00 0.  1.
          2   -1    0    0  501    0  0.00000000000E+00 -0.00000000000E+00 -0.13287760733E+04  0.13287760733E+04  0.00000000000E+00 0. -1.
         23    2    1    2    0    0 -0.58977403946E+03 -0.20530412846E+03 -0.10878163687E+04  0.12576356079E+04  0.91212211885E+02 0.  0.
         13    1    3    3    0    0 -0.20864004072E+03 -0.27855792768E+02 -0.34799397763E+03  0.40670188129E+03  0.00000000000E+00 0. -1.
        -13    1    3    3    0    0 -0.38113399874E+03 -0.17744833570E+03 -0.73982239106E+03  0.85093372665E+03  0.00000000000E+00 0.  1.
         22    1    1    2    0    0  0.58977403946E+03  0.20530412846E+03  0.46872240862E+03  0.78082257852E+03  0.00000000000E+00 0.  1.
<mgrwt>
<rscale>  0 0.19421726E+04</rscale>
<asrwt>0</asrwt>
<pdfrwt beam="1">  1        2 0.20442708E+00 0.19421726E+04</pdfrwt>
<pdfrwt beam="2">  1       -2 0.10918187E+00 0.19421726E+04</pdfrwt>
<totfact> 0.99341854E+00</totfact>
</mgrwt>
</event>
<event>
 6    1  0.3469936E-005  0.3697473E+04  0.7818608E-02  0.8068522E-01
          2   -1    0    0  501    0  0.00000000000E+00  0.00000000000E+00  0.20760675791E+04  0.20760675791E+04  0.00000000000E+00 0. -1.
         -2   -1    0    0    0  501 -0.00000000000E+00 -0.00000000000E+00 -0.16462981350E+04  0.16462981350E+04  0.00000000000E+00 0.  1.
         23    2    1    2    0    0 -0.15974807068E+04  0.33232013162E+03  0.10876381295E+04  0.19630554839E+04  0.90823200540E+02 0.  0.
         13    1    3    3    0    0 -0.64920098249E+03  0.15928038655E+03  0.40014184175E+03  0.77906716702E+03  0.00000000000E+00 0. -1.
        -13    1    3    3    0    0 -0.94827972435E+03  0.17303974507E+03  0.68749628772E+03  0.11839883169E+04  0.00000000000E+00 0.  1.
         22    1    1    2    0    0  0.15974807068E+04 -0.33232013162E+03 -0.65786868546E+03  0.17593102302E+04  0.00000000000E+00 0.  1.
<mgrwt>
<rscale>  0 0.36974727E+04</rscale>
<asrwt>0</asrwt>
<pdfrwt beam="1">  1        2 0.31939501E+00 0.36974727E+04</pdfrwt>
<pdfrwt beam="2">  1       -2 0.25327664E+00 0.36974727E+04</pdfrwt>
<totfact> 0.30060462E-01</totfact>
</mgrwt>
</event>
<event>
 6    1  0.1588846E-005  0.9223332E+03  0.7818608E-02  0.9398087E-01
          2   -1    0    0  501    0  0.00000000000E+00  0.00000000000E+00  0.48290975790E+03  0.48290975790E+03  0.00000000000E+00 0. -1.
         -2   -1    0    0    0  501 -0.00000000000E+00 -0.00000000000E+00 -0.44040241051E+03  0.44040241051E+03  0.00000000000E+00 0.  1.
         23    2    1    2    0    0  0.91213008258E+02  0.34951071157E+03 -0.25811708051E+03  0.45336259981E+03  0.91845899600E+02 0.  0.
         11    1    3    3    0    0  0.45633063320E+02  0.12119576900E+03 -0.14534295531E+03  0.19466732019E+03  0.00000000000E+00 0. -1.
        -11    1    3    3    0    0  0.45579944939E+02  0.22831494257E+03 -0.11277412521E+03  0.25869527962E+03  0.00000000000E+00 0.  1.
         22    1    1    2    0    0 -0.91213008258E+02 -0.34951071157E+03  0.30062442790E+03  0.46994956860E+03  0.00000000000E+00 0. -1.
<mgrwt>
<rscale>  0 0.92233318E+03</rscale>
<asrwt>0</asrwt>
<pdfrwt beam="1">  1        2 0.74293809E-01 0.92233318E+03</pdfrwt>
<pdfrwt beam="2">  1       -2 0.67754217E-01 0.92233318E+03</pdfrwt>
<totfact> 0.12835524E+02</totfact>
</mgrwt>
</event>
<event>
 6    1  0.1588846E-005  0.5545411E+03  0.7818608E-02  0.1000448E+00
         -2   -1    0    0    0  501 -0.00000000000E+00  0.00000000000E+00  0.68746410352E+02  0.68746410352E+02  0.00000000000E+00 0.  1.
          2   -1    0    0  501    0  0.00000000000E+00 -0.00000000000E+00 -0.11182977788E+04  0.11182977788E+04  0.00000000000E+00 0. -1.
         23    2    1    2    0    0  0.17323133796E+03 -0.10684248210E+03 -0.91816014948E+03  0.94478799242E+03  0.90453734500E+02 0.  0.
         11    1    3    3    0    0  0.26444198964E+02 -0.61195225155E+02 -0.21867042120E+03  0.22860643986E+03  0.00000000000E+00 0. -1.
        -11    1    3    3    0    0  0.14678713899E+03 -0.45647256949E+02 -0.69948972829E+03  0.71618155256E+03  0.00000000000E+00 0.  1.
         22    1    1    2    0    0 -0.17323133796E+03  0.10684248210E+03 -0.13139121896E+03  0.24225619672E+03  0.00000000000E+00 0.  1.
<mgrwt>
<rscale>  0 0.55454110E+03</rscale>
<asrwt>0</asrwt>
<pdfrwt beam="1">  1        2 0.17204580E+00 0.55454110E+03</pdfrwt>
<pdfrwt beam="2">  1       -2 0.10576372E-01 0.55454110E+03</pdfrwt>
<totfact> 0.13432016E+03</totfact>
</mgrwt>
</event>
<event>
 6    1  0.1588846E-005  0.1333717E+04  0.7818608E-02  0.9003247E-01
          1   -1    0    0  501    0  0.00000000000E+00  0.00000000000E+00  0.39086375031E+03  0.39086375031E+03  0.00000000000E+00 0. -1.
         -1   -1    0    0    0  501 -0.00000000000E+00 -0.00000000000E+00 -0.11377364832E+04  0.11377364832E+04  0.00000000000E+00 0.  1.
         23    2    1    2    0    0  0.36534067722E+03 -0.30663554042E+03  0.15350641308E+03  0.50968818059E+03  0.93373751650E+02 0.  0.
         11    1    3    3    0    0  0.42787153237E+02 -0.83312927057E+02  0.32364854621E+02  0.99092220237E+02  0.00000000000E+00 0.  1.
        -11    1    3    3    0    0  0.32255352398E+03 -0.22332261336E+03  0.12114155846E+03  0.41059596035E+03  0.00000000000E+00 0. -1.
         22    1    1    2    0    0 -0.36534067722E+03  0.30663554042E+03 -0.90037914597E+03  0.10189120529E+04  0.00000000000E+00 0.  1.
<mgrwt>
<rscale>  0 0.13337165E+04</rscale>
<asrwt>0</asrwt>
<pdfrwt beam="1">  1        1 0.60132885E-01 0.13337165E+04</pdfrwt>
<pdfrwt beam="2">  1       -1 0.17503638E+00 0.13337165E+04</pdfrwt>
<totfact> 0.13706092E+01</totfact>
</mgrwt>
</event>
<event>
 6    1  0.1588846E-005  0.3758947E+04  0.7818608E-02  0.8055023E-01
         -2   -1    0    0    0  501 -0.00000000000E+00  0.00000000000E+00  0.10198477135E+04  0.10198477135E+04  0.00000000000E+00 0.  1.
          2   -1    0    0  501    0  0.00000000000E+00 -0.00000000000E+00 -0.34636748275E+04  0.34636748275E+04  0.00000000000E+00 0. -1.
         23    2    1    2    0    0  0.10195591620E+04  0.13824472504E+04 -0.31601599264E+03  0.17488851878E+04  0.89844352541E+02 0.  0.
         11    1    3    3    0    0  0.21459825104E+03  0.23261461969E+03 -0.54982451338E+02  0.32122428395E+03  0.00000000000E+00 0. -1.
        -11    1    3    3    0    0  0.80496091099E+03  0.11498326307E+04 -0.26103354130E+03  0.14276609039E+04  0.00000000000E+00 0.  1.
         22    1    1    2    0    0 -0.10195591620E+04 -0.13824472504E+04 -0.21278111214E+04  0.27346373532E+04  0.00000000000E+00 0.  1.
<mgrwt>
<rscale>  0 0.37589471E+04</rscale>
<asrwt>0</asrwt>
<pdfrwt beam="1">  1        2 0.53287305E+00 0.37589471E+04</pdfrwt>
<pdfrwt beam="2">  1       -2 0.15689965E+00 0.37589471E+04</pdfrwt>
<totfact> 0.18387403E-01</totfact>
</mgrwt>
</event>
<event>
 6    1  0.1588846E-005  0.2530662E+04  0.7818608E-02  0.8392143E-01
          1   -1    0    0  501    0  0.00000000000E+00  0.00000000000E+00  0.13193914440E+04  0.13193914440E+04  0.00000000000E+00 0. -1.
         -1   -1    0    0    0  501 -0.00000000000E+00 -0.00000000000E+00 -0.12134855617E+04  0.12134855617E+04  0.00000000000E+00 0.  1.
         23    2    1    2    0    0  0.91961387177E+03  0.17055306127E+02 -0.81506463678E+03  0.12312752027E+04  0.75681610281E+02 0.  0.
         13    1    3    3    0    0  0.14747867037E+03 -0.58038786854E+01 -0.16778674541E+03  0.22346372224E+03  0.00000000000E+00 0.  1.
        -13    1    3    3    0    0  0.77213520140E+03  0.22859184812E+02 -0.64727789136E+03  0.10078114805E+04  0.00000000000E+00 0. -1.
         22    1    1    2    0    0 -0.91961387177E+03 -0.17055306127E+02  0.92097051899E+03  0.13016018030E+04  0.00000000000E+00 0. -1.
<mgrwt>
<rscale>  0 0.25306619E+04</rscale>
<asrwt>0</asrwt>
<pdfrwt beam="1">  1        1 0.20298330E+00 0.25306619E+04</pdfrwt>
<pdfrwt beam="2">  1       -1 0.18669009E+00 0.25306619E+04</pdfrwt>
<totfact> 0.14475750E+00</totfact>
</mgrwt>
</event>
<event>
 6    1  0.1588846E-005  0.1954763E+04  0.7818608E-02  0.8628067E-01
          2   -1    0    0  501    0  0.00000000000E+00  0.00000000000E+00  0.50561243707E+03  0.50561243707E+03  0.00000000000E+00 0. -1.
         -2   -1    0    0    0  501 -0.00000000000E+00 -0.00000000000E+00 -0.18893418218E+04  0.18893418218E+04  0.00000000000E+00 0.  1.
         23    2    1    2    0    0 -0.83721874282E+03 -0.19255098117E+03 -0.12589365450E+04  0.15268618925E+04  0.91514538836E+02 0.  0.
         11    1    3    3    0    0 -0.70296040811E+03 -0.12631398934E+03 -0.10381328621E+04  0.12600906311E+04  0.00000000000E+00 0. -1.
        -11    1    3    3    0    0 -0.13425833471E+03 -0.66236991825E+02 -0.22080368295E+03  0.26677126144E+03  0.00000000000E+00 0.  1.
         22    1    1    2    0    0  0.83721874282E+03  0.19255098117E+03 -0.12479283974E+03  0.86809236636E+03  0.00000000000E+00 0. -1.
<mgrwt>
<rscale>  0 0.19547631E+04</rscale>
<asrwt>0</asrwt>
<pdfrwt beam="1">  1        2 0.77786528E-01 0.19547631E+04</pdfrwt>
<pdfrwt beam="2">  1       -2 0.29066798E+00 0.19547631E+04</pdfrwt>
<totfact> 0.20562334E+00</totfact>
</mgrwt>
</event>
<event>
 6    1  0.1588846E-005  0.5883538E+04  0.7818608E-02  0.7705012E-01
          2   -1    0    0  501    0  0.00000000000E+00  0.00000000000E+00  0.47680619484E+04  0.47680619484E+04  0.00000000000E+00 0. -1.
         -2   -1    0    0    0  501 -0.00000000000E+00 -0.00000000000E+00 -0.18149943613E+04  0.18149943613E+04  0.00000000000E+00 0.  1.
         23    2    1    2    0    0  0.96020325045E+03 -0.27745176429E+04  0.12832369394E+04  0.32054428289E+04  0.90709722620E+02 0.  0.
         11    1    3    3    0    0  0.45301086292E+03 -0.13121539803E+04  0.55735027380E+03  0.14958630411E+04  0.00000000000E+00 0. -1.
        -11    1    3    3    0    0  0.50719238753E+03 -0.14623636626E+04  0.72588666558E+03  0.17095797878E+04  0.00000000000E+00 0.  1.
         22    1    1    2    0    0 -0.96020325045E+03  0.27745176429E+04  0.16698306477E+04  0.33776134807E+04  0.00000000000E+00 0. -1.
<mgrwt>
<rscale>  0 0.58835382E+04</rscale>
<asrwt>0</asrwt>
<pdfrwt beam="1">  1        2 0.73354799E+00 0.58835382E+04</pdfrwt>
<pdfrwt beam="2">  1       -2 0.27922990E+00 0.58835382E+04</pdfrwt>
<totfact> 0.18390990E-03</totfact>
</mgrwt>
</event>
<event>
 6    1  0.1588846E-005  0.1073741E+04  0.7818608E-02  0.9231171E-01
          2   -1    0    0  501    0  0.00000000000E+00  0.00000000000E+00  0.16121569849E+03  0.16121569849E+03  0.00000000000E+00 0. -1.
         -2   -1    0    0    0  501 -0.00000000000E+00 -0.00000000000E+00 -0.17878513057E+04  0.17878513057E+04  0.00000000000E+00 0.  1.
         23    2    1    2    0    0  0.44265768970E+03  0.21636762453E+03 -0.44992139765E+03  0.67336440947E+03  0.90717058436E+02 0.  0.
         11    1    3    3    0    0  0.10973771884E+03  0.99044615606E+02 -0.12471187785E+03  0.19340438282E+03  0.00000000000E+00 0. -1.
        -11    1    3    3    0    0  0.33291997086E+03  0.11732300892E+03 -0.32520951980E+03  0.47996002666E+03  0.00000000000E+00 0.  1.
         22    1    1    2    0    0 -0.44265768970E+03 -0.21636762453E+03 -0.11767142096E+04  0.12757025948E+04  0.00000000000E+00 0.  1.
<mgrwt>
<rscale>  0 0.10737406E+04</rscale>
<asrwt>0</asrwt>
<pdfrwt beam="1">  1        2 0.24802415E-01 0.10737406E+04</pdfrwt>
<pdfrwt beam="2">  1       -2 0.27505404E+00 0.10737406E+04</pdfrwt>
<totfact> 0.10021611E+01</totfact>
</mgrwt>
</event>
<event>
 6    1  0.1588846E-005  0.3641530E+04  0.7818608E-02  0.8081044E-01
         -2   -1    0    0    0  501 -0.00000000000E+00  0.00000000000E+00  0.15484318370E+04  0.15484318370E+04  0.00000000000E+00 0.  1.
          2   -1    0    0  501    0  0.00000000000E+00 -0.00000000000E+00 -0.21409949532E+04  0.21409949532E+04  0.00000000000E+00 0. -1.
         23    2    1    2    0    0 -0.48738223510E+03 -0.13458090476E+04  0.84219059770E+03  0.16627887725E+04  0.82692583349E+02 0.  0.
         11    1    3    3    0    0 -0.35756396438E+03 -0.89794620650E+03  0.54012388272E+03  0.11072006083E+04  0.00000000000E+00 0.  1.
        -11    1    3    3    0    0 -0.12981827072E+03 -0.44786284109E+03  0.30206671498E+03  0.55558816414E+03  0.00000000000E+00 0. -1.
         22    1    1    2    0    0  0.48738223510E+03  0.13458090476E+04 -0.14347537139E+04  0.20266380178E+04  0.00000000000E+00 0. -1.
<mgrwt>
<rscale>  0 0.36415298E+04</rscale>
<asrwt>0</asrwt>
<pdfrwt beam="1">  1        2 0.32938384E+00 0.36415298E+04</pdfrwt>
<pdfrwt beam="2">  1       -2 0.23822028E+00 0.36415298E+04</pdfrwt>
<totfact> 0.34399910E-01</totfact>
</mgrwt>
</event>
<event>
 6    1  0.1588846E-005  0.2664274E+04  0.7818608E-02  0.8346691E-01
          2   -1    0    0  501    0  0.00000000000E+00  0.00000000000E+00  0.26628279074E+04  0.26628279074E+04  0.00000000000E+00 0. -1.
         -2   -1    0    0    0  501 -0.00000000000E+00 -0.00000000000E+00 -0.66643037267E+03  0.66643037267E+03  0.00000000000E+00 0.  1.
         23    2    1    2    0    0  0.47996243177E+03  0.68940059288E+03 -0.29002216024E+03  0.89341096653E+03  0.91832392417E+02 0.  0.
         13    1    3    3    0    0  0.16285132686E+03  0.24904714903E+03 -0.57643115420E+02  0.30309695784E+03  0.00000000000E+00 0. -1.
        -13    1    3    3    0    0  0.31711110492E+03  0.44035344386E+03 -0.23237904482E+03  0.59031400869E+03  0.00000000000E+00 0.  1.
         22    1    1    2    0    0 -0.47996243177E+03 -0.68940059288E+03  0.22864196950E+04  0.24358473136E+04  0.00000000000E+00 0. -1.
<mgrwt>
<rscale>  0 0.26642743E+04</rscale>
<asrwt>0</asrwt>
<pdfrwt beam="1">  1        2 0.40966583E+00 0.26642743E+04</pdfrwt>
<pdfrwt beam="2">  1       -2 0.10252775E+00 0.26642743E+04</pdfrwt>
<totfact> 0.19128866E+00</totfact>
</mgrwt>
</event>
<event>
 6    1  0.1588846E-005  0.9971509E+03  0.7818608E-02  0.9311675E-01
          2   -1    0    0  501    0  0.00000000000E+00  0.00000000000E+00  0.73338090881E+03  0.73338090881E+03  0.00000000000E+00 0. -1.
         -2   -1    0    0    0  501 -0.00000000000E+00 -0.00000000000E+00 -0.33894731344E+03  0.33894731344E+03  0.00000000000E+00 0.  1.
         23    2    1    2    0    0 -0.40881253547E+03 -0.77062767788E+01  0.49786449849E+03  0.65056403744E+03  0.90429155133E+02 0.  0.
         11    1    3    3    0    0 -0.97058157202E+02 -0.16646976510E+02  0.68820657362E+02  0.12014029543E+03  0.00000000000E+00 0.  1.
        -11    1    3    3    0    0 -0.31175437827E+03  0.89406997314E+01  0.42904384112E+03  0.53042374201E+03  0.00000000000E+00 0. -1.
         22    1    1    2    0    0  0.40881253547E+03  0.77062767788E+01 -0.10343090312E+03  0.42176418480E+03  0.00000000000E+00 0. -1.
<mgrwt>
<rscale>  0 0.99715092E+03</rscale>
<asrwt>0</asrwt>
<pdfrwt beam="1">  1        2 0.11282783E+00 0.99715092E+03</pdfrwt>
<pdfrwt beam="2">  1       -2 0.52145741E-01 0.99715092E+03</pdfrwt>
<totfact> 0.13384784E+02</totfact>
</mgrwt>
</event>
<event>
 6    1  0.1588846E-005  0.1907975E+04  0.7818608E-02  0.8650897E-01
         -2   -1    0    0    0  501 -0.00000000000E+00  0.00000000000E+00  0.12397741940E+04  0.12397741940E+04  0.00000000000E+00 0.  1.
          2   -1    0    0  501    0  0.00000000000E+00 -0.00000000000E+00 -0.73407867943E+03  0.73407867943E+03  0.00000000000E+00 0. -1.
         23    2    1    2    0    0  0.52106202967E+03  0.73759492584E+02  0.10737868140E+04  0.11994667772E+04  0.93575242325E+02 0.  0.
         11    1    3    3    0    0  0.33468607106E+03  0.30182843364E+02  0.77381836180E+03  0.84363536391E+03  0.00000000000E+00 0.  1.
        -11    1    3    3    0    0  0.18637595861E+03  0.43576649220E+02  0.29996845225E+03  0.35583141324E+03  0.00000000000E+00 0. -1.
         22    1    1    2    0    0 -0.52106202967E+03 -0.73759492584E+02 -0.56809129950E+03  0.77438609626E+03  0.00000000000E+00 0. -1.
<mgrwt>
<rscale>  0 0.19079746E+04</rscale>
<asrwt>0</asrwt>
<pdfrwt beam="1">  1        2 0.11293518E+00 0.19079746E+04</pdfrwt>
<pdfrwt beam="2">  1       -2 0.19073449E+00 0.19079746E+04</pdfrwt>
<totfact> 0.55268744E+00</totfact>
</mgrwt>
</event>
<event>
 6    1  0.1588846E-005  0.1242849E+04  0.7818608E-02  0.9076156E-01
          1   -1    0    0  501    0  0.00000000000E+00  0.00000000000E+00  0.41252132443E+03  0.41252132443E+03  0.00000000000E+00 0. -1.
         -1   -1    0    0    0  501 -0.00000000000E+00 -0.00000000000E+00 -0.93611800706E+03  0.93611800706E+03  0.00000000000E+00 0.  1.
         23    2    1    2    0    0  0.47936121133E+03 -0.16212217521E+03 -0.64803819601E+03  0.82752853630E+03  0.93697408087E+02 0.  0.
         11    1    3    3    0    0  0.58280396215E+02  0.87619599833E+01 -0.57062212300E+02  0.82033362715E+02  0.00000000000E+00 0.  1.
        -11    1    3    3    0    0  0.42108081511E+03 -0.17088413519E+03 -0.59097598371E+03  0.74549517358E+03  0.00000000000E+00 0. -1.
         22    1    1    2    0    0 -0.47936121133E+03  0.16212217521E+03  0.12444151337E+03  0.52111079519E+03  0.00000000000E+00 0. -1.
<mgrwt>
<rscale>  0 0.12428494E+04</rscale>
<asrwt>0</asrwt>
<pdfrwt beam="1">  1        1 0.63464819E-01 0.12428494E+04</pdfrwt>
<pdfrwt beam="2">  1       -1 0.14401815E+00 0.12428494E+04</pdfrwt>
<totfact> 0.22102569E+01</totfact>
</mgrwt>
</event>
<event>
 6    1  0.1588846E-005  0.1789592E+04  0.7818608E-02  0.8711854E-01
         -1   -1    0    0    0  501 -0.00000000000E+00  0.00000000000E+00  0.28327631282E+03  0.28327631282E+03  0.00000000000E+00 0.  1.
          1   -1    0    0  501    0  0.00000000000E+00 -0.00000000000E+00 -0.28264285010E+04  0.28264285010E+04  0.00000000000E+00 0. -1.
         23    2    1    2    0    0 -0.69430821103E+03 -0.47957195289E+03 -0.76852961073E+03  0.11446759483E+04  0.87132738739E+02 0.  0.
         11    1    3    3    0    0 -0.39288688223E+03 -0.25468961165E+03 -0.37038308666E+03  0.59700128257E+03  0.00000000000E+00 0.  1.
        -11    1    3    3    0    0 -0.30142132880E+03 -0.22488234125E+03 -0.39814652407E+03  0.54767466574E+03  0.00000000000E+00 0. -1.
         22    1    1    2    0    0  0.69430821103E+03  0.47957195289E+03 -0.17746225774E+04  0.19650288655E+04  0.00000000000E+00 0.  1.
<mgrwt>
<rscale>  0 0.17895924E+04</rscale>
<asrwt>0</asrwt>
<pdfrwt beam="1">  1        1 0.43483517E+00 0.17895924E+04</pdfrwt>
<pdfrwt beam="2">  1       -1 0.43580970E-01 0.17895924E+04</pdfrwt>
<totfact> 0.39272887E+00</totfact>
</mgrwt>
</event>
<event>
 6    1  0.1588846E-005  0.1140769E+04  0.7818608E-02  0.9166342E-01
          1   -1    0    0  501    0  0.00000000000E+00  0.00000000000E+00  0.11421786213E+04  0.11421786213E+04  0.00000000000E+00 0. -1.
         -1   -1    0    0    0  501 -0.00000000000E+00 -0.00000000000E+00 -0.28484010858E+03  0.28484010858E+03  0.00000000000E+00 0.  1.
         23    2    1    2    0    0  0.42632200526E+03  0.21752932384E+02  0.89775366927E+03  0.99823320413E+03  0.91017783440E+02 0.  0.
         13    1    3    3    0    0  0.12442724497E+00 -0.27654416491E+01  0.40207122534E+02  0.40302305792E+02  0.00000000000E+00 0. -1.
        -13    1    3    3    0    0  0.42619757802E+03  0.24518374033E+02  0.85754654673E+03  0.95793089834E+03  0.00000000000E+00 0.  1.
         22    1    1    2    0    0 -0.42632200526E+03 -0.21752932384E+02 -0.40415156516E+02  0.42878552578E+03  0.00000000000E+00 0.  1.
<mgrwt>
<rscale>  0 0.11407687E+04</rscale>
<asrwt>0</asrwt>
<pdfrwt beam="1">  1        1 0.17571979E+00 0.11407687E+04</pdfrwt>
<pdfrwt beam="2">  1       -1 0.43821556E-01 0.11407687E+04</pdfrwt>
<totfact> 0.60258284E+01</totfact>
</mgrwt>
</event>
<event>
 6    1  0.1588846E-005  0.1845515E+04  0.7818608E-02  0.8682463E-01
         -1   -1    0    0    0  501 -0.00000000000E+00  0.00000000000E+00  0.16017950200E+04  0.16017950200E+04  0.00000000000E+00 0.  1.
          1   -1    0    0  501    0  0.00000000000E+00 -0.00000000000E+00 -0.53157922727E+03  0.53157922727E+03  0.00000000000E+00 0. -1.
         23    2    1    2    0    0  0.66502965577E+03 -0.58036182210E+03  0.83732537821E+03  0.12205093982E+04  0.97185978444E+02 0.  0.
         11    1    3    3    0    0  0.30577483318E+03 -0.33012162270E+03  0.41150522767E+03  0.60976641985E+03  0.00000000000E+00 0.  1.
        -11    1    3    3    0    0  0.35925482259E+03 -0.25024019940E+03  0.42582015055E+03  0.61074297832E+03  0.00000000000E+00 0. -1.
         22    1    1    2    0    0 -0.66502965577E+03  0.58036182210E+03  0.23289041456E+03  0.91286484914E+03  0.00000000000E+00 0. -1.
<mgrwt>
<rscale>  0 0.18455145E+04</rscale>
<asrwt>0</asrwt>
<pdfrwt beam="1">  1        1 0.81781420E-01 0.18455145E+04</pdfrwt>
<pdfrwt beam="2">  1       -1 0.24643000E+00 0.18455145E+04</pdfrwt>
<totfact> 0.28145117E+00</totfact>
</mgrwt>
</event>
<event>
 6    1  0.1588846E-005  0.3028926E+04  0.7818608E-02  0.8235519E-01
         -1   -1    0    0    0  501 -0.00000000000E+00  0.00000000000E+00  0.14031151577E+04  0.14031151577E+04  0.00000000000E+00 0.  1.
          1   -1    0    0  501    0  0.00000000000E+00 -0.00000000000E+00 -0.16346471256E+04  0.16346471256E+04  0.00000000000E+00 0. -1.
         23    2    1    2    0    0  0.11286502009E+04 -0.54704281739E+03 -0.96470040065E+03  0.15849570414E+04  0.91295346309E+02 0.  0.
         11    1    3    3    0    0  0.51538315522E+03 -0.28113978526E+03 -0.40611135291E+03  0.71385279050E+03  0.00000000000E+00 0. -1.
        -11    1    3    3    0    0  0.61326704563E+03 -0.26590303213E+03 -0.55858904774E+03  0.87110425094E+03  0.00000000000E+00 0.  1.
         22    1    1    2    0    0 -0.11286502009E+04  0.54704281739E+03  0.73316843272E+03  0.14528052418E+04  0.00000000000E+00 0.  1.
<mgrwt>
<rscale>  0 0.30289260E+04</rscale>
<asrwt>0</asrwt>
<pdfrwt beam="1">  1        1 0.25148417E+00 0.30289260E+04</pdfrwt>
<pdfrwt beam="2">  1       -1 0.21586387E+00 0.30289260E+04</pdfrwt>
<totfact> 0.52622796E-01</totfact>
</mgrwt>
</event>
<event>
 6    1  0.1588846E-005  0.4140252E+04  0.7818608E-02  0.7976836E-01
         -2   -1    0    0    0  501 -0.00000000000E+00  0.00000000000E+00  0.12522442762E+04  0.12522442762E+04  0.00000000000E+00 0.  1.
          2   -1    0    0  501    0  0.00000000000E+00 -0.00000000000E+00 -0.34221925494E+04  0.34221925494E+04  0.00000000000E+00 0. -1.
         23    2    1    2    0    0 -0.16778434162E+04 -0.18746727853E+03 -0.24358704070E+04  0.29653384987E+04  0.97289580903E+02 0.  0.
         13    1    3    3    0    0 -0.47852251074E+03 -0.19980129686E+02 -0.64104971750E+03  0.80020481077E+03  0.00000000000E+00 0. -1.
        -13    1    3    3    0    0 -0.11993209055E+04 -0.16748714884E+03 -0.17948206895E+04  0.21651336879E+04  0.00000000000E+00 0.  1.
         22    1    1    2    0    0  0.16778434162E+04  0.18746727853E+03  0.26592213380E+03  0.17090983269E+04  0.00000000000E+00 0.  1.
<mgrwt>
<rscale>  0 0.41402517E+04</rscale>
<asrwt>0</asrwt>
<pdfrwt beam="1">  1        2 0.52649115E+00 0.41402517E+04</pdfrwt>
<pdfrwt beam="2">  1       -2 0.19265297E+00 0.41402517E+04</pdfrwt>
<totfact> 0.10666844E-01</totfact>
</mgrwt>
</event>
<event>
 6    1  0.1588846E-005  0.1872226E+04  0.7818608E-02  0.8668806E-01
         -1   -1    0    0    0  501 -0.00000000000E+00  0.00000000000E+00  0.19287982851E+04  0.19287982851E+04  0.00000000000E+00 0.  1.
          1   -1    0    0  501    0  0.00000000000E+00 -0.00000000000E+00 -0.45432804940E+03  0.45432804940E+03  0.00000000000E+00 0. -1.
         23    2    1    2    0    0  0.70601910996E+03 -0.39060614623E+03  0.13994912536E+03  0.82364477351E+03  0.88140853984E+02 0.  0.
         13    1    3    3    0    0  0.52993046176E+03 -0.32539125979E+03  0.82681377856E+02  0.62732924091E+03  0.00000000000E+00 0. -1.
        -13    1    3    3    0    0  0.17608864819E+03 -0.65214886433E+02  0.57267747500E+02  0.19631553260E+03  0.00000000000E+00 0.  1.
         22    1    1    2    0    0 -0.70601910996E+03  0.39060614623E+03  0.13345211103E+04  0.15594815609E+04  0.00000000000E+00 0.  1.
<mgrwt>
<rscale>  0 0.18722256E+04</rscale>
<asrwt>0</asrwt>
<pdfrwt beam="1">  1        1 0.69896624E-01 0.18722256E+04</pdfrwt>
<pdfrwt beam="2">  1       -1 0.29673819E+00 0.18722256E+04</pdfrwt>
<totfact> 0.16449423E+00</totfact>
</mgrwt>
</event>
<event>
 6    1  0.1588846E-005  0.1633481E+04  0.7818608E-02  0.8800239E-01
         -1   -1    0    0    0  501 -0.00000000000E+00  0.00000000000E+00  0.35309673992E+03  0.35309673992E+03  0.00000000000E+00 0.  1.
          1   -1    0    0  501    0  0.00000000000E+00 -0.00000000000E+00 -0.18891860050E+04  0.18891860050E+04  0.00000000000E+00 0. -1.
         23    2    1    2    0    0 -0.19627604380E+01 -0.53423898950E+03 -0.16137164026E+04  0.17024298735E+04  0.93657331953E+02 0.  0.
         11    1    3    3    0    0 -0.44893952919E+02 -0.36129539157E+03 -0.10662492237E+04  0.11266930523E+04  0.00000000000E+00 0. -1.
        -11    1    3    3    0    0  0.42931192481E+02 -0.17294359793E+03 -0.54746717883E+03  0.57573682117E+03  0.00000000000E+00 0.  1.
         22    1    1    2    0    0  0.19627604380E+01  0.53423898950E+03  0.77627137489E+02  0.53985287144E+03  0.00000000000E+00 0.  1.
<mgrwt>
<rscale>  0 0.16334815E+04</rscale>
<asrwt>0</asrwt>
<pdfrwt beam="1">  1        1 0.29064400E+00 0.16334815E+04</pdfrwt>
<pdfrwt beam="2">  1       -1 0.54322575E-01 0.16334815E+04</pdfrwt>
<totfact> 0.11606843E+01</totfact>
</mgrwt>
</event>
<event>
 6    1  0.1588846E-005  0.1092046E+04  0.7818608E-02  0.9212979E-01
          2   -1    0    0  501    0  0.00000000000E+00  0.00000000000E+00  0.26745010450E+04  0.26745010450E+04  0.00000000000E+00 0. -1.
         -2   -1    0    0    0  501 -0.00000000000E+00 -0.00000000000E+00 -0.11147537751E+03  0.11147537751E+03  0.00000000000E+00 0.  1.
         23    2    1    2    0    0  0.51011619639E+03 -0.11220303267E+03  0.16615660181E+04  0.17441330783E+04  0.91599716300E+02 0.  0.
         11    1    3    3    0    0  0.39298827157E+02 -0.35762825990E+02  0.15392827062E+03  0.16284130322E+03  0.00000000000E+00 0. -1.
        -11    1    3    3    0    0  0.47081736924E+03 -0.76440206676E+02  0.15076377475E+04  0.15812917751E+04  0.00000000000E+00 0.  1.
         22    1    1    2    0    0 -0.51011619639E+03  0.11220303267E+03  0.90145964942E+03  0.10418433442E+04  0.00000000000E+00 0.  1.
<mgrwt>
<rscale>  0 0.10920458E+04</rscale>
<asrwt>0</asrwt>
<pdfrwt beam="1">  1        2 0.41146165E+00 0.10920458E+04</pdfrwt>
<pdfrwt beam="2">  1       -2 0.17150060E-01 0.10920458E+04</pdfrwt>
<totfact> 0.77236542E+01</totfact>
</mgrwt>
</event>
<event>
 6    1  0.1588846E-005  0.1560724E+04  0.7818608E-02  0.8845047E-01
         -2   -1    0    0    0  501 -0.00000000000E+00  0.00000000000E+00  0.93087590055E+03  0.93087590055E+03  0.00000000000E+00 0.  1.
          2   -1    0    0  501    0  0.00000000000E+00 -0.00000000000E+00 -0.65418442489E+03  0.65418442489E+03  0.00000000000E+00 0. -1.
         23    2    1    2    0    0 -0.71350807177E+02  0.71539581540E+03  0.44123498494E+03  0.84752613855E+03  0.82037389110E+02 0.  0.
         13    1    3    3    0    0 -0.28869788533E+02  0.49389521945E+03  0.26459418783E+03  0.56104905019E+03  0.00000000000E+00 0.  1.
        -13    1    3    3    0    0 -0.42481018644E+02  0.22150059595E+03  0.17664079711E+03  0.28647708836E+03  0.00000000000E+00 0. -1.
         22    1    1    2    0    0  0.71350807177E+02 -0.71539581540E+03 -0.16454350928E+03  0.73753418689E+03  0.00000000000E+00 0.  1.
<mgrwt>
<rscale>  0 0.15607236E+04</rscale>
<asrwt>0</asrwt>
<pdfrwt beam="1">  1        2 0.10064376E+00 0.15607236E+04</pdfrwt>
<pdfrwt beam="2">  1       -2 0.14321168E+00 0.15607236E+04</pdfrwt>
<totfact> 0.14515056E+01</totfact>
</mgrwt>
</event>
<event>
 6    1  0.1588846E-005  0.8419864E+03  0.7818608E-02  0.9501156E-01
          1   -1    0    0  501    0  0.00000000000E+00  0.00000000000E+00  0.12757325785E+04  0.12757325785E+04  0.00000000000E+00 0. -1.
         -1   -1    0    0    0  501 -0.00000000000E+00 -0.00000000000E+00 -0.13892824609E+03  0.13892824609E+03  0.00000000000E+00 0.  1.
         23    2    1    2    0    0  0.28749966221E+03  0.30000304363E+03  0.54078534903E+03  0.68809595445E+03  0.91484243690E+02 0.  0.
         13    1    3    3    0    0  0.13458504072E+03  0.78779739109E+02  0.21626593628E+03  0.26662770988E+03  0.00000000000E+00 0. -1.
        -13    1    3    3    0    0  0.15291462149E+03  0.22122330453E+03  0.32451941275E+03  0.42146824457E+03  0.00000000000E+00 0.  1.
         22    1    1    2    0    0 -0.28749966221E+03 -0.30000304363E+03  0.59601898335E+03  0.72656487011E+03  0.00000000000E+00 0.  1.
<mgrwt>
<rscale>  0 0.84198644E+03</rscale>
<asrwt>0</asrwt>
<pdfrwt beam="1">  1        1 0.19626654E+00 0.84198644E+03</pdfrwt>
<pdfrwt beam="2">  1       -1 0.21373577E-01 0.84198644E+03</pdfrwt>
<totfact> 0.17392445E+02</totfact>
</mgrwt>
</event>
<event>
 6    1  0.1588846E-005  0.8477753E+03  0.7818608E-02  0.9493328E-01
         -2   -1    0    0    0  501 -0.00000000000E+00  0.00000000000E+00  0.11442099207E+03  0.11442099207E+03  0.00000000000E+00 0.  1.
          2   -1    0    0  501    0  0.00000000000E+00 -0.00000000000E+00 -0.15703477477E+04  0.15703477477E+04  0.00000000000E+00 0. -1.
         23    2    1    2    0    0 -0.35456821597E+03 -0.54441047310E+02 -0.30669323022E+03  0.48085007835E+03  0.92052229614E+02 0.  0.
         11    1    3    3    0    0 -0.12983589400E+03 -0.12583156685E+01 -0.16479244348E+03  0.20979869436E+03  0.00000000000E+00 0. -1.
        -11    1    3    3    0    0 -0.22473232197E+03 -0.53182731642E+02 -0.14190078675E+03  0.27105138399E+03  0.00000000000E+00 0.  1.
         22    1    1    2    0    0  0.35456821597E+03  0.54441047310E+02 -0.11492335254E+04  0.12039186615E+04  0.00000000000E+00 0. -1.
<mgrwt>
<rscale>  0 0.84777532E+03</rscale>
<asrwt>0</asrwt>
<pdfrwt beam="1">  1        2 0.24159194E+00 0.84777532E+03</pdfrwt>
<pdfrwt beam="2">  1       -2 0.17603231E-01 0.84777532E+03</pdfrwt>
<totfact> 0.31128914E+02</totfact>
</mgrwt>
</event>
<event>
 6    1  0.1588846E-005  0.1024005E+04  0.7818608E-02  0.9282601E-01
         -2   -1    0    0    0  501 -0.00000000000E+00  0.00000000000E+00  0.12701895691E+03  0.12701895691E+03  0.00000000000E+00 0.  1.
          2   -1    0    0  501    0  0.00000000000E+00 -0.00000000000E+00 -0.20638385346E+04  0.20638385346E+04  0.00000000000E+00 0. -1.
         23    2    1    2    0    0 -0.42815558812E+03 -0.25509497327E+03 -0.11862027968E+04  0.12898490538E+04  0.90790161769E+02 0.  0.
         13    1    3    3    0    0 -0.26112227084E+03 -0.20104783436E+03 -0.81975728725E+03  0.88351971230E+03  0.00000000000E+00 0. -1.
        -13    1    3    3    0    0 -0.16703331729E+03 -0.54047138909E+02 -0.36644550955E+03  0.40632934152E+03  0.00000000000E+00 0.  1.
         22    1    1    2    0    0  0.42815558812E+03  0.25509497327E+03 -0.75061678090E+03  0.90100843770E+03  0.00000000000E+00 0. -1.
<mgrwt>
<rscale>  0 0.10240051E+04</rscale>
<asrwt>0</asrwt>
<pdfrwt beam="1">  1        2 0.31751364E+00 0.10240051E+04</pdfrwt>
<pdfrwt beam="2">  1       -2 0.19541377E-01 0.10240051E+04</pdfrwt>
<totfact> 0.13721056E+02</totfact>
</mgrwt>
</event>
<event>
 6    1  0.1588846E-005  0.3441288E+04  0.7818608E-02  0.8127847E-01
          1   -1    0    0  501    0  0.00000000000E+00  0.00000000000E+00  0.17811743433E+04  0.17811743433E+04  0.00000000000E+00 0. -1.
         -1   -1    0    0    0  501 -0.00000000000E+00 -0.00000000000E+00 -0.16621707300E+04  0.16621707300E+04  0.00000000000E+00 0.  1.
         23    2    1    2    0    0 -0.13577934594E+04  0.99894642311E+03  0.39773047289E+03  0.17347826083E+04  0.98914783455E+02 0.  0.
         11    1    3    3    0    0 -0.42770497201E+03  0.36851173981E+03  0.15071946918E+03  0.58433620789E+03  0.00000000000E+00 0.  1.
        -11    1    3    3    0    0 -0.93008848738E+03  0.63043468331E+03  0.24701100370E+03  0.11504464004E+04  0.00000000000E+00 0. -1.
         22    1    1    2    0    0  0.13577934594E+04 -0.99894642311E+03 -0.27872685957E+03  0.17085624650E+04  0.00000000000E+00 0.  1.
<mgrwt>
<rscale>  0 0.34412880E+04</rscale>
<asrwt>0</asrwt>
<pdfrwt beam="1">  1        1 0.27402682E+00 0.34412880E+04</pdfrwt>
<pdfrwt beam="2">  1       -1 0.25571857E+00 0.34412880E+04</pdfrwt>
<totfact> 0.22009654E-01</totfact>
</mgrwt>
</event>
<event>
 6    1  0.1588846E-005  0.2238662E+04  0.7818608E-02  0.8502506E-01
          2   -1    0    0  501    0  0.00000000000E+00  0.00000000000E+00  0.43367117377E+04  0.43367117377E+04  0.00000000000E+00 0. -1.
         -2   -1    0    0    0  501 -0.00000000000E+00 -0.00000000000E+00 -0.28890590637E+03  0.28890590637E+03  0.00000000000E+00 0.  1.
         23    2    1    2    0    0  0.32812999119E+02  0.91575753728E+03  0.33488039153E+04  0.34731020309E+04  0.90892760206E+02 0.  0.
         11    1    3    3    0    0  0.22042439084E+02  0.33247119098E+03  0.10611060346E+04  0.11121910711E+04  0.00000000000E+00 0. -1.
        -11    1    3    3    0    0  0.10770560034E+02  0.58328634629E+03  0.22876978807E+04  0.23609109598E+04  0.00000000000E+00 0.  1.
         22    1    1    2    0    0 -0.32812999119E+02 -0.91575753728E+03  0.69900191602E+03  0.11525156132E+04  0.00000000000E+00 0.  1.
<mgrwt>
<rscale>  0 0.22386618E+04</rscale>
<asrwt>0</asrwt>
<pdfrwt beam="1">  1        2 0.66718637E+00 0.22386618E+04</pdfrwt>
<pdfrwt beam="2">  1       -2 0.44447066E-01 0.22386618E+04</pdfrwt>
<totfact> 0.77553118E-01</totfact>
</mgrwt>
</event>
<event>
 6    1  0.1588846E-005  0.1837781E+04  0.7818608E-02  0.8686462E-01
          1   -1    0    0  501    0  0.00000000000E+00  0.00000000000E+00  0.15022371903E+04  0.15022371903E+04  0.00000000000E+00 0. -1.
         -1   -1    0    0    0  501 -0.00000000000E+00 -0.00000000000E+00 -0.56206814916E+03  0.56206814916E+03  0.00000000000E+00 0.  1.
         23    2    1    2    0    0  0.65297375464E+03  0.63515635333E+03  0.58526170697E+03  0.10866768143E+04  0.92395430476E+02 0.  0.
         13    1    3    3    0    0  0.42375477811E+03  0.47142311504E+03  0.40098542667E+03  0.75006478238E+03  0.00000000000E+00 0. -1.
        -13    1    3    3    0    0  0.22921897654E+03  0.16373323829E+03  0.18427628030E+03  0.33661203188E+03  0.00000000000E+00 0.  1.
         22    1    1    2    0    0 -0.65297375464E+03 -0.63515635333E+03  0.35490733418E+03  0.97762852520E+03  0.00000000000E+00 0.  1.
<mgrwt>
<rscale>  0 0.18377809E+04</rscale>
<asrwt>0</asrwt>
<pdfrwt beam="1">  1        1 0.23111341E+00 0.18377809E+04</pdfrwt>
<pdfrwt beam="2">  1       -1 0.86472024E-01 0.18377809E+04</pdfrwt>
<totfact> 0.80854063E+00</totfact>
</mgrwt>
</event>
<event>
 6    1  0.1588846E-005  0.1936684E+04  0.7818608E-02  0.8636809E-01
         -2   -1    0    0    0  501 -0.00000000000E+00  0.00000000000E+00  0.75957057414E+03  0.75957057414E+03  0.00000000000E+00 0.  1.
          2   -1    0    0  501    0  0.00000000000E+00 -0.00000000000E+00 -0.12344956074E+04  0.12344956074E+04  0.00000000000E+00 0. -1.
         23    2    1    2    0    0 -0.82575976840E+03  0.25891917251E+03 -0.68041759044E+03  0.11046025656E+04  0.90886729327E+02 0.  0.
         11    1    3    3    0    0 -0.25993403441E+03  0.10837247716E+03 -0.17867007828E+03  0.33351655569E+03  0.00000000000E+00 0.  1.
        -11    1    3    3    0    0 -0.56582573399E+03  0.15054669536E+03 -0.50174751216E+03  0.77108600991E+03  0.00000000000E+00 0. -1.
         22    1    1    2    0    0  0.82575976840E+03 -0.25891917251E+03  0.20549255719E+03  0.88946361593E+03  0.00000000000E+00 0.  1.
<mgrwt>
<rscale>  0 0.19366843E+04</rscale>
<asrwt>0</asrwt>
<pdfrwt beam="1">  1        2 0.18992240E+00 0.19366843E+04</pdfrwt>
<pdfrwt beam="2">  1       -2 0.11685701E+00 0.19366843E+04</pdfrwt>
<totfact> 0.95663753E+00</totfact>
</mgrwt>
</event>
<event>
 6    1  0.1588846E-005  0.1586768E+04  0.7818608E-02  0.8828718E-01
          2   -1    0    0  501    0  0.00000000000E+00  0.00000000000E+00  0.22387535097E+04  0.22387535097E+04  0.00000000000E+00 0. -1.
         -2   -1    0    0    0  501 -0.00000000000E+00 -0.00000000000E+00 -0.28116463817E+03  0.28116463817E+03  0.00000000000E+00 0.  1.
         23    2    1    2    0    0 -0.30922505193E+02  0.75227130652E+03  0.13652916460E+04  0.15619597337E+04  0.93960689391E+02 0.  0.
         11    1    3    3    0    0 -0.40307518307E+02  0.26275466461E+03  0.55184025319E+03  0.61252948896E+03  0.00000000000E+00 0.  1.
        -11    1    3    3    0    0  0.93850131136E+01  0.48951664191E+03  0.81345139280E+03  0.94943024473E+03  0.00000000000E+00 0. -1.
         22    1    1    2    0    0  0.30922505193E+02 -0.75227130652E+03  0.59229722559E+03  0.95795841422E+03  0.00000000000E+00 0. -1.
<mgrwt>
<rscale>  0 0.15867682E+04</rscale>
<asrwt>0</asrwt>
<pdfrwt beam="1">  1        2 0.34442360E+00 0.15867682E+04</pdfrwt>
<pdfrwt beam="2">  1       -2 0.43256100E-01 0.15867682E+04</pdfrwt>
<totfact> 0.23908700E+01</totfact>
</mgrwt>
</event>
<event>
 6    1  0.1588846E-005  0.4076984E+04  0.7818608E-02  0.7989194E-01
          2   -1    0    0  501    0  0.00000000000E+00  0.00000000000E+00  0.26623994398E+04  0.26623994398E+04  0.00000000000E+00 0. -1.
         -2   -1    0    0    0  501 -0.00000000000E+00 -0.00000000000E+00 -0.15607909626E+04  0.15607909626E+04  0.00000000000E+00 0.  1.
         23    2    1    2    0    0  0.14272444274E+04 -0.84766958762E+03  0.17748027726E+04  0.24318889356E+04  0.92674313143E+02 0.  0.
         13    1    3    3    0    0  0.68344880241E+03 -0.42150531996E+03  0.79364007269E+03  0.11289967074E+04  0.00000000000E+00 0. -1.
        -13    1    3    3    0    0  0.74379562500E+03 -0.42616426765E+03  0.98116269988E+03  0.13028922282E+04  0.00000000000E+00 0.  1.
         22    1    1    2    0    0 -0.14272444274E+04  0.84766958762E+03 -0.67319429538E+03  0.17913014667E+04  0.00000000000E+00 0.  1.
<mgrwt>
<rscale>  0 0.40769837E+04</rscale>
<asrwt>0</asrwt>
<pdfrwt beam="1">  1        2 0.40959991E+00 0.40769837E+04</pdfrwt>
<pdfrwt beam="2">  1       -2 0.24012169E+00 0.40769837E+04</pdfrwt>
<totfact> 0.16206576E-01</totfact>
</mgrwt>
</event>
<event>
 6    1  0.1588846E-005  0.1521248E+04  0.7818608E-02  0.8870445E-01
          2   -1    0    0  501    0  0.00000000000E+00  0.00000000000E+00  0.16442506703E+04  0.16442506703E+04  0.00000000000E+00 0. -1.
         -2   -1    0    0    0  501 -0.00000000000E+00 -0.00000000000E+00 -0.35186165429E+03  0.35186165429E+03  0.00000000000E+00 0.  1.
         23    2    1    2    0    0  0.78606832465E+02  0.63623881673E+03  0.11791021188E+04  0.13451032716E+04  0.89677972402E+02 0.  0.
         11    1    3    3    0    0 -0.59741920889E+01  0.20239757468E+03  0.31406139613E+03  0.37367770839E+03  0.00000000000E+00 0. -1.
        -11    1    3    3    0    0  0.84581024554E+02  0.43384124204E+03  0.86504072263E+03  0.97142556319E+03  0.00000000000E+00 0.  1.
         22    1    1    2    0    0 -0.78606832465E+02 -0.63623881673E+03  0.11328689726E+03  0.65100905302E+03  0.00000000000E+00 0.  1.
<mgrwt>
<rscale>  0 0.15212479E+04</rscale>
<asrwt>0</asrwt>
<pdfrwt beam="1">  1        2 0.25296164E+00 0.15212479E+04</pdfrwt>
<pdfrwt beam="2">  1       -2 0.54132563E-01 0.15212479E+04</pdfrwt>
<totfact> 0.32649937E+01</totfact>
</mgrwt>
</event>
<event>
 6    1  0.1588846E-005  0.2008321E+04  0.7818608E-02  0.8602740E-01
          1   -1    0    0  501    0  0.00000000000E+00  0.00000000000E+00  0.15056535112E+04  0.15056535112E+04  0.00000000000E+00 0. -1.
         -1   -1    0    0    0  501 -0.00000000000E+00 -0.00000000000E+00 -0.66970144762E+03  0.66970144762E+03  0.00000000000E+00 0.  1.
         23    2    1    2    0    0 -0.78485644146E+03  0.49956524502E+01 -0.25494208211E+03  0.83145219917E+03  0.10145296465E+03 0.  0.
         11    1    3    3    0    0 -0.17268047887E+03 -0.11912253010E+02 -0.99389062164E+02  0.19959618041E+03  0.00000000000E+00 0.  1.
        -11    1    3    3    0    0 -0.61217596259E+03  0.16907905460E+02 -0.15555301995E+03  0.63185601877E+03  0.00000000000E+00 0. -1.
         22    1    1    2    0    0  0.78485644146E+03 -0.49956524502E+01  0.10908941457E+04  0.13439027596E+04  0.00000000000E+00 0. -1.
<mgrwt>
<rscale>  0 0.20083210E+04</rscale>
<asrwt>0</asrwt>
<pdfrwt beam="1">  1        1 0.23163900E+00 0.20083210E+04</pdfrwt>
<pdfrwt beam="2">  1       -1 0.10303099E+00 0.20083210E+04</pdfrwt>
<totfact> 0.53463595E+00</totfact>
</mgrwt>
</event>
<event>
 6    1  0.1588846E-005  0.5298050E+04  0.7818608E-02  0.7784106E-01
         -1   -1    0    0    0  501 -0.00000000000E+00  0.00000000000E+00  0.26057103835E+04  0.26057103835E+04  0.00000000000E+00 0.  1.
          1   -1    0    0  501    0  0.00000000000E+00 -0.00000000000E+00 -0.26930598870E+04  0.26930598870E+04  0.00000000000E+00 0. -1.
         23    2    1    2    0    0  0.84721946587E+02 -0.24679087167E+04 -0.10006390300E+04  0.26659297889E+04  0.90288035154E+02 0.  0.
         11    1    3    3    0    0  0.18359065355E+02 -0.11343963393E+04 -0.50289407701E+03  0.12410054643E+04  0.00000000000E+00 0.  1.
        -11    1    3    3    0    0  0.66362881233E+02 -0.13335123774E+04 -0.49774495296E+03  0.14249243246E+04  0.00000000000E+00 0. -1.
         22    1    1    2    0    0 -0.84721946587E+02  0.24679087167E+04  0.91328952650E+03  0.26328404815E+04  0.00000000000E+00 0.  1.
<mgrwt>
<rscale>  0 0.52980502E+04</rscale>
<asrwt>0</asrwt>
<pdfrwt beam="1">  1        1 0.41431690E+00 0.52980502E+04</pdfrwt>
<pdfrwt beam="2">  1       -1 0.40087852E+00 0.52980502E+04</pdfrwt>
<totfact> 0.49418917E-03</totfact>
</mgrwt>
</event>
<event>
 6    1  0.1588846E-005  0.1076879E+04  0.7818608E-02  0.9228025E-01
         -2   -1    0    0    0  501 -0.00000000000E+00  0.00000000000E+00  0.17801430075E+03  0.17801430075E+03  0.00000000000E+00 0.  1.
          2   -1    0    0  501    0  0.00000000000E+00 -0.00000000000E+00 -0.16286162921E+04  0.16286162921E+04  0.00000000000E+00 0. -1.
         23    2    1    2    0    0  0.51564671481E+02 -0.47022762238E+03 -0.11487487388E+04  0.12454814877E+04  0.88473379663E+02 0.  0.
         13    1    3    3    0    0  0.37662157812E+02 -0.14630221367E+03 -0.46138182275E+03  0.48548528528E+03  0.00000000000E+00 0.  1.
        -13    1    3    3    0    0  0.13902513669E+02 -0.32392540871E+03 -0.68736691609E+03  0.75999620238E+03  0.00000000000E+00 0. -1.
         22    1    1    2    0    0 -0.51564671481E+02  0.47022762238E+03 -0.30185325250E+03  0.56114910517E+03  0.00000000000E+00 0.  1.
<mgrwt>
<rscale>  0 0.10768788E+04</rscale>
<asrwt>0</asrwt>
<pdfrwt beam="1">  1        2 0.25055636E+00 0.10768788E+04</pdfrwt>
<pdfrwt beam="2">  1       -2 0.27386815E-01 0.10768788E+04</pdfrwt>
<totfact> 0.12971789E+02</totfact>
</mgrwt>
</event>
<event>
 6    1  0.1588846E-005  0.2375851E+04  0.7818608E-02  0.8448600E-01
         -2   -1    0    0    0  501 -0.00000000000E+00  0.00000000000E+00  0.36521136594E+03  0.36521136594E+03  0.00000000000E+00 0.  1.
          2   -1    0    0  501    0  0.00000000000E+00 -0.00000000000E+00 -0.38639731883E+04  0.38639731883E+04  0.00000000000E+00 0. -1.
         23    2    1    2    0    0  0.68045024968E+03  0.39141867234E+03 -0.16945862971E+03  0.80858798815E+03  0.94218830600E+02 0.  0.
         11    1    3    3    0    0  0.16016647475E+03  0.70821875832E+02 -0.73705209101E+02  0.19000393569E+03  0.00000000000E+00 0.  1.
        -11    1    3    3    0    0  0.52028377494E+03  0.32059679651E+03 -0.95753420605E+02  0.61858405246E+03  0.00000000000E+00 0. -1.
         22    1    1    2    0    0 -0.68045024968E+03 -0.39141867234E+03 -0.33293031926E+04  0.34205965661E+04  0.00000000000E+00 0. -1.
<mgrwt>
<rscale>  0 0.23758509E+04</rscale>
<asrwt>0</asrwt>
<pdfrwt beam="1">  1        2 0.59445741E+00 0.23758509E+04</pdfrwt>
<pdfrwt beam="2">  1       -2 0.56186364E-01 0.23758509E+04</pdfrwt>
<totfact> 0.11797451E+00</totfact>
</mgrwt>
</event>
<event>
 6    1  0.1588846E-005  0.1972006E+04  0.7818608E-02  0.8619822E-01
         -2   -1    0    0    0  501 -0.00000000000E+00  0.00000000000E+00  0.13285892649E+04  0.13285892649E+04  0.00000000000E+00 0.  1.
          2   -1    0    0  501    0  0.00000000000E+00 -0.00000000000E+00 -0.73175490797E+03  0.73175490797E+03  0.00000000000E+00 0. -1.
         23    2    1    2    0    0 -0.14500176027E+02 -0.91638820677E+03  0.67487995962E+03  0.11405242358E+04  0.73177673242E+02 0.  0.
         13    1    3    3    0    0 -0.32308919190E+02 -0.63398276415E+03  0.43480968347E+03  0.76943971325E+03  0.00000000000E+00 0. -1.
        -13    1    3    3    0    0  0.17808743162E+02 -0.28240544262E+03  0.24007027615E+03  0.37108452251E+03  0.00000000000E+00 0.  1.
         22    1    1    2    0    0  0.14500176027E+02  0.91638820677E+03 -0.78045602692E+02  0.91981993711E+03  0.00000000000E+00 0. -1.
<mgrwt>
<rscale>  0 0.19720058E+04</rscale>
<asrwt>0</asrwt>
<pdfrwt beam="1">  1        2 0.11257768E+00 0.19720058E+04</pdfrwt>
<pdfrwt beam="2">  1       -2 0.20439835E+00 0.19720058E+04</pdfrwt>
<totfact> 0.44845688E+00</totfact>
</mgrwt>
</event>
<event>
 6    1  0.1588846E-005  0.7084709E+03  0.7818608E-02  0.9702854E-01
         -2   -1    0    0    0  501 -0.00000000000E+00  0.00000000000E+00  0.10019778354E+03  0.10019778354E+03  0.00000000000E+00 0.  1.
          2   -1    0    0  501    0  0.00000000000E+00 -0.00000000000E+00 -0.12523507468E+04  0.12523507468E+04  0.00000000000E+00 0. -1.
         23    2    1    2    0    0 -0.15363658582E+03  0.28392296660E+03 -0.33476242640E+03  0.47371763579E+03  0.90144688495E+02 0.  0.
         13    1    3    3    0    0 -0.18592937404E+02  0.10659299828E+03 -0.14540818860E+03  0.18124929218E+03  0.00000000000E+00 0. -1.
        -13    1    3    3    0    0 -0.13504364841E+03  0.17732996832E+03 -0.18935423780E+03  0.29246834361E+03  0.00000000000E+00 0.  1.
         22    1    1    2    0    0  0.15363658582E+03 -0.28392296660E+03 -0.81739053684E+03  0.87883089453E+03  0.00000000000E+00 0. -1.
<mgrwt>
<rscale>  0 0.70847094E+03</rscale>
<asrwt>0</asrwt>
<pdfrwt beam="1">  1        2 0.19266934E+00 0.70847094E+03</pdfrwt>
<pdfrwt beam="2">  1       -2 0.15415044E-01 0.70847094E+03</pdfrwt>
<totfact> 0.59566248E+02</totfact>
</mgrwt>
</event>
<event>
 6    1  0.1588846E-005  0.1936714E+04  0.7818608E-02  0.8636794E-01
         -2   -1    0    0    0  501 -0.00000000000E+00  0.00000000000E+00  0.34790024191E+03  0.34790024191E+03  0.00000000000E+00 0.  1.
          2   -1    0    0  501    0  0.00000000000E+00 -0.00000000000E+00 -0.26953579576E+04  0.26953579576E+04  0.00000000000E+00 0. -1.
         23    2    1    2    0    0  0.59615200165E+02 -0.83304845549E+03 -0.19397720060E+04  0.21138867242E+04  0.90983218985E+02 0.  0.
         11    1    3    3    0    0  0.57469367934E+02 -0.28839456219E+03 -0.62291245054E+03  0.68883530164E+03  0.00000000000E+00 0. -1.
        -11    1    3    3    0    0  0.21458322302E+01 -0.54465389331E+03 -0.13168595554E+04  0.14250514225E+04  0.00000000000E+00 0.  1.
         22    1    1    2    0    0 -0.59615200165E+02  0.83304845549E+03 -0.40768570974E+03  0.92937147536E+03  0.00000000000E+00 0.  1.
<mgrwt>
<rscale>  0 0.19367144E+04</rscale>
<asrwt>0</asrwt>
<pdfrwt beam="1">  1        2 0.41467046E+00 0.19367144E+04</pdfrwt>
<pdfrwt beam="2">  1       -2 0.53523114E-01 0.19367144E+04</pdfrwt>
<totfact> 0.82211362E+00</totfact>
</mgrwt>
</event>
<event>
 6    1  0.1588846E-005  0.5567962E+04  0.7818608E-02  0.7746406E-01
          2   -1    0    0  501    0  0.00000000000E+00  0.00000000000E+00  0.34102430973E+04  0.34102430973E+04  0.00000000000E+00 0. -1.
         -2   -1    0    0    0  501 -0.00000000000E+00 -0.00000000000E+00 -0.22727269256E+04  0.22727269256E+04  0.00000000000E+00 0.  1.
         23    2    1    2    0    0  0.25659928775E+04 -0.49984562037E+03 -0.40594680577E+03  0.26471104981E+04  0.90752899325E+02 0.  0.
         13    1    3    3    0    0  0.20899773441E+04 -0.38497815840E+03 -0.35811873810E+03  0.21551015085E+04  0.00000000000E+00 0. -1.
        -13    1    3    3    0    0  0.47601553340E+03 -0.11486746197E+03 -0.47828067666E+02  0.49200898967E+03  0.00000000000E+00 0.  1.
         22    1    1    2    0    0 -0.25659928775E+04  0.49984562037E+03  0.15434629774E+04  0.30358595248E+04  0.00000000000E+00 0. -1.
<mgrwt>
<rscale>  0 0.55679624E+04</rscale>
<asrwt>0</asrwt>
<pdfrwt beam="1">  1        2 0.52465278E+00 0.55679624E+04</pdfrwt>
<pdfrwt beam="2">  1       -2 0.34965030E+00 0.55679624E+04</pdfrwt>
<totfact> 0.10195323E-02</totfact>
</mgrwt>
</event>
<event>
 6    1  0.1588846E-005  0.1490593E+04  0.7818608E-02  0.8890733E-01
          2   -1    0    0  501    0  0.00000000000E+00  0.00000000000E+00  0.27821683687E+04  0.27821683687E+04  0.00000000000E+00 0. -1.
         -2   -1    0    0    0  501 -0.00000000000E+00 -0.00000000000E+00 -0.19965248307E+03  0.19965248307E+03  0.00000000000E+00 0.  1.
         23    2    1    2    0    0 -0.63960729799E+03  0.10901771992E+02  0.20500375003E+04  0.21495050613E+04  0.92205810586E+02 0.  0.
         13    1    3    3    0    0 -0.20597984146E+03  0.37081219979E+01  0.81113151062E+03  0.83688456360E+03  0.00000000000E+00 0. -1.
        -13    1    3    3    0    0 -0.43362745653E+03  0.71936499944E+01  0.12389059897E+04  0.13126204977E+04  0.00000000000E+00 0.  1.
         22    1    1    2    0    0  0.63960729799E+03 -0.10901771992E+02  0.53247838532E+03  0.83231579049E+03  0.00000000000E+00 0.  1.
<mgrwt>
<rscale>  0 0.14905929E+04</rscale>
<asrwt>0</asrwt>
<pdfrwt beam="1">  1        2 0.42802588E+00 0.14905929E+04</pdfrwt>
<pdfrwt beam="2">  1       -2 0.30715769E-01 0.14905929E+04</pdfrwt>
<totfact> 0.22606223E+01</totfact>
</mgrwt>
</event>
<event>
 6    1  0.1588846E-005  0.3702055E+04  0.7818608E-02  0.8067507E-01
         -1   -1    0    0    0  501 -0.00000000000E+00  0.00000000000E+00  0.11128625405E+04  0.11128625405E+04  0.00000000000E+00 0.  1.
          1   -1    0    0  501    0  0.00000000000E+00 -0.00000000000E+00 -0.30788199149E+04  0.30788199149E+04  0.00000000000E+00 0. -1.
         23    2    1    2    0    0  0.51904040852E+03 -0.16490019732E+04 -0.17290486668E+04  0.24467652113E+04  0.91870852986E+02 0.  0.
         13    1    3    3    0    0  0.47955990815E+03 -0.14198079262E+04 -0.15007113427E+04  0.21208410565E+04  0.00000000000E+00 0.  1.
        -13    1    3    3    0    0  0.39480500367E+02 -0.22919404698E+03 -0.22833732411E+03  0.32592415477E+03  0.00000000000E+00 0. -1.
         22    1    1    2    0    0 -0.51904040852E+03  0.16490019732E+04 -0.23690870758E+03  0.17449172442E+04  0.00000000000E+00 0.  1.
<mgrwt>
<rscale>  0 0.37020553E+04</rscale>
<asrwt>0</asrwt>
<pdfrwt beam="1">  1        1 0.47366460E+00 0.37020553E+04</pdfrwt>
<pdfrwt beam="2">  1       -1 0.17120962E+00 0.37020553E+04</pdfrwt>
<totfact> 0.10109839E-01</totfact>
</mgrwt>
</event>
<event>
 6    1  0.1588846E-005  0.1593030E+04  0.7818608E-02  0.8824841E-01
          1   -1    0    0  501    0  0.00000000000E+00  0.00000000000E+00  0.25837370808E+04  0.25837370808E+04  0.00000000000E+00 0. -1.
         -1   -1    0    0    0  501 -0.00000000000E+00 -0.00000000000E+00 -0.24554982935E+03  0.24554982935E+03  0.00000000000E+00 0.  1.
         23    2    1    2    0    0 -0.22250177432E+03  0.44725580500E+03  0.22688197980E+04  0.23249490886E+04  0.91105400563E+02 0.  0.
         11    1    3    3    0    0 -0.11630273659E+03  0.16996947192E+03  0.10917158365E+04  0.11109722839E+04  0.00000000000E+00 0. -1.
        -11    1    3    3    0    0 -0.10619903773E+03  0.27728633308E+03  0.11771039615E+04  0.12139768046E+04  0.00000000000E+00 0.  1.
         22    1    1    2    0    0  0.22250177432E+03 -0.44725580500E+03  0.69367453458E+02  0.50433782158E+03  0.00000000000E+00 0.  1.
<mgrwt>
<rscale>  0 0.15930301E+04</rscale>
<asrwt>0</asrwt>
<pdfrwt beam="1">  1        1 0.39749799E+00 0.15930301E+04</pdfrwt>
<pdfrwt beam="2">  1       -1 0.37776899E-01 0.15930301E+04</pdfrwt>
<totfact> 0.77070075E+00</totfact>
</mgrwt>
</event>
<event>
 6    1  0.1588846E-005  0.2393474E+04  0.7818608E-02  0.8441951E-01
          2   -1    0    0  501    0  0.00000000000E+00  0.00000000000E+00  0.21853532837E+04  0.21853532837E+04  0.00000000000E+00 0.  1.
         -2   -1    0    0    0  501 -0.00000000000E+00 -0.00000000000E+00 -0.65535379160E+03  0.65535379160E+03  0.00000000000E+00 0. -1.
         23    2    1    2    0    0  0.50924139399E+03  0.11610288360E+03 -0.50955835912E+03  0.73533230928E+03  0.90869173985E+02 0.  0.
         13    1    3    3    0    0  0.15345233460E+03  0.13030764725E+02 -0.20112136182E+03  0.25331249872E+03  0.00000000000E+00 0. -1.
        -13    1    3    3    0    0  0.35578905939E+03  0.10307211887E+03 -0.30843699730E+03  0.48201981056E+03  0.00000000000E+00 0.  1.
         22    1    1    2    0    0 -0.50924139399E+03 -0.11610288360E+03  0.20395578512E+04  0.21053747660E+04  0.00000000000E+00 0.  1.
<mgrwt>
<rscale>  0 0.23934741E+04</rscale>
<asrwt>0</asrwt>
<pdfrwt beam="1">  1        2 0.33620820E+00 0.23934741E+04</pdfrwt>
<pdfrwt beam="2">  1       -2 0.10082366E+00 0.23934741E+04</pdfrwt>
<totfact> 0.38350752E+00</totfact>
</mgrwt>
</event>
<event>
 6    1  0.1588846E-005  0.2062901E+04  0.7818608E-02  0.8577764E-01
         -2   -1    0    0    0  501 -0.00000000000E+00  0.00000000000E+00  0.96218144521E+03  0.96218144521E+03  0.00000000000E+00 0.  1.
          2   -1    0    0  501    0  0.00000000000E+00 -0.00000000000E+00 -0.11057065383E+04  0.11057065383E+04  0.00000000000E+00 0. -1.
         23    2    1    2    0    0 -0.23609976929E+03  0.59013984489E+03 -0.88283720257E+03  0.10929056592E+04  0.10503864077E+03 0.  0.
         11    1    3    3    0    0 -0.11075456901E+03  0.36546462735E+03 -0.45889984612E+03  0.59700924379E+03  0.00000000000E+00 0. -1.
        -11    1    3    3    0    0 -0.12534520028E+03  0.22467521753E+03 -0.42393735645E+03  0.49589641539E+03  0.00000000000E+00 0.  1.
         22    1    1    2    0    0  0.23609976929E+03 -0.59013984489E+03  0.73931210946E+03  0.97498232434E+03  0.00000000000E+00 0.  1.
<mgrwt>
<rscale>  0 0.20629012E+04</rscale>
<asrwt>0</asrwt>
<pdfrwt beam="1">  1        2 0.17010870E+00 0.20629012E+04</pdfrwt>
<pdfrwt beam="2">  1       -2 0.14802791E+00 0.20629012E+04</pdfrwt>
<totfact> 0.61984731E+00</totfact>
</mgrwt>
</event>
<event>
 6    1  0.1588846E-005  0.2260761E+04  0.7818608E-02  0.8493555E-01
         -1   -1    0    0    0  501 -0.00000000000E+00  0.00000000000E+00  0.30670887377E+03  0.30670887377E+03  0.00000000000E+00 0.  1.
          1   -1    0    0  501    0  0.00000000000E+00 -0.00000000000E+00 -0.41660370751E+04  0.41660370751E+04  0.00000000000E+00 0. -1.
         23    2    1    2    0    0  0.91875091052E+03 -0.63430501938E+02 -0.32231118770E+04  0.33534167410E+04  0.93952132967E+02 0.  0.
         13    1    3    3    0    0  0.23350326228E+03 -0.22813243849E+02 -0.97545707072E+03  0.10032749944E+04  0.00000000000E+00 0. -1.
        -13    1    3    3    0    0  0.68524764824E+03 -0.40617258090E+02 -0.22476548063E+04  0.23501417466E+04  0.00000000000E+00 0.  1.
         22    1    1    2    0    0 -0.91875091052E+03  0.63430501938E+02 -0.63621632433E+03  0.11193292078E+04  0.00000000000E+00 0.  1.
<mgrwt>
<rscale>  0 0.22607614E+04</rscale>
<asrwt>0</asrwt>
<pdfrwt beam="1">  1        1 0.64092879E+00 0.22607614E+04</pdfrwt>
<pdfrwt beam="2">  1       -1 0.47185980E-01 0.22607614E+04</pdfrwt>
<totfact> 0.27794191E-01</totfact>
</mgrwt>
</event>
<event>
 6    1  0.1588846E-005  0.2622107E+04  0.7818608E-02  0.8360731E-01
         -1   -1    0    0    0  501 -0.00000000000E+00  0.00000000000E+00  0.10966700837E+04  0.10966700837E+04  0.00000000000E+00 0.  1.
          1   -1    0    0  501    0  0.00000000000E+00 -0.00000000000E+00 -0.15673452896E+04  0.15673452896E+04  0.00000000000E+00 0. -1.
         23    2    1    2    0    0 -0.76902308082E+03 -0.46512033260E+03  0.73199048951E+03  0.11626366078E+04  0.90445466099E+02 0.  0.
         13    1    3    3    0    0 -0.35130714432E+03 -0.16025523143E+03  0.31006555975E+03  0.49521621560E+03  0.00000000000E+00 0. -1.
        -13    1    3    3    0    0 -0.41771593651E+03 -0.30486510117E+03  0.42192492976E+03  0.66742039216E+03  0.00000000000E+00 0.  1.
         22    1    1    2    0    0  0.76902308082E+03  0.46512033260E+03 -0.12026656954E+04  0.15013787655E+04  0.00000000000E+00 0. -1.
<mgrwt>
<rscale>  0 0.26221066E+04</rscale>
<asrwt>0</asrwt>
<pdfrwt beam="1">  1        1 0.24113005E+00 0.26221066E+04</pdfrwt>
<pdfrwt beam="2">  1       -1 0.16871847E+00 0.26221066E+04</pdfrwt>
<totfact> 0.12991221E+00</totfact>
</mgrwt>
</event>
<event>
 6    1  0.1588846E-005  0.5758702E+04  0.7818608E-02  0.7721061E-01
          1   -1    0    0  501    0  0.00000000000E+00  0.00000000000E+00  0.27048668558E+04  0.27048668558E+04  0.00000000000E+00 0. -1.
         -1   -1    0    0    0  501 -0.00000000000E+00 -0.00000000000E+00 -0.30650904798E+04  0.30650904798E+04  0.00000000000E+00 0.  1.
         23    2    1    2    0    0 -0.48258664597E+03  0.26728370842E+04 -0.11357325566E+04  0.29453578855E+04  0.91086134757E+02 0.  0.
         13    1    3    3    0    0 -0.13247014691E+03  0.61177540337E+03 -0.22762176818E+03  0.66605491766E+03  0.00000000000E+00 0. -1.
        -13    1    3    3    0    0 -0.35011649906E+03  0.20610616808E+04 -0.90811078847E+03  0.22793029678E+04  0.00000000000E+00 0.  1.
         22    1    1    2    0    0  0.48258664597E+03 -0.26728370842E+04  0.77550893264E+03  0.28245994502E+04  0.00000000000E+00 0. -1.
<mgrwt>
<rscale>  0 0.57587018E+04</rscale>
<asrwt>0</asrwt>
<pdfrwt beam="1">  1        1 0.41613336E+00 0.57587018E+04</pdfrwt>
<pdfrwt beam="2">  1       -1 0.47155238E+00 0.57587018E+04</pdfrwt>
<totfact> 0.15347094E-03</totfact>
</mgrwt>
</event>
<event>
 6    1  0.1702512E-005  0.3502543E+04  0.7818608E-02  0.8113188E-01
         -2   -1    0    0    0  501 -0.00000000000E+00  0.00000000000E+00  0.15714289255E+04  0.15714289255E+04  0.00000000000E+00 0. -1.
          2   -1    0    0  501    0  0.00000000000E+00 -0.00000000000E+00 -0.19516958524E+04  0.19516958524E+04  0.00000000000E+00 0.  1.
         23    2    1    2    0    0 -0.31849645338E+03  0.65030701137E+03  0.14122481876E+04  0.15898763107E+04  0.94459198476E+02 0.  0.
         13    1    3    3    0    0 -0.13789949172E+03  0.36368080226E+03  0.82034239035E+03  0.90787754304E+03  0.00000000000E+00 0.  1.
        -13    1    3    3    0    0 -0.18059696166E+03  0.28662620911E+03  0.59190579726E+03  0.68199876769E+03  0.00000000000E+00 0. -1.
         22    1    1    2    0    0  0.31849645338E+03 -0.65030701137E+03 -0.17925151145E+04  0.19332484671E+04  0.00000000000E+00 0.  1.
<mgrwt>
<rscale>  0 0.35025427E+04</rscale>
<asrwt>0</asrwt>
<pdfrwt beam="1">  1        2 0.30026090E+00 0.35025427E+04</pdfrwt>
<pdfrwt beam="2">  1       -2 0.24175830E+00 0.35025427E+04</pdfrwt>
<totfact> 0.42186061E-01</totfact>
</mgrwt>
</event>
<event>
 6    1  0.1588846E-005  0.1575655E+04  0.7818608E-02  0.8835645E-01
          2   -1    0    0  501    0  0.00000000000E+00  0.00000000000E+00  0.27021131090E+04  0.27021131090E+04  0.00000000000E+00 0. -1.
         -2   -1    0    0    0  501 -0.00000000000E+00 -0.00000000000E+00 -0.22969881081E+03  0.22969881081E+03  0.00000000000E+00 0.  1.
         23    2    1    2    0    0  0.65934816602E+03  0.17631845971E+01  0.20339904391E+04  0.21400047507E+04  0.88091507928E+02 0.  0.
         11    1    3    3    0    0  0.49829171144E+03  0.38778350688E+02  0.15483355319E+04  0.16270037829E+04  0.00000000000E+00 0. -1.
        -11    1    3    3    0    0  0.16105645458E+03 -0.37015166090E+02  0.48565490716E+03  0.51300096777E+03  0.00000000000E+00 0.  1.
         22    1    1    2    0    0 -0.65934816602E+03 -0.17631845971E+01  0.43842385912E+03  0.79180716914E+03  0.00000000000E+00 0.  1.
<mgrwt>
<rscale>  0 0.15756550E+04</rscale>
<asrwt>0</asrwt>
<pdfrwt beam="1">  1        2 0.41570969E+00 0.15756550E+04</pdfrwt>
<pdfrwt beam="2">  1       -2 0.35338280E-01 0.15756550E+04</pdfrwt>
<totfact> 0.19201530E+01</totfact>
</mgrwt>
</event>
<event>
 6    1  0.1588846E-005  0.2982654E+04  0.7818608E-02  0.8248702E-01
         -2   -1    0    0    0  501 -0.00000000000E+00  0.00000000000E+00  0.73399223865E+03  0.73399223865E+03  0.00000000000E+00 0.  1.
          2   -1    0    0  501    0  0.00000000000E+00 -0.00000000000E+00 -0.30300816343E+04  0.30300816343E+04  0.00000000000E+00 0. -1.
         23    2    1    2    0    0 -0.10497256736E+04  0.17895633717E+02  0.18481236509E+03  0.10701700532E+04  0.94149290258E+02 0.  0.
         13    1    3    3    0    0 -0.96243116768E+03  0.33241559492E+02  0.14850273862E+03  0.97438791925E+03  0.00000000000E+00 0.  1.
        -13    1    3    3    0    0 -0.87294505964E+02 -0.15345925775E+02  0.36309626469E+02  0.95782133948E+02  0.00000000000E+00 0. -1.
         22    1    1    2    0    0  0.10497256736E+04 -0.17895633717E+02 -0.24809017607E+04  0.26939038197E+04  0.00000000000E+00 0. -1.
<mgrwt>
<rscale>  0 0.29826541E+04</rscale>
<asrwt>0</asrwt>
<pdfrwt beam="1">  1        2 0.46616640E+00 0.29826541E+04</pdfrwt>
<pdfrwt beam="2">  1       -2 0.11292188E+00 0.29826541E+04</pdfrwt>
<totfact> 0.88036271E-01</totfact>
</mgrwt>
</event>
<event>
 6    1  0.1588846E-005  0.1932361E+04  0.7818608E-02  0.8638914E-01
          2   -1    0    0  501    0  0.00000000000E+00  0.00000000000E+00  0.12262171004E+04  0.12262171004E+04  0.00000000000E+00 0. -1.
         -2   -1    0    0    0  501 -0.00000000000E+00 -0.00000000000E+00 -0.76128807343E+03  0.76128807343E+03  0.00000000000E+00 0.  1.
         23    2    1    2    0    0 -0.28881989435E+03  0.23545305575E+02 -0.71284733388E+03  0.77460432504E+03  0.88821315948E+02 0.  0.
         13    1    3    3    0    0 -0.23284926534E+03 -0.17745073597E+02 -0.54692793080E+03  0.59469641792E+03  0.00000000000E+00 0. -1.
        -13    1    3    3    0    0 -0.55970629011E+02  0.41290379172E+02 -0.16591940308E+03  0.17990790712E+03  0.00000000000E+00 0.  1.
         22    1    1    2    0    0  0.28881989435E+03 -0.23545305575E+02  0.11777763609E+04  0.12129008488E+04  0.00000000000E+00 0. -1.
<mgrwt>
<rscale>  0 0.19323607E+04</rscale>
<asrwt>0</asrwt>
<pdfrwt beam="1">  1        2 0.18864878E+00 0.19323607E+04</pdfrwt>
<pdfrwt beam="2">  1       -2 0.11712124E+00 0.19323607E+04</pdfrwt>
<totfact> 0.96251355E+00</totfact>
</mgrwt>
</event>
<event>
 6    1  0.1588846E-005  0.1756494E+04  0.7818608E-02  0.8729784E-01
          1   -1    0    0  501    0  0.00000000000E+00  0.00000000000E+00  0.11619320421E+04  0.11619320421E+04  0.00000000000E+00 0. -1.
         -1   -1    0    0    0  501 -0.00000000000E+00 -0.00000000000E+00 -0.66382312453E+03  0.66382312453E+03  0.00000000000E+00 0.  1.
         23    2    1    2    0    0  0.24312903209E+03 -0.76321054540E+03 -0.11886279495E+03  0.81468832565E+03  0.89368009225E+02 0.  0.
         13    1    3    3    0    0  0.68917399280E+02 -0.24825731334E+03  0.26084514401E+01  0.25765889382E+03  0.00000000000E+00 0.  1.
        -13    1    3    3    0    0  0.17421163281E+03 -0.51495323206E+03 -0.12147124639E+03  0.55702943182E+03  0.00000000000E+00 0. -1.
         22    1    1    2    0    0 -0.24312903209E+03  0.76321054540E+03  0.61697171249E+03  0.10110668409E+04  0.00000000000E+00 0. -1.
<mgrwt>
<rscale>  0 0.17564935E+04</rscale>
<asrwt>0</asrwt>
<pdfrwt beam="1">  1        1 0.17875878E+00 0.17564935E+04</pdfrwt>
<pdfrwt beam="2">  1       -1 0.10212663E+00 0.17564935E+04</pdfrwt>
<totfact> 0.98032952E+00</totfact>
</mgrwt>
</event>
<event>
 6    1  0.1588846E-005  0.3635960E+04  0.7818608E-02  0.8082304E-01
          1   -1    0    0  501    0  0.00000000000E+00  0.00000000000E+00  0.28811194981E+04  0.28811194981E+04  0.00000000000E+00 0. -1.
         -1   -1    0    0    0  501 -0.00000000000E+00 -0.00000000000E+00 -0.11471414148E+04  0.11471414148E+04  0.00000000000E+00 0.  1.
         23    2    1    2    0    0 -0.66546657412E+03  0.16280506981E+02 -0.10056465238E+04  0.12089252102E+04  0.84050085809E+02 0.  0.
         13    1    3    3    0    0 -0.52220390890E+02  0.93676025118E+01 -0.46928699395E+02  0.70830953886E+02  0.00000000000E+00 0. -1.
        -13    1    3    3    0    0 -0.61324618323E+03  0.69129044696E+01 -0.95871782442E+03  0.11380942564E+04  0.00000000000E+00 0.  1.
         22    1    1    2    0    0  0.66546657412E+03 -0.16280506981E+02  0.27396246071E+04  0.28193357027E+04  0.00000000000E+00 0. -1.
<mgrwt>
<rscale>  0 0.36359601E+04</rscale>
<asrwt>0</asrwt>
<pdfrwt beam="1">  1        1 0.44324915E+00 0.36359601E+04</pdfrwt>
<pdfrwt beam="2">  1       -1 0.17648330E+00 0.36359601E+04</pdfrwt>
<totfact> 0.12967160E-01</totfact>
</mgrwt>
</event>
<event>
 6    1  0.1588846E-005  0.2445957E+04  0.7818608E-02  0.8422495E-01
          2   -1    0    0  501    0  0.00000000000E+00  0.00000000000E+00  0.11787616200E+04  0.11787616200E+04  0.00000000000E+00 0. -1.
         -2   -1    0    0    0  501 -0.00000000000E+00 -0.00000000000E+00 -0.12688543882E+04  0.12688543882E+04  0.00000000000E+00 0.  1.
         23    2    1    2    0    0 -0.10879085268E+04  0.51330799479E+03 -0.25621949470E+03  0.12332733261E+04  0.91019817021E+02 0.  0.
         13    1    3    3    0    0 -0.70982567877E+03  0.36973550909E+03 -0.14019258250E+03  0.81253356922E+03  0.00000000000E+00 0. -1.
        -13    1    3    3    0    0 -0.37808284804E+03  0.14357248570E+03 -0.11602691220E+03  0.42073975684E+03  0.00000000000E+00 0.  1.
         22    1    1    2    0    0  0.10879085268E+04 -0.51330799479E+03  0.16612672651E+03  0.12143426821E+04  0.00000000000E+00 0.  1.
<mgrwt>
<rscale>  0 0.24459574E+04</rscale>
<asrwt>0</asrwt>
<pdfrwt beam="1">  1        2 0.18134794E+00 0.24459574E+04</pdfrwt>
<pdfrwt beam="2">  1       -2 0.19520837E+00 0.24459574E+04</pdfrwt>
<totfact> 0.24997004E+00</totfact>
</mgrwt>
</event>
<event>
 6    1  0.2299802E-005  0.4148353E+04  0.7818608E-02  0.7975270E-01
         -1   -1    0    0    0  501 -0.00000000000E+00  0.00000000000E+00  0.23797288806E+04  0.23797288806E+04  0.00000000000E+00 0.  1.
          1   -1    0    0  501    0  0.00000000000E+00 -0.00000000000E+00 -0.18078562429E+04  0.18078562429E+04  0.00000000000E+00 0. -1.
         23    2    1    2    0    0 -0.11629104431E+04  0.71699129408E+03  0.18602036394E+04  0.23097581921E+04  0.90488185760E+02 0.  0.
         11    1    3    3    0    0 -0.41036414025E+03  0.25057407102E+03  0.72871936250E+03  0.87305097328E+03  0.00000000000E+00 0.  1.
        -11    1    3    3    0    0 -0.75254630284E+03  0.46641722307E+03  0.11314842769E+04  0.14367072188E+04  0.00000000000E+00 0. -1.
         22    1    1    2    0    0  0.11629104431E+04 -0.71699129408E+03 -0.12883310016E+04  0.18778269314E+04  0.00000000000E+00 0. -1.
<mgrwt>
<rscale>  0 0.41483528E+04</rscale>
<asrwt>0</asrwt>
<pdfrwt beam="1">  1        1 0.27813173E+00 0.41483528E+04</pdfrwt>
<pdfrwt beam="2">  1       -1 0.36611214E+00 0.41483528E+04</pdfrwt>
<totfact> 0.37739285E-02</totfact>
</mgrwt>
</event>
<event>
 6    1  0.1588846E-005  0.1508856E+04  0.7818608E-02  0.8878585E-01
         -1   -1    0    0    0  501 -0.00000000000E+00  0.00000000000E+00  0.87599799420E+03  0.87599799420E+03  0.00000000000E+00 0.  1.
          1   -1    0    0  501    0  0.00000000000E+00 -0.00000000000E+00 -0.64972919326E+03  0.64972919326E+03  0.00000000000E+00 0. -1.
         23    2    1    2    0    0 -0.36792278860E+03 -0.80221016614E+02  0.77143157780E+03  0.86315263079E+03  0.90128768600E+02 0.  0.
         13    1    3    3    0    0 -0.11027642110E+03 -0.59212374725E+02  0.19949452514E+03  0.23551021195E+03  0.00000000000E+00 0.  1.
        -13    1    3    3    0    0 -0.25764636750E+03 -0.21008641889E+02  0.57193705266E+03  0.62764241884E+03  0.00000000000E+00 0. -1.
         22    1    1    2    0    0  0.36792278860E+03  0.80221016614E+02 -0.54516277686E+03  0.66257455668E+03  0.00000000000E+00 0. -1.
<mgrwt>
<rscale>  0 0.15088558E+04</rscale>
<asrwt>0</asrwt>
<pdfrwt beam="1">  1        1 0.99958337E-01 0.15088558E+04</pdfrwt>
<pdfrwt beam="2">  1       -1 0.13476892E+00 0.15088558E+04</pdfrwt>
<totfact> 0.13632803E+01</totfact>
</mgrwt>
</event>
<event>
 6    1  0.1588846E-005  0.4301441E+04  0.7818608E-02  0.7946352E-01
          2   -1    0    0  501    0  0.00000000000E+00  0.00000000000E+00  0.21889545295E+04  0.21889545295E+04  0.00000000000E+00 0. -1.
         -2   -1    0    0    0  501 -0.00000000000E+00 -0.00000000000E+00 -0.21131543051E+04  0.21131543051E+04  0.00000000000E+00 0.  1.
         23    2    1    2    0    0 -0.11288382661E+04  0.71683815385E+03 -0.16456453409E+04  0.21223135221E+04  0.89069230657E+02 0.  0.
         11    1    3    3    0    0 -0.12137139783E+03  0.79629631684E+02 -0.22536612147E+03  0.26807048170E+03  0.00000000000E+00 0.  1.
        -11    1    3    3    0    0 -0.10074668683E+04  0.63720852216E+03 -0.14202792195E+04  0.18542430404E+04  0.00000000000E+00 0. -1.
         22    1    1    2    0    0  0.11288382661E+04 -0.71683815385E+03  0.17214455654E+04  0.21797953125E+04  0.00000000000E+00 0. -1.
<mgrwt>
<rscale>  0 0.43014410E+04</rscale>
<asrwt>0</asrwt>
<pdfrwt beam="1">  1        2 0.33676224E+00 0.43014410E+04</pdfrwt>
<pdfrwt beam="2">  1       -2 0.32510066E+00 0.43014410E+04</pdfrwt>
<totfact> 0.89796235E-02</totfact>
</mgrwt>
</event>
<event>
 6    1  0.1588846E-005  0.7998600E+03  0.7818608E-02  0.9560220E-01
         -1   -1    0    0    0  501 -0.00000000000E+00  0.00000000000E+00  0.11573620934E+04  0.11573620934E+04  0.00000000000E+00 0.  1.
          1   -1    0    0  501    0  0.00000000000E+00 -0.00000000000E+00 -0.13819702470E+03  0.13819702470E+03  0.00000000000E+00 0. -1.
         23    2    1    2    0    0  0.83732544223E+02  0.23996021006E+03  0.27011896924E+02  0.27137165594E+03  0.91218921821E+02 0.  0.
         11    1    3    3    0    0  0.25088225168E+01  0.14130605554E+03  0.30830754939E+01  0.14136194989E+03  0.00000000000E+00 0. -1.
        -11    1    3    3    0    0  0.81223721706E+02  0.98654154520E+02  0.23928821430E+02  0.13000970605E+03  0.00000000000E+00 0.  1.
         22    1    1    2    0    0 -0.83732544223E+02 -0.23996021006E+03  0.99215317180E+03  0.10241874622E+04  0.00000000000E+00 0.  1.
<mgrwt>
<rscale>  0 0.79985998E+03</rscale>
<asrwt>0</asrwt>
<pdfrwt beam="1">  1        1 0.21261081E-01 0.79985998E+03</pdfrwt>
<pdfrwt beam="2">  1       -1 0.17805570E+00 0.79985998E+03</pdfrwt>
<totfact> 0.52860433E+01</totfact>
</mgrwt>
</event>
<event>
 6    1  0.1958946E-005  0.2635626E+04  0.7818608E-02  0.8356200E-01
         -2   -1    0    0    0  501 -0.00000000000E+00  0.00000000000E+00  0.13937992232E+04  0.13937992232E+04  0.00000000000E+00 0.  1.
          2   -1    0    0  501    0  0.00000000000E+00 -0.00000000000E+00 -0.12459690178E+04  0.12459690178E+04  0.00000000000E+00 0. -1.
         23    2    1    2    0    0 -0.10135263032E+04  0.75023498646E+03 -0.30398799473E+03  0.13002803582E+04  0.90731509487E+02 0.  0.
         13    1    3    3    0    0 -0.72043811835E+03  0.56393875308E+03 -0.18703207395E+03  0.93383028238E+03  0.00000000000E+00 0.  1.
        -13    1    3    3    0    0 -0.29308818490E+03  0.18629623338E+03 -0.11695592078E+03  0.36645007586E+03  0.00000000000E+00 0. -1.
         22    1    1    2    0    0  0.10135263032E+04 -0.75023498646E+03  0.45181820012E+03  0.13394878828E+04  0.00000000000E+00 0. -1.
<mgrwt>
<rscale>  0 0.26356257E+04</rscale>
<asrwt>0</asrwt>
<pdfrwt beam="1">  1        2 0.19168754E+00 0.26356257E+04</pdfrwt>
<pdfrwt beam="2">  1       -2 0.21443065E+00 0.26356257E+04</pdfrwt>
<totfact> 0.16822299E+00</totfact>
</mgrwt>
</event>
<event>
 6    1  0.1588846E-005  0.3300941E+04  0.7818608E-02  0.8162656E-01
          1   -1    0    0  501    0  0.00000000000E+00  0.00000000000E+00  0.11565178619E+04  0.11565178619E+04  0.00000000000E+00 0. -1.
         -1   -1    0    0    0  501 -0.00000000000E+00 -0.00000000000E+00 -0.23553918772E+04  0.23553918772E+04  0.00000000000E+00 0.  1.
         23    2    1    2    0    0  0.11384643041E+04  0.86639252183E+03 -0.14731208442E+04  0.20552188670E+04  0.84276901052E+02 0.  0.
         11    1    3    3    0    0  0.83154364780E+03  0.65966703425E+03 -0.11346425525E+04  0.15537178496E+04  0.00000000000E+00 0. -1.
        -11    1    3    3    0    0  0.30692065631E+03  0.20672548759E+03 -0.33847829165E+03  0.50150101735E+03  0.00000000000E+00 0.  1.
         22    1    1    2    0    0 -0.11384643041E+04 -0.86639252183E+03  0.27424682885E+03  0.14566908721E+04  0.00000000000E+00 0. -1.
<mgrwt>
<rscale>  0 0.33009409E+04</rscale>
<asrwt>0</asrwt>
<pdfrwt beam="1">  1        1 0.17792582E+00 0.33009409E+04</pdfrwt>
<pdfrwt beam="2">  1       -1 0.36236798E+00 0.33009409E+04</pdfrwt>
<totfact> 0.12259800E-01</totfact>
</mgrwt>
</event>
<event>
 6    1  0.1588846E-005  0.1955484E+04  0.7818608E-02  0.8627721E-01
         -2   -1    0    0    0  501 -0.00000000000E+00  0.00000000000E+00  0.38355317887E+03  0.38355317887E+03  0.00000000000E+00 0.  1.
          2   -1    0    0  501    0  0.00000000000E+00 -0.00000000000E+00 -0.24924290401E+04  0.24924290401E+04  0.00000000000E+00 0. -1.
         23    2    1    2    0    0 -0.43731177625E+03 -0.31814756897E+03  0.13732334865E+03  0.56559905685E+03  0.92655953644E+02 0.  0.
         13    1    3    3    0    0 -0.84177245571E+02 -0.94561348360E+02  0.61748249333E+02  0.14085632244E+03  0.00000000000E+00 0.  1.
        -13    1    3    3    0    0 -0.35313453067E+03 -0.22358622061E+03  0.75575099319E+02  0.42474273442E+03  0.00000000000E+00 0. -1.
         22    1    1    2    0    0  0.43731177625E+03  0.31814756897E+03 -0.22461992098E+04  0.23103831621E+04  0.00000000000E+00 0. -1.
<mgrwt>
<rscale>  0 0.19554837E+04</rscale>
<asrwt>0</asrwt>
<pdfrwt beam="1">  1        2 0.38345063E+00 0.19554837E+04</pdfrwt>
<pdfrwt beam="2">  1       -2 0.59008180E-01 0.19554837E+04</pdfrwt>
<totfact> 0.88020893E+00</totfact>
</mgrwt>
</event>
<event>
 6    1  0.1588846E-005  0.2547602E+04  0.7818608E-02  0.8386221E-01
          2   -1    0    0  501    0  0.00000000000E+00  0.00000000000E+00  0.16041121499E+04  0.16041121499E+04  0.00000000000E+00 0. -1.
         -2   -1    0    0    0  501 -0.00000000000E+00 -0.00000000000E+00 -0.10115057928E+04  0.10115057928E+04  0.00000000000E+00 0.  1.
         23    2    1    2    0    0  0.87872626195E+03 -0.86953957807E+03  0.60469862142E+03  0.13793311053E+04  0.92924453772E+02 0.  0.
         13    1    3    3    0    0  0.72214266034E+03 -0.66142558951E+03  0.47853297428E+03  0.10899392826E+04  0.00000000000E+00 0. -1.
        -13    1    3    3    0    0  0.15658360161E+03 -0.20811398857E+03  0.12616564714E+03  0.28939182271E+03  0.00000000000E+00 0.  1.
         22    1    1    2    0    0 -0.87872626195E+03  0.86953957807E+03 -0.12092264375E+02  0.12362868373E+04  0.00000000000E+00 0.  1.
<mgrwt>
<rscale>  0 0.25476018E+04</rscale>
<asrwt>0</asrwt>
<pdfrwt beam="1">  1        2 0.24678648E+00 0.25476018E+04</pdfrwt>
<pdfrwt beam="2">  1       -2 0.15561628E+00 0.25476018E+04</pdfrwt>
<totfact> 0.26770798E+00</totfact>
</mgrwt>
</event>
<event>
 6    1  0.1588846E-005  0.1184275E+04  0.7818608E-02  0.9126733E-01
         -1   -1    0    0    0  501 -0.00000000000E+00  0.00000000000E+00  0.43472622904E+03  0.43472622904E+03  0.00000000000E+00 0.  1.
          1   -1    0    0  501    0  0.00000000000E+00 -0.00000000000E+00 -0.80654578903E+03  0.80654578903E+03  0.00000000000E+00 0. -1.
         23    2    1    2    0    0  0.30337777421E+03 -0.49660622957E+03 -0.27914152598E+03  0.65199700662E+03  0.92327049037E+02 0.  0.
         13    1    3    3    0    0  0.18650454118E+03 -0.22610279957E+03 -0.16205651824E+03  0.33491601180E+03  0.00000000000E+00 0. -1.
        -13    1    3    3    0    0  0.11687323303E+03 -0.27050343000E+03 -0.11708500774E+03  0.31708099483E+03  0.00000000000E+00 0.  1.
         22    1    1    2    0    0 -0.30337777421E+03  0.49660622957E+03 -0.92678034010E+02  0.58927501145E+03  0.00000000000E+00 0.  1.
<mgrwt>
<rscale>  0 0.11842746E+04</rscale>
<asrwt>0</asrwt>
<pdfrwt beam="1">  1        1 0.12408397E+00 0.11842746E+04</pdfrwt>
<pdfrwt beam="2">  1       -1 0.66880959E-01 0.11842746E+04</pdfrwt>
<totfact> 0.48979894E+01</totfact>
</mgrwt>
</event>
<event>
 6    1  0.1588846E-005  0.8330488E+03  0.7818608E-02  0.9513375E-01
          2   -1    0    0  501    0  0.00000000000E+00  0.00000000000E+00  0.26584979433E+04  0.26584979433E+04  0.00000000000E+00 0. -1.
         -2   -1    0    0    0  501 -0.00000000000E+00 -0.00000000000E+00 -0.65259623982E+02  0.65259623982E+02  0.00000000000E+00 0.  1.
         23    2    1    2    0    0 -0.24180785364E+03  0.32806086208E+03  0.11302087218E+04  0.12050243548E+04  0.92827655616E+02 0.  0.
         13    1    3    3    0    0 -0.19095059607E+03  0.30524730447E+03  0.93211376028E+03  0.99923676329E+03  0.00000000000E+00 0. -1.
        -13    1    3    3    0    0 -0.50857257576E+02  0.22813557610E+02  0.19809496149E+03  0.20578759152E+03  0.00000000000E+00 0.  1.
         22    1    1    2    0    0  0.24180785364E+03 -0.32806086208E+03  0.14630295975E+04  0.15187332124E+04  0.00000000000E+00 0. -1.
<mgrwt>
<rscale>  0 0.83304880E+03</rscale>
<asrwt>0</asrwt>
<pdfrwt beam="1">  1        2 0.40899960E+00 0.83304880E+03</pdfrwt>
<pdfrwt beam="2">  1       -2 0.10039944E-01 0.83304880E+03</pdfrwt>
<totfact> 0.19827281E+02</totfact>
</mgrwt>
</event>
<event>
 6    1  0.1588846E-005  0.1012542E+04  0.7818608E-02  0.9294894E-01
          1   -1    0    0  501    0  0.00000000000E+00  0.00000000000E+00  0.79694140092E+03  0.79694140092E+03  0.00000000000E+00 0. -1.
         -1   -1    0    0    0  501 -0.00000000000E+00 -0.00000000000E+00 -0.32161780846E+03  0.32161780846E+03  0.00000000000E+00 0.  1.
         23    2    1    2    0    0  0.18294870422E+03  0.13485909459E+03 -0.25586308934E+03  0.35286268502E+03  0.85959003162E+02 0.  0.
         11    1    3    3    0    0  0.13841637917E+03  0.60858419839E+02 -0.12558443599E+03  0.19655607813E+03  0.00000000000E+00 0.  1.
        -11    1    3    3    0    0  0.44532325044E+02  0.74000674749E+02 -0.13027865335E+03  0.15630660689E+03  0.00000000000E+00 0. -1.
         22    1    1    2    0    0 -0.18294870422E+03 -0.13485909459E+03  0.73118668181E+03  0.76569652436E+03  0.00000000000E+00 0. -1.
<mgrwt>
<rscale>  0 0.10125424E+04</rscale>
<asrwt>0</asrwt>
<pdfrwt beam="1">  1        1 0.12260637E+00 0.10125424E+04</pdfrwt>
<pdfrwt beam="2">  1       -1 0.49479663E-01 0.10125424E+04</pdfrwt>
<totfact> 0.91227612E+01</totfact>
</mgrwt>
</event>
<event>
 6    1  0.1588846E-005  0.1086130E+04  0.7818608E-02  0.9218817E-01
         -4   -1    0    0    0  501 -0.00000000000E+00  0.00000000000E+00  0.60379834710E+03  0.60379834710E+03  0.00000000000E+00 0.  1.
          4   -1    0    0  501    0  0.00000000000E+00 -0.00000000000E+00 -0.48844025844E+03  0.48844025844E+03  0.00000000000E+00 0. -1.
         23    2    1    2    0    0 -0.47400710876E+03  0.25718579120E+03  0.60315635740E+02  0.55015287249E+03  0.90570065910E+02 0.  0.
         13    1    3    3    0    0 -0.77533142676E+02  0.41063586883E+02  0.44371739774E+02  0.98318145179E+02  0.00000000000E+00 0.  1.
        -13    1    3    3    0    0 -0.39647396609E+03  0.21612220432E+03  0.15943895967E+02  0.45183472731E+03  0.00000000000E+00 0. -1.
         22    1    1    2    0    0  0.47400710876E+03 -0.25718579120E+03  0.55042452916E+02  0.54208573305E+03  0.00000000000E+00 0. -1.
<mgrwt>
<rscale>  0 0.10861297E+04</rscale>
<asrwt>0</asrwt>
<pdfrwt beam="1">  1        4 0.75144655E-01 0.10861297E+04</pdfrwt>
<pdfrwt beam="2">  1       -4 0.92892054E-01 0.10861297E+04</pdfrwt>
<totfact> 0.31077324E+00</totfact>
</mgrwt>
</event>
<event>
 6    1  0.1588846E-005  0.7363225E+04  0.7818608E-02  0.7541093E-01
         -1   -1    0    0    0  501 -0.00000000000E+00  0.00000000000E+00  0.25048017520E+04  0.25048017520E+04  0.00000000000E+00 0.  1.
          1   -1    0    0  501    0  0.00000000000E+00 -0.00000000000E+00 -0.54113140310E+04  0.54113140310E+04  0.00000000000E+00 0. -1.
         23    2    1    2    0    0  0.16304470102E+04 -0.23523022220E+04  0.10351996188E+04  0.30448966458E+04  0.89856197464E+02 0.  0.
         13    1    3    3    0    0  0.80209665121E+03 -0.10785856916E+04  0.48823630700E+03  0.14300632236E+04  0.00000000000E+00 0. -1.
        -13    1    3    3    0    0  0.82835035900E+03 -0.12737165304E+04  0.54696331177E+03  0.16148334222E+04  0.00000000000E+00 0.  1.
         22    1    1    2    0    0 -0.16304470102E+04  0.23523022220E+04 -0.39417118978E+04  0.48712191371E+04  0.00000000000E+00 0. -1.
<mgrwt>
<rscale>  0 0.73632245E+04</rscale>
<asrwt>0</asrwt>
<pdfrwt beam="1">  1        1 0.83250984E+00 0.73632245E+04</pdfrwt>
<pdfrwt beam="2">  1       -1 0.38535412E+00 0.73632245E+04</pdfrwt>
<totfact> 0.11377030E-05</totfact>
</mgrwt>
</event>
<event>
 6    1  0.1588846E-005  0.2267904E+04  0.7818608E-02  0.8490685E-01
          2   -1    0    0  501    0  0.00000000000E+00  0.00000000000E+00  0.23217991755E+04  0.23217991755E+04  0.00000000000E+00 0. -1.
         -2   -1    0    0    0  501 -0.00000000000E+00 -0.00000000000E+00 -0.55381492761E+03  0.55381492761E+03  0.00000000000E+00 0.  1.
         23    2    1    2    0    0  0.52219253702E+03  0.93971900203E+03  0.43570271418E+03  0.11636763316E+04  0.92460267426E+02 0.  0.
         13    1    3    3    0    0  0.40932470453E+03  0.73272964513E+03  0.29797969021E+03  0.89063535882E+03  0.00000000000E+00 0. -1.
        -13    1    3    3    0    0  0.11286783249E+03  0.20698935690E+03  0.13772302397E+03  0.27304097277E+03  0.00000000000E+00 0.  1.
         22    1    1    2    0    0 -0.52219253702E+03 -0.93971900203E+03  0.13322815337E+04  0.17119377715E+04  0.00000000000E+00 0.  1.
<mgrwt>
<rscale>  0 0.22679039E+04</rscale>
<asrwt>0</asrwt>
<pdfrwt beam="1">  1        2 0.35719987E+00 0.22679039E+04</pdfrwt>
<pdfrwt beam="2">  1       -2 0.85202298E-01 0.22679039E+04</pdfrwt>
<totfact> 0.47991631E+00</totfact>
</mgrwt>
</event>
<event>
 6    1  0.1588846E-005  0.2614534E+04  0.7818608E-02  0.8363281E-01
          2   -1    0    0  501    0  0.00000000000E+00  0.00000000000E+00  0.22551978499E+04  0.22551978499E+04  0.00000000000E+00 0.  1.
         -2   -1    0    0    0  501 -0.00000000000E+00 -0.00000000000E+00 -0.75778134265E+03  0.75778134265E+03  0.00000000000E+00 0. -1.
         23    2    1    2    0    0  0.11340068521E+04  0.64378107433E+03  0.67275560821E+03  0.14700951364E+04  0.90299442525E+02 0.  0.
         11    1    3    3    0    0  0.36442964278E+03  0.23356667893E+03  0.18345992204E+03  0.47012753699E+03  0.00000000000E+00 0.  1.
        -11    1    3    3    0    0  0.76957720934E+03  0.41021439540E+03  0.48929568617E+03  0.99996759939E+03  0.00000000000E+00 0. -1.
         22    1    1    2    0    0 -0.11340068521E+04 -0.64378107433E+03  0.82466089900E+03  0.15428840561E+04  0.00000000000E+00 0. -1.
<mgrwt>
<rscale>  0 0.26145339E+04</rscale>
<asrwt>0</asrwt>
<pdfrwt beam="1">  1        2 0.34695351E+00 0.26145339E+04</pdfrwt>
<pdfrwt beam="2">  1       -2 0.11658175E+00 0.26145339E+04</pdfrwt>
<totfact> 0.24213462E+00</totfact>
</mgrwt>
</event>
<event>
 6    1  0.1588846E-005  0.5561111E+04  0.7818608E-02  0.7747336E-01
         -1   -1    0    0    0  501 -0.00000000000E+00  0.00000000000E+00  0.25396261991E+04  0.25396261991E+04  0.00000000000E+00 0.  1.
          1   -1    0    0  501    0  0.00000000000E+00 -0.00000000000E+00 -0.30443416140E+04  0.30443416140E+04  0.00000000000E+00 0. -1.
         23    2    1    2    0    0  0.12846706601E+04 -0.86242234604E+03  0.20663279187E+04  0.25832320981E+04  0.96052053445E+02 0.  0.
         13    1    3    3    0    0  0.34198528080E+03 -0.18023370698E+03  0.50400338014E+03  0.63518306701E+03  0.00000000000E+00 0.  1.
        -13    1    3    3    0    0  0.94268537930E+03 -0.68218863906E+03  0.15623245386E+04  0.19480490310E+04  0.00000000000E+00 0. -1.
         22    1    1    2    0    0 -0.12846706601E+04  0.86242234604E+03 -0.25710433336E+04  0.30007357150E+04  0.00000000000E+00 0. -1.
<mgrwt>
<rscale>  0 0.55611113E+04</rscale>
<asrwt>0</asrwt>
<pdfrwt beam="1">  1        1 0.46836025E+00 0.55611113E+04</pdfrwt>
<pdfrwt beam="2">  1       -1 0.39071172E+00 0.55611113E+04</pdfrwt>
<totfact> 0.31731164E-03</totfact>
</mgrwt>
</event>
<event>
 6    1  0.1588846E-005  0.1718291E+04  0.7818608E-02  0.8751000E-01
          2   -1    0    0  501    0  0.00000000000E+00  0.00000000000E+00  0.41228285680E+04  0.41228285680E+04  0.00000000000E+00 0. -1.
         -2   -1    0    0    0  501 -0.00000000000E+00 -0.00000000000E+00 -0.17903514340E+03  0.17903514340E+03  0.00000000000E+00 0.  1.
         23    2    1    2    0    0  0.52997001836E+03 -0.66748025768E+03  0.21946792686E+04  0.23561508740E+04  0.91824476423E+02 0.  0.
         13    1    3    3    0    0  0.43362230608E+03 -0.48496414125E+03  0.16397950822E+04  0.17641276694E+04  0.00000000000E+00 0.  1.
        -13    1    3    3    0    0  0.96347712276E+02 -0.18251611643E+03  0.55488418641E+03  0.59202320456E+03  0.00000000000E+00 0. -1.
         22    1    1    2    0    0 -0.52997001836E+03  0.66748025768E+03  0.17491141561E+04  0.19457128374E+04  0.00000000000E+00 0. -1.
<mgrwt>
<rscale>  0 0.17182912E+04</rscale>
<asrwt>0</asrwt>
<pdfrwt beam="1">  1        2 0.63428125E+00 0.17182912E+04</pdfrwt>
<pdfrwt beam="2">  1       -2 0.27543871E-01 0.17182912E+04</pdfrwt>
<totfact> 0.31499478E+00</totfact>
</mgrwt>
</event>
<event>
 6    1  0.1588846E-005  0.2611108E+04  0.7818608E-02  0.8364438E-01
         -2   -1    0    0    0  501 -0.00000000000E+00  0.00000000000E+00  0.62729364704E+03  0.62729364704E+03  0.00000000000E+00 0.  1.
          2   -1    0    0  501    0  0.00000000000E+00 -0.00000000000E+00 -0.27171831476E+04  0.27171831476E+04  0.00000000000E+00 0. -1.
         23    2    1    2    0    0  0.11081144484E+04 -0.65105558443E+03 -0.13279326107E+04  0.18503652503E+04  0.93035134405E+02 0.  0.
         11    1    3    3    0    0  0.46493447534E+03 -0.23055346072E+03 -0.49666472183E+03  0.71832778766E+03  0.00000000000E+00 0. -1.
        -11    1    3    3    0    0  0.64317997308E+03 -0.42050212370E+03 -0.83126788889E+03  0.11320374627E+04  0.00000000000E+00 0.  1.
         22    1    1    2    0    0 -0.11081144484E+04  0.65105558443E+03 -0.76195688984E+03  0.14941115443E+04  0.00000000000E+00 0. -1.
<mgrwt>
<rscale>  0 0.26111084E+04</rscale>
<asrwt>0</asrwt>
<pdfrwt beam="1">  1        2 0.41802817E+00 0.26111084E+04</pdfrwt>
<pdfrwt beam="2">  1       -2 0.96506716E-01 0.26111084E+04</pdfrwt>
<totfact> 0.20583699E+00</totfact>
</mgrwt>
</event>
<event>
 6    1  0.1588846E-005  0.1090872E+04  0.7818608E-02  0.9214135E-01
         -2   -1    0    0    0  501 -0.00000000000E+00  0.00000000000E+00  0.50250717321E+03  0.50250717321E+03  0.00000000000E+00 0.  1.
          2   -1    0    0  501    0  0.00000000000E+00 -0.00000000000E+00 -0.59203183467E+03  0.59203183467E+03  0.00000000000E+00 0. -1.
         23    2    1    2    0    0 -0.26078408600E+03  0.33944633221E+03 -0.37820785127E+03  0.57823470223E+03  0.89900167605E+02 0.  0.
         13    1    3    3    0    0 -0.93373957379E+02  0.96279401572E+02 -0.69399099172E+02  0.15101209902E+03  0.00000000000E+00 0. -1.
        -13    1    3    3    0    0 -0.16741012862E+03  0.24316693064E+03 -0.30880875210E+03  0.42722260321E+03  0.00000000000E+00 0.  1.
         22    1    1    2    0    0  0.26078408600E+03 -0.33944633221E+03  0.28868318981E+03  0.51630430566E+03  0.00000000000E+00 0.  1.
<mgrwt>
<rscale>  0 0.10908717E+04</rscale>
<asrwt>0</asrwt>
<pdfrwt beam="1">  1        2 0.91081820E-01 0.10908717E+04</pdfrwt>
<pdfrwt beam="2">  1       -2 0.77308796E-01 0.10908717E+04</pdfrwt>
<totfact> 0.74784722E+01</totfact>
</mgrwt>
</event>
<event>
 6    1  0.1588846E-005  0.3430727E+04  0.7818608E-02  0.8130406E-01
         -1   -1    0    0    0  501 -0.00000000000E+00  0.00000000000E+00  0.11191655691E+04  0.11191655691E+04  0.00000000000E+00 0.  1.
          1   -1    0    0  501    0  0.00000000000E+00 -0.00000000000E+00 -0.26291653173E+04  0.26291653173E+04  0.00000000000E+00 0. -1.
         23    2    1    2    0    0  0.45645092184E+03 -0.13890170183E+04  0.22202577882E+03  0.14816972266E+04  0.91736054340E+02 0.  0.
         11    1    3    3    0    0  0.33341459335E+03 -0.87347735518E+03  0.14055843699E+03  0.94545473465E+03  0.00000000000E+00 0.  1.
        -11    1    3    3    0    0  0.12303632849E+03 -0.51553966316E+03  0.81467341828E+02  0.53624249198E+03  0.00000000000E+00 0. -1.
         22    1    1    2    0    0 -0.45645092184E+03  0.13890170183E+04 -0.17320255271E+04  0.22666336598E+04  0.00000000000E+00 0. -1.
<mgrwt>
<rscale>  0 0.34307266E+04</rscale>
<asrwt>0</asrwt>
<pdfrwt beam="1">  1        1 0.40448697E+00 0.34307266E+04</pdfrwt>
<pdfrwt beam="2">  1       -1 0.17217932E+00 0.34307266E+04</pdfrwt>
<totfact> 0.21416229E-01</totfact>
</mgrwt>
</event>
<event>
 6    1  0.1588846E-005  0.2748188E+04  0.7818608E-02  0.8319537E-01
         -2   -1    0    0    0  501 -0.00000000000E+00  0.00000000000E+00  0.56799488214E+03  0.56799488214E+03  0.00000000000E+00 0.  1.
          2   -1    0    0  501    0  0.00000000000E+00 -0.00000000000E+00 -0.33242111514E+04  0.33242111514E+04  0.00000000000E+00 0. -1.
         23    2    1    2    0    0 -0.13152526099E+04 -0.38454791397E+03 -0.14586543735E+04  0.20050299953E+04  0.12126901771E+03 0.  0.
         11    1    3    3    0    0 -0.52457054747E+03 -0.19200163842E+03 -0.66233214346E+03  0.86644258707E+03  0.00000000000E+00 0. -1.
        -11    1    3    3    0    0 -0.79068206244E+03 -0.19254627555E+03 -0.79632223002E+03  0.11385874082E+04  0.00000000000E+00 0.  1.
         22    1    1    2    0    0  0.13152526099E+04  0.38454791397E+03 -0.12975618957E+04  0.18871760382E+04  0.00000000000E+00 0. -1.
<mgrwt>
<rscale>  0 0.27481884E+04</rscale>
<asrwt>0</asrwt>
<pdfrwt beam="1">  1        2 0.51141710E+00 0.27481884E+04</pdfrwt>
<pdfrwt beam="2">  1       -2 0.87383828E-01 0.27481884E+04</pdfrwt>
<totfact> 0.10603823E+00</totfact>
</mgrwt>
</event>
<event>
 6    1  0.1588846E-005  0.1674774E+04  0.7818608E-02  0.8775884E-01
          2   -1    0    0  501    0  0.00000000000E+00  0.00000000000E+00  0.31152289614E+04  0.31152289614E+04  0.00000000000E+00 0. -1.
         -2   -1    0    0    0  501 -0.00000000000E+00 -0.00000000000E+00 -0.22509320387E+03  0.22509320387E+03  0.00000000000E+00 0.  1.
         23    2    1    2    0    0 -0.78613320279E+03  0.26375696910E+03  0.16416885656E+04  0.18415915215E+04  0.93513820624E+02 0.  0.
         13    1    3    3    0    0 -0.20816165195E+03  0.36357492067E+02  0.47487844507E+03  0.51977175584E+03  0.00000000000E+00 0.  1.
        -13    1    3    3    0    0 -0.57797155084E+03  0.22739947703E+03  0.11668101205E+04  0.13218197657E+04  0.00000000000E+00 0. -1.
         22    1    1    2    0    0  0.78613320279E+03 -0.26375696910E+03  0.12484471919E+04  0.14987306437E+04  0.00000000000E+00 0. -1.
<mgrwt>
<rscale>  0 0.16747739E+04</rscale>
<asrwt>0</asrwt>
<pdfrwt beam="1">  1        2 0.47926596E+00 0.16747739E+04</pdfrwt>
<pdfrwt beam="2">  1       -2 0.34629726E-01 0.16747739E+04</pdfrwt>
<totfact> 0.11036003E+01</totfact>
</mgrwt>
</event>
<event>
 6    1  0.1588846E-005  0.8666910E+03  0.7818608E-02  0.9468205E-01
         -2   -1    0    0    0  501 -0.00000000000E+00  0.00000000000E+00  0.11067771734E+03  0.11067771734E+03  0.00000000000E+00 0.  1.
          2   -1    0    0  501    0  0.00000000000E+00 -0.00000000000E+00 -0.16967129497E+04  0.16967129497E+04  0.00000000000E+00 0. -1.
         23    2    1    2    0    0 -0.38402727733E+03  0.30532208627E+02 -0.11934054583E+04  0.12573294841E+04  0.90838748252E+02 0.  0.
         11    1    3    3    0    0 -0.18649051990E+03  0.59713352098E+02 -0.61560840394E+03  0.64600162959E+03  0.00000000000E+00 0. -1.
        -11    1    3    3    0    0 -0.19753675742E+03 -0.29181143471E+02 -0.57779705439E+03  0.61132785453E+03  0.00000000000E+00 0.  1.
         22    1    1    2    0    0  0.38402727733E+03 -0.30532208627E+02 -0.39262977407E+03  0.55006118295E+03  0.00000000000E+00 0.  1.
<mgrwt>
<rscale>  0 0.86669099E+03</rscale>
<asrwt>0</asrwt>
<pdfrwt beam="1">  1        2 0.26103276E+00 0.86669099E+03</pdfrwt>
<pdfrwt beam="2">  1       -2 0.17027341E-01 0.86669099E+03</pdfrwt>
<totfact> 0.28038455E+02</totfact>
</mgrwt>
</event>
<event>
 6    1  0.1588846E-005  0.2151921E+04  0.7818608E-02  0.8538710E-01
          2   -1    0    0  501    0  0.00000000000E+00  0.00000000000E+00  0.14203997117E+04  0.14203997117E+04  0.00000000000E+00 0. -1.
         -2   -1    0    0    0  501 -0.00000000000E+00 -0.00000000000E+00 -0.81504612573E+03  0.81504612573E+03  0.00000000000E+00 0.  1.
         23    2    1    2    0    0 -0.71187692771E+03  0.64799676758E+03 -0.19137982763E+03  0.98586482630E+03  0.92922797668E+02 0.  0.
         11    1    3    3    0    0 -0.50338154112E+03  0.45227377904E+03 -0.17726733366E+03  0.69954860784E+03  0.00000000000E+00 0.  1.
        -11    1    3    3    0    0 -0.20849538659E+03  0.19572298854E+03 -0.14112493977E+02  0.28631621847E+03  0.00000000000E+00 0. -1.
         22    1    1    2    0    0  0.71187692771E+03 -0.64799676758E+03  0.79673341356E+03  0.12495810111E+04  0.00000000000E+00 0. -1.
<mgrwt>
<rscale>  0 0.21519213E+04</rscale>
<asrwt>0</asrwt>
<pdfrwt beam="1">  1        2 0.21852303E+00 0.21519213E+04</pdfrwt>
<pdfrwt beam="2">  1       -2 0.12539171E+00 0.21519213E+04</pdfrwt>
<totfact> 0.61507534E+00</totfact>
</mgrwt>
</event>
<event>
 6    1  0.1588846E-005  0.2063182E+04  0.7818608E-02  0.8577637E-01
         -2   -1    0    0    0  501 -0.00000000000E+00  0.00000000000E+00  0.13626456689E+04  0.13626456689E+04  0.00000000000E+00 0.  1.
          2   -1    0    0  501    0  0.00000000000E+00 -0.00000000000E+00 -0.78096636497E+03  0.78096636497E+03  0.00000000000E+00 0. -1.
         23    2    1    2    0    0 -0.32631063123E+03  0.57084163135E+03  0.11146478502E+04  0.12972112614E+04  0.89322061151E+02 0.  0.
         11    1    3    3    0    0 -0.42656115496E+02  0.12894012208E+03  0.27851133787E+03  0.30986071805E+03  0.00000000000E+00 0. -1.
        -11    1    3    3    0    0 -0.28365451573E+03  0.44190150928E+03  0.83613651237E+03  0.98735054338E+03  0.00000000000E+00 0.  1.
         22    1    1    2    0    0  0.32631063123E+03 -0.57084163135E+03 -0.53296854635E+03  0.84640077241E+03  0.00000000000E+00 0. -1.
<mgrwt>
<rscale>  0 0.20631824E+04</rscale>
<asrwt>0</asrwt>
<pdfrwt beam="1">  1        2 0.12014867E+00 0.20631824E+04</pdfrwt>
<pdfrwt beam="2">  1       -2 0.20963780E+00 0.20631824E+04</pdfrwt>
<totfact> 0.37826155E+00</totfact>
</mgrwt>
</event>
<event>
 6    1  0.1588846E-005  0.4299143E+04  0.7818608E-02  0.7946777E-01
         -1   -1    0    0    0  501 -0.00000000000E+00  0.00000000000E+00  0.27920858501E+04  0.27920858501E+04  0.00000000000E+00 0.  1.
          1   -1    0    0  501    0  0.00000000000E+00 -0.00000000000E+00 -0.16549124911E+04  0.16549124911E+04  0.00000000000E+00 0. -1.
         23    2    1    2    0    0 -0.73286103849E+03  0.48410237055E+03  0.25971992951E+04  0.27431450198E+04  0.89218911075E+02 0.  0.
         13    1    3    3    0    0 -0.43040235312E+03  0.28118492113E+03  0.13815984503E+04  0.14741524423E+04  0.00000000000E+00 0.  1.
        -13    1    3    3    0    0 -0.30245868538E+03  0.20291744942E+03  0.12156008449E+04  0.12689925775E+04  0.00000000000E+00 0. -1.
         22    1    1    2    0    0  0.73286103849E+03 -0.48410237055E+03 -0.14600259361E+04  0.17038533214E+04  0.00000000000E+00 0. -1.
<mgrwt>
<rscale>  0 0.42991431E+04</rscale>
<asrwt>0</asrwt>
<pdfrwt beam="1">  1        1 0.25460192E+00 0.42991431E+04</pdfrwt>
<pdfrwt beam="2">  1       -1 0.42955167E+00 0.42991431E+04</pdfrwt>
<totfact> 0.17505369E-02</totfact>
</mgrwt>
</event>
<event>
 6    1  0.1588846E-005  0.2726805E+04  0.7818608E-02  0.8326360E-01
          1   -1    0    0  501    0  0.00000000000E+00  0.00000000000E+00  0.30724309099E+04  0.30724309099E+04  0.00000000000E+00 0. -1.
         -1   -1    0    0    0  501 -0.00000000000E+00 -0.00000000000E+00 -0.60501466829E+03  0.60501466829E+03  0.00000000000E+00 0.  1.
         23    2    1    2    0    0 -0.13581477751E+04  0.80195690812E+02  0.11531173543E+04  0.17857853833E+04  0.91395157008E+02 0.  0.
         13    1    3    3    0    0 -0.29144682985E+03  0.52945984239E+02  0.26650522887E+03  0.39845899273E+03  0.00000000000E+00 0. -1.
        -13    1    3    3    0    0 -0.10667009452E+04  0.27249706573E+02  0.88661212542E+03  0.13873263906E+04  0.00000000000E+00 0.  1.
         22    1    1    2    0    0  0.13581477751E+04 -0.80195690812E+02  0.13142988874E+04  0.18916601949E+04  0.00000000000E+00 0. -1.
<mgrwt>
<rscale>  0 0.27268046E+04</rscale>
<asrwt>0</asrwt>
<pdfrwt beam="1">  1        1 0.47268167E+00 0.27268046E+04</pdfrwt>
<pdfrwt beam="2">  1       -1 0.93079182E-01 0.27268046E+04</pdfrwt>
<totfact> 0.51622062E-01</totfact>
</mgrwt>
</event>
<event>
 6    1  0.1588846E-005  0.1106260E+04  0.7818608E-02  0.9199112E-01
         -1   -1    0    0    0  501 -0.00000000000E+00  0.00000000000E+00  0.21621809529E+03  0.21621809529E+03  0.00000000000E+00 0.  1.
          1   -1    0    0  501    0  0.00000000000E+00 -0.00000000000E+00 -0.14150183467E+04  0.14150183467E+04  0.00000000000E+00 0. -1.
         23    2    1    2    0    0  0.13133085447E+03  0.26223764757E+03 -0.12884687175E+04  0.13245496133E+04  0.90904702390E+02 0.  0.
         11    1    3    3    0    0  0.12643351852E+03  0.21478503668E+03 -0.11803168404E+04  0.12063440182E+04  0.00000000000E+00 0.  1.
        -11    1    3    3    0    0  0.48973359563E+01  0.47452610895E+02 -0.10815187708E+03  0.11820559503E+03  0.00000000000E+00 0. -1.
         22    1    1    2    0    0 -0.13133085447E+03 -0.26223764757E+03  0.89668466036E+02  0.30668682877E+03  0.00000000000E+00 0.  1.
<mgrwt>
<rscale>  0 0.11062596E+04</rscale>
<asrwt>0</asrwt>
<pdfrwt beam="1">  1        1 0.21769512E+00 0.11062596E+04</pdfrwt>
<pdfrwt beam="2">  1       -1 0.33264323E-01 0.11062596E+04</pdfrwt>
<totfact> 0.63448516E+01</totfact>
</mgrwt>
</event>
<event>
 6    1  0.1588846E-005  0.2204979E+04  0.7818608E-02  0.8516359E-01
          2   -1    0    0  501    0  0.00000000000E+00  0.00000000000E+00  0.12757057336E+04  0.12757057336E+04  0.00000000000E+00 0. -1.
         -2   -1    0    0    0  501 -0.00000000000E+00 -0.00000000000E+00 -0.95279237524E+03  0.95279237524E+03  0.00000000000E+00 0.  1.
         23    2    1    2    0    0 -0.57810283120E+03  0.80641870901E+03 -0.31950802751E+03  0.10464578157E+04  0.92057387724E+02 0.  0.
         13    1    3    3    0    0 -0.51867070964E+03  0.73186959449E+03 -0.31598869996E+03  0.95105271509E+03  0.00000000000E+00 0.  1.
        -13    1    3    3    0    0 -0.59432121561E+02  0.74549114519E+02 -0.35193275504E+01  0.95405100572E+02  0.00000000000E+00 0. -1.
         22    1    1    2    0    0  0.57810283120E+03 -0.80641870901E+03  0.64242138589E+03  0.11820402932E+04  0.00000000000E+00 0. -1.
<mgrwt>
<rscale>  0 0.22049786E+04</rscale>
<asrwt>0</asrwt>
<pdfrwt beam="1">  1        2 0.19626242E+00 0.22049786E+04</pdfrwt>
<pdfrwt beam="2">  1       -2 0.14658344E+00 0.22049786E+04</pdfrwt>
<totfact> 0.49706463E+00</totfact>
</mgrwt>
</event>
<event>
 6    1  0.1588846E-005  0.2652451E+04  0.7818608E-02  0.8350600E-01
         -2   -1    0    0    0  501 -0.00000000000E+00  0.00000000000E+00  0.40794579006E+03  0.40794579006E+03  0.00000000000E+00 0. -1.
          2   -1    0    0  501    0  0.00000000000E+00 -0.00000000000E+00 -0.43115383523E+04  0.43115383523E+04  0.00000000000E+00 0.  1.
         23    2    1    2    0    0  0.62583839607E+03  0.44642742708E+03 -0.36239201273E+02  0.77646586137E+03  0.10302819287E+03 0.  0.
         11    1    3    3    0    0  0.35249623581E+03  0.30653297056E+03  0.11464483565E+01  0.46713742372E+03  0.00000000000E+00 0. -1.
        -11    1    3    3    0    0  0.27334216026E+03  0.13989445652E+03 -0.37385649629E+02  0.30932843765E+03  0.00000000000E+00 0.  1.
         22    1    1    2    0    0 -0.62583839607E+03 -0.44642742708E+03 -0.38673533609E+04  0.39430182809E+04  0.00000000000E+00 0.  1.
<mgrwt>
<rscale>  0 0.26524509E+04</rscale>
<asrwt>0</asrwt>
<pdfrwt beam="1">  1        2 0.66331357E+00 0.26524509E+04</pdfrwt>
<pdfrwt beam="2">  1       -2 0.62760893E-01 0.26524509E+04</pdfrwt>
<totfact> 0.38495051E-01</totfact>
</mgrwt>
</event>
<event>
 6    1  0.1588846E-005  0.9078418E+03  0.7818608E-02  0.9415832E-01
          1   -1    0    0  501    0  0.00000000000E+00  0.00000000000E+00  0.56714324387E+03  0.56714324387E+03  0.00000000000E+00 0. -1.
         -1   -1    0    0    0  501 -0.00000000000E+00 -0.00000000000E+00 -0.36330186373E+03  0.36330186373E+03  0.00000000000E+00 0.  1.
         23    2    1    2    0    0 -0.11659736265E+03  0.36504119454E+03  0.34307972028E+03  0.52272297911E+03  0.93196565050E+02 0.  0.
         11    1    3    3    0    0 -0.10600340545E+03  0.22042076581E+03  0.17504482740E+03  0.30077022387E+03  0.00000000000E+00 0.  1.
        -11    1    3    3    0    0 -0.10593957204E+02  0.14462042873E+03  0.16803489288E+03  0.22195275525E+03  0.00000000000E+00 0. -1.
         22    1    1    2    0    0  0.11659736265E+03 -0.36504119454E+03 -0.13923834015E+03  0.40772212848E+03  0.00000000000E+00 0.  1.
<mgrwt>
<rscale>  0 0.90784183E+03</rscale>
<asrwt>0</asrwt>
<pdfrwt beam="1">  1        1 0.87252807E-01 0.90784183E+03</pdfrwt>
<pdfrwt beam="2">  1       -1 0.55892594E-01 0.90784183E+03</pdfrwt>
<totfact> 0.12114751E+02</totfact>
</mgrwt>
</event>
<event>
 6    1  0.1922108E-005  0.3757207E+04  0.7818608E-02  0.8055401E-01
          1   -1    0    0  501    0  0.00000000000E+00  0.00000000000E+00  0.18086154143E+04  0.18086154143E+04  0.00000000000E+00 0. -1.
         -1   -1    0    0    0  501 -0.00000000000E+00 -0.00000000000E+00 -0.19512999017E+04  0.19512999017E+04  0.00000000000E+00 0.  1.
         23    2    1    2    0    0 -0.13929233118E+04 -0.11029863653E+04  0.53589282477E+03  0.18580001120E+04  0.90382640705E+02 0.  0.
         11    1    3    3    0    0 -0.41353277614E+03 -0.38099167534E+03  0.17136163688E+03  0.58781699891E+03  0.00000000000E+00 0.  1.
        -11    1    3    3    0    0 -0.97939053569E+03 -0.72199469000E+03  0.36453118790E+03  0.12701831131E+04  0.00000000000E+00 0. -1.
         22    1    1    2    0    0  0.13929233118E+04  0.11029863653E+04 -0.67857731210E+03  0.19019152040E+04  0.00000000000E+00 0.  1.
<mgrwt>
<rscale>  0 0.37572070E+04</rscale>
<asrwt>0</asrwt>
<pdfrwt beam="1">  1        1 0.27824853E+00 0.37572070E+04</pdfrwt>
<pdfrwt beam="2">  1       -1 0.30019998E+00 0.37572070E+04</pdfrwt>
<totfact> 0.10567214E-01</totfact>
</mgrwt>
</event>
<event>
 6    1  0.1588846E-005  0.2292424E+04  0.7818608E-02  0.8480914E-01
          2   -1    0    0  501    0  0.00000000000E+00  0.00000000000E+00  0.11626615382E+04  0.11626615382E+04  0.00000000000E+00 0. -1.
         -2   -1    0    0    0  501 -0.00000000000E+00 -0.00000000000E+00 -0.11299951750E+04  0.11299951750E+04  0.00000000000E+00 0.  1.
         23    2    1    2    0    0 -0.60036609224E+03 -0.93646570093E+03 -0.25281402880E+03  0.11442201638E+04  0.88979752425E+02 0.  0.
         13    1    3    3    0    0 -0.55297720213E+03 -0.88535117470E+03 -0.21827896054E+03  0.10664315230E+04  0.00000000000E+00 0. -1.
        -13    1    3    3    0    0 -0.47388890111E+02 -0.51114526233E+02 -0.34535068267E+02  0.77788640804E+02  0.00000000000E+00 0.  1.
         22    1    1    2    0    0  0.60036609224E+03  0.93646570093E+03  0.28548039207E+03  0.11484365494E+04  0.00000000000E+00 0.  1.
<mgrwt>
<rscale>  0 0.22924240E+04</rscale>
<asrwt>0</asrwt>
<pdfrwt beam="1">  1        2 0.17887101E+00 0.22924240E+04</pdfrwt>
<pdfrwt beam="2">  1       -2 0.17384541E+00 0.22924240E+04</pdfrwt>
<totfact> 0.36224054E+00</totfact>
</mgrwt>
</event>
<event>
 6    1  0.1588846E-005  0.3531185E+04  0.7818608E-02  0.8106439E-01
          2   -1    0    0  501    0  0.00000000000E+00  0.00000000000E+00  0.18906905128E+04  0.18906905128E+04  0.00000000000E+00 0.  1.
         -2   -1    0    0    0  501 -0.00000000000E+00 -0.00000000000E+00 -0.16487715269E+04  0.16487715269E+04  0.00000000000E+00 0. -1.
         23    2    1    2    0    0 -0.29559280860E+03 -0.15588889668E+04  0.89460346693E+03  0.18237968768E+04  0.91704773046E+02 0.  0.
         13    1    3    3    0    0 -0.14301562272E+03 -0.88979599374E+03  0.46439201480E+03  0.10138295331E+04  0.00000000000E+00 0. -1.
        -13    1    3    3    0    0 -0.15257718588E+03 -0.66909297306E+03  0.43021145213E+03  0.80996734365E+03  0.00000000000E+00 0.  1.
         22    1    1    2    0    0  0.29559280860E+03  0.15588889668E+04 -0.65268448110E+03  0.17156651629E+04  0.00000000000E+00 0.  1.
<mgrwt>
<rscale>  0 0.35311849E+04</rscale>
<asrwt>0</asrwt>
<pdfrwt beam="1">  1        2 0.29087546E+00 0.35311849E+04</pdfrwt>
<pdfrwt beam="2">  1       -2 0.25365716E+00 0.35311849E+04</pdfrwt>
<totfact> 0.38433755E-01</totfact>
</mgrwt>
</event>
<event>
 6    1  0.1588846E-005  0.9296648E+03  0.7818608E-02  0.9389240E-01
         -2   -1    0    0    0  501 -0.00000000000E+00  0.00000000000E+00  0.30485279889E+03  0.30485279889E+03  0.00000000000E+00 0.  1.
          2   -1    0    0  501    0  0.00000000000E+00 -0.00000000000E+00 -0.70876553276E+03  0.70876553276E+03  0.00000000000E+00 0. -1.
         23    2    1    2    0    0  0.18706497510E+03  0.32204536266E+03  0.90862472931E+02  0.39433727609E+03  0.92408753926E+02 0.  0.
         11    1    3    3    0    0  0.11998899414E+03  0.14148743243E+03  0.78147735174E+02  0.20130355378E+03  0.00000000000E+00 0.  1.
        -11    1    3    3    0    0  0.67075980951E+02  0.18055793023E+03  0.12714737757E+02  0.19303372230E+03  0.00000000000E+00 0. -1.
         22    1    1    2    0    0 -0.18706497510E+03 -0.32204536266E+03 -0.49477520680E+03  0.61928105557E+03  0.00000000000E+00 0. -1.
<mgrwt>
<rscale>  0 0.92966479E+03</rscale>
<asrwt>0</asrwt>
<pdfrwt beam="1">  1        2 0.10904085E+00 0.92966479E+03</pdfrwt>
<pdfrwt beam="2">  1       -2 0.46900431E-01 0.92966479E+03</pdfrwt>
<totfact> 0.17409409E+02</totfact>
</mgrwt>
</event>
<event>
 6    1  0.1588846E-005  0.3338406E+04  0.7818608E-02  0.8153191E-01
          2   -1    0    0  501    0  0.00000000000E+00  0.00000000000E+00  0.32340764705E+04  0.32340764705E+04  0.00000000000E+00 0.  1.
         -2   -1    0    0    0  501 -0.00000000000E+00 -0.00000000000E+00 -0.86152539906E+03  0.86152539906E+03  0.00000000000E+00 0. -1.
         23    2    1    2    0    0  0.14688943429E+04 -0.37703370584E+03  0.20391589360E+04  0.25428767420E+04  0.90818239531E+02 0.  0.
         11    1    3    3    0    0  0.10252569947E+04 -0.22982382919E+03  0.13659948651E+04  0.17233435145E+04  0.00000000000E+00 0. -1.
        -11    1    3    3    0    0  0.44363734821E+03 -0.14720987664E+03  0.67316407093E+03  0.81953322745E+03  0.00000000000E+00 0.  1.
         22    1    1    2    0    0 -0.14688943429E+04  0.37703370584E+03  0.33339213537E+03  0.15527251276E+04  0.00000000000E+00 0. -1.
<mgrwt>
<rscale>  0 0.33384062E+04</rscale>
<asrwt>0</asrwt>
<pdfrwt beam="1">  1        2 0.49755022E+00 0.33384062E+04</pdfrwt>
<pdfrwt beam="2">  1       -2 0.13254237E+00 0.33384062E+04</pdfrwt>
<totfact> 0.42356717E-01</totfact>
</mgrwt>
</event>
<event>
 6    1  0.1588846E-005  0.7722577E+03  0.7818608E-02  0.9601064E-01
         -3   -1    0    0    0  501 -0.00000000000E+00  0.00000000000E+00  0.70742233033E+03  0.70742233033E+03  0.00000000000E+00 0.  1.
          3   -1    0    0  501    0  0.00000000000E+00 -0.00000000000E+00 -0.21075883087E+03  0.21075883087E+03  0.00000000000E+00 0. -1.
         23    2    1    2    0    0 -0.10389223708E+03  0.22706519924E+02  0.68648054394E+03  0.70060429352E+03  0.91003603860E+02 0.  0.
         13    1    3    3    0    0 -0.22281378241E+02  0.35808768741E+02  0.10302880829E+03  0.11132682998E+03  0.00000000000E+00 0. -1.
        -13    1    3    3    0    0 -0.81610858839E+02 -0.13102248818E+02  0.58345173565E+03  0.58927746354E+03  0.00000000000E+00 0.  1.
         22    1    1    2    0    0  0.10389223708E+03 -0.22706519924E+02 -0.18981704448E+03  0.21757686768E+03  0.00000000000E+00 0. -1.
<mgrwt>
<rscale>  0 0.77225774E+03</rscale>
<asrwt>0</asrwt>
<pdfrwt beam="1">  1        3 0.32424436E-01 0.77225774E+03</pdfrwt>
<pdfrwt beam="2">  1       -3 0.10883420E+00 0.77225774E+03</pdfrwt>
<totfact> 0.17624050E+01</totfact>
</mgrwt>
</event>
<event>
 6    1  0.1588846E-005  0.1202713E+04  0.7818608E-02  0.9110485E-01
         -2   -1    0    0    0  501 -0.00000000000E+00  0.00000000000E+00  0.85951524404E+03  0.85951524404E+03  0.00000000000E+00 0.  1.
          2   -1    0    0  501    0  0.00000000000E+00 -0.00000000000E+00 -0.42073705567E+03  0.42073705567E+03  0.00000000000E+00 0. -1.
         23    2    1    2    0    0  0.62213576779E+02 -0.31234059898E+03  0.75940476376E+03  0.82833573688E+03  0.89539482191E+02 0.  0.
         13    1    3    3    0    0  0.69851707111E+02 -0.14728160299E+03  0.42880500413E+03  0.45874269818E+03  0.00000000000E+00 0.  1.
        -13    1    3    3    0    0 -0.76381303317E+01 -0.16505899598E+03  0.33059975963E+03  0.36959303870E+03  0.00000000000E+00 0. -1.
         22    1    1    2    0    0 -0.62213576779E+02  0.31234059898E+03 -0.32062657540E+03  0.45191656283E+03  0.00000000000E+00 0. -1.
<mgrwt>
<rscale>  0 0.12027135E+04</rscale>
<asrwt>0</asrwt>
<pdfrwt beam="1">  1        2 0.64728778E-01 0.12027135E+04</pdfrwt>
<pdfrwt beam="2">  1       -2 0.13223311E+00 0.12027135E+04</pdfrwt>
<totfact> 0.30791774E+01</totfact>
</mgrwt>
</event>
<event>
 6    1  0.1588846E-005  0.1662175E+04  0.7818608E-02  0.8783236E-01
          1   -1    0    0  501    0  0.00000000000E+00  0.00000000000E+00  0.10057883529E+04  0.10057883529E+04  0.00000000000E+00 0. -1.
         -1   -1    0    0    0  501 -0.00000000000E+00 -0.00000000000E+00 -0.68673130282E+03  0.68673130282E+03  0.00000000000E+00 0.  1.
         23    2    1    2    0    0  0.62441354517E+02  0.15222910474E+03 -0.66692419843E+03  0.69290390679E+03  0.90858761335E+02 0.  0.
         11    1    3    3    0    0  0.67081380377E+02  0.10574481901E+03 -0.58802933942E+03  0.60121575358E+03  0.00000000000E+00 0. -1.
        -11    1    3    3    0    0 -0.46400258598E+01  0.46484285735E+02 -0.78894859011E+02  0.91688153207E+02  0.00000000000E+00 0.  1.
         22    1    1    2    0    0 -0.62441354517E+02 -0.15222910474E+03  0.98598124854E+03  0.99961574895E+03  0.00000000000E+00 0. -1.
<mgrwt>
<rscale>  0 0.16621749E+04</rscale>
<asrwt>0</asrwt>
<pdfrwt beam="1">  1        1 0.15473667E+00 0.16621749E+04</pdfrwt>
<pdfrwt beam="2">  1       -1 0.10565097E+00 0.16621749E+04</pdfrwt>
<totfact> 0.11998098E+01</totfact>
</mgrwt>
</event>
<event>
 6    1  0.1588846E-005  0.2533998E+04  0.7818608E-02  0.8390973E-01
         -1   -1    0    0    0  501 -0.00000000000E+00  0.00000000000E+00  0.83170837779E+03  0.83170837779E+03  0.00000000000E+00 0.  1.
          1   -1    0    0  501    0  0.00000000000E+00 -0.00000000000E+00 -0.19301075188E+04  0.19301075188E+04  0.00000000000E+00 0. -1.
         23    2    1    2    0    0 -0.46445342409E+03 -0.39130464633E+03 -0.17598166897E+04  0.18638685245E+04  0.90635456584E+02 0.  0.
         13    1    3    3    0    0 -0.41440882704E+03 -0.33920852446E+03 -0.14498242715E+04  0.15455702886E+04  0.00000000000E+00 0. -1.
        -13    1    3    3    0    0 -0.50044597053E+02 -0.52096121874E+02 -0.30999241819E+03  0.31829823585E+03  0.00000000000E+00 0.  1.
         22    1    1    2    0    0  0.46445342409E+03  0.39130464633E+03  0.66141754865E+03  0.89794737210E+03  0.00000000000E+00 0.  1.
<mgrwt>
<rscale>  0 0.25339981E+04</rscale>
<asrwt>0</asrwt>
<pdfrwt beam="1">  1        1 0.29693962E+00 0.25339981E+04</pdfrwt>
<pdfrwt beam="2">  1       -1 0.12795514E+00 0.25339981E+04</pdfrwt>
<totfact> 0.15539101E+00</totfact>
</mgrwt>
</event>
<event>
 6    1  0.1588846E-005  0.1432537E+04  0.7818608E-02  0.8930598E-01
          2   -1    0    0  501    0  0.00000000000E+00  0.00000000000E+00  0.19329519903E+04  0.19329519903E+04  0.00000000000E+00 0. -1.
         -2   -1    0    0    0  501 -0.00000000000E+00 -0.00000000000E+00 -0.26541815829E+03  0.26541815829E+03  0.00000000000E+00 0.  1.
         23    2    1    2    0    0  0.36318644260E+03 -0.53143339260E+03  0.36530532046E+03  0.74574323875E+03  0.91428431765E+02 0.  0.
         11    1    3    3    0    0  0.21379470610E+03 -0.26072560070E+03  0.15038026754E+03  0.36918862399E+03  0.00000000000E+00 0. -1.
        -11    1    3    3    0    0  0.14939173650E+03 -0.27070779190E+03  0.21492505292E+03  0.37655461477E+03  0.00000000000E+00 0.  1.
         22    1    1    2    0    0 -0.36318644260E+03  0.53143339260E+03  0.13022285115E+04  0.14526269098E+04  0.00000000000E+00 0. -1.
<mgrwt>
<rscale>  0 0.14325370E+04</rscale>
<asrwt>0</asrwt>
<pdfrwt beam="1">  1        2 0.29737722E+00 0.14325370E+04</pdfrwt>
<pdfrwt beam="2">  1       -2 0.40833564E-01 0.14325370E+04</pdfrwt>
<totfact> 0.40161612E+01</totfact>
</mgrwt>
</event>
<event>
 6    1  0.1588846E-005  0.1555853E+04  0.7818608E-02  0.8848138E-01
         -2   -1    0    0    0  501 -0.00000000000E+00  0.00000000000E+00  0.20908238115E+03  0.20908238115E+03  0.00000000000E+00 0. -1.
          2   -1    0    0  501    0  0.00000000000E+00 -0.00000000000E+00 -0.28944072750E+04  0.28944072750E+04  0.00000000000E+00 0.  1.
         23    2    1    2    0    0  0.28760569360E+03 -0.57546129380E+03 -0.48433539733E+03  0.81040712397E+03  0.91138322424E+02 0.  0.
         13    1    3    3    0    0  0.24554063734E+03 -0.51654192023E+03 -0.39337391611E+03  0.69415329562E+03  0.00000000000E+00 0. -1.
        -13    1    3    3    0    0  0.42065056259E+02 -0.58919373571E+02 -0.90961481220E+02  0.11625382835E+03  0.00000000000E+00 0.  1.
         22    1    1    2    0    0 -0.28760569360E+03  0.57546129380E+03 -0.22009894965E+04  0.22930825322E+04  0.00000000000E+00 0.  1.
<mgrwt>
<rscale>  0 0.15558529E+04</rscale>
<asrwt>0</asrwt>
<pdfrwt beam="1">  1        2 0.44529341E+00 0.15558529E+04</pdfrwt>
<pdfrwt beam="2">  1       -2 0.32166522E-01 0.15558529E+04</pdfrwt>
<totfact> 0.17623202E+01</totfact>
</mgrwt>
</event>
<event>
 6    1  0.1588846E-005  0.1033853E+04  0.7818608E-02  0.9272175E-01
          1   -1    0    0  501    0  0.00000000000E+00  0.00000000000E+00  0.44455648883E+03  0.44455648883E+03  0.00000000000E+00 0. -1.
         -1   -1    0    0    0  501 -0.00000000000E+00 -0.00000000000E+00 -0.60107810479E+03  0.60107810479E+03  0.00000000000E+00 0.  1.
         23    2    1    2    0    0  0.37748261689E+03  0.27180098150E+03  0.14067430452E+03  0.49364336657E+03  0.86750295759E+02 0.  0.
         13    1    3    3    0    0  0.11236794694E+03  0.79202232892E+02  0.11319453415E+01  0.13748029130E+03  0.00000000000E+00 0.  1.
        -13    1    3    3    0    0  0.26511466994E+03  0.19259874860E+03  0.13954235918E+03  0.35616307527E+03  0.00000000000E+00 0. -1.
         22    1    1    2    0    0 -0.37748261689E+03 -0.27180098150E+03 -0.29719592048E+03  0.55199122705E+03  0.00000000000E+00 0.  1.
<mgrwt>
<rscale>  0 0.10338533E+04</rscale>
<asrwt>0</asrwt>
<pdfrwt beam="1">  1        1 0.68393306E-01 0.10338533E+04</pdfrwt>
<pdfrwt beam="2">  1       -1 0.92473554E-01 0.10338533E+04</pdfrwt>
<totfact> 0.59280946E+01</totfact>
</mgrwt>
</event>
<event>
 6    1  0.1588846E-005  0.1193618E+04  0.7818608E-02  0.9118461E-01
          2   -1    0    0  501    0  0.00000000000E+00  0.00000000000E+00  0.94316190618E+03  0.94316190618E+03  0.00000000000E+00 0. -1.
         -2   -1    0    0    0  501 -0.00000000000E+00 -0.00000000000E+00 -0.37764565680E+03  0.37764565680E+03  0.00000000000E+00 0.  1.
         23    2    1    2    0    0  0.20850384770E+03 -0.47870398303E+03  0.59590262541E+03  0.79778300359E+03  0.93415330530E+02 0.  0.
         13    1    3    3    0    0  0.98964751011E+02 -0.27054625552E+03  0.39211599130E+03  0.48656371520E+03  0.00000000000E+00 0.  1.
        -13    1    3    3    0    0  0.10953909669E+03 -0.20815772750E+03  0.20378663411E+03  0.31121928839E+03  0.00000000000E+00 0. -1.
         22    1    1    2    0    0 -0.20850384770E+03  0.47870398303E+03 -0.30386376025E+02  0.52302455938E+03  0.00000000000E+00 0. -1.
<mgrwt>
<rscale>  0 0.11936180E+04</rscale>
<asrwt>0</asrwt>
<pdfrwt beam="1">  1        2 0.14510183E+00 0.11936180E+04</pdfrwt>
<pdfrwt beam="2">  1       -2 0.58099332E-01 0.11936180E+04</pdfrwt>
<totfact> 0.75078682E+01</totfact>
</mgrwt>
</event>
<event>
 6    1  0.1588846E-005  0.3357887E+04  0.7818608E-02  0.8148320E-01
          2   -1    0    0  501    0  0.00000000000E+00  0.00000000000E+00  0.14402961985E+04  0.14402961985E+04  0.00000000000E+00 0.  1.
         -2   -1    0    0    0  501 -0.00000000000E+00 -0.00000000000E+00 -0.19571326517E+04  0.19571326517E+04  0.00000000000E+00 0. -1.
         23    2    1    2    0    0  0.86327390806E+03 -0.92111847672E+03 -0.13764976871E+04  0.18701048749E+04  0.94049306423E+02 0.  0.
         13    1    3    3    0    0  0.17171032588E+03 -0.21983213911E+03 -0.26085508732E+03  0.38191096081E+03  0.00000000000E+00 0.  1.
        -13    1    3    3    0    0  0.69156358218E+03 -0.70128633760E+03 -0.11156425997E+04  0.14881939141E+04  0.00000000000E+00 0. -1.
         22    1    1    2    0    0 -0.86327390806E+03  0.92111847672E+03  0.85966123386E+03  0.15273239753E+04  0.00000000000E+00 0.  1.
<mgrwt>
<rscale>  0 0.33578867E+04</rscale>
<asrwt>0</asrwt>
<pdfrwt beam="1">  1        2 0.22158403E+00 0.33578867E+04</pdfrwt>
<pdfrwt beam="2">  1       -2 0.30109733E+00 0.33578867E+04</pdfrwt>
<totfact> 0.35698422E-01</totfact>
</mgrwt>
</event>
<event>
 6    1  0.1588846E-005  0.2756537E+04  0.7818608E-02  0.8316890E-01
          2   -1    0    0  501    0  0.00000000000E+00  0.00000000000E+00  0.92178395285E+03  0.92178395285E+03  0.00000000000E+00 0. -1.
         -2   -1    0    0    0  501 -0.00000000000E+00 -0.00000000000E+00 -0.20608127838E+04  0.20608127838E+04  0.00000000000E+00 0.  1.
         23    2    1    2    0    0  0.35625993121E+03 -0.13385866926E+03 -0.20017789528E+04  0.20396348845E+04  0.90289557340E+02 0.  0.
         13    1    3    3    0    0  0.13204374107E+03 -0.15125297861E+02 -0.54828986873E+03  0.56416850704E+03  0.00000000000E+00 0.  1.
        -13    1    3    3    0    0  0.22421619014E+03 -0.11873337140E+03 -0.14534890841E+04  0.14754663774E+04  0.00000000000E+00 0. -1.
         22    1    1    2    0    0 -0.35625993121E+03  0.13385866926E+03  0.86275012185E+03  0.94296185218E+03  0.00000000000E+00 0. -1.
<mgrwt>
<rscale>  0 0.27565371E+04</rscale>
<asrwt>0</asrwt>
<pdfrwt beam="1">  1        2 0.14181292E+00 0.27565371E+04</pdfrwt>
<pdfrwt beam="2">  1       -2 0.31704812E+00 0.27565371E+04</pdfrwt>
<totfact> 0.61814541E-01</totfact>
</mgrwt>
</event>
<event>
 6    1  0.1588846E-005  0.1788298E+04  0.7818608E-02  0.8712547E-01
         -2   -1    0    0    0  501 -0.00000000000E+00  0.00000000000E+00  0.63442248729E+03  0.63442248729E+03  0.00000000000E+00 0.  1.
          2   -1    0    0  501    0  0.00000000000E+00 -0.00000000000E+00 -0.12602048747E+04  0.12602048747E+04  0.00000000000E+00 0. -1.
         23    2    1    2    0    0  0.59006905511E+03 -0.66462176048E+03 -0.23558497747E+03  0.92397933463E+03  0.91290497378E+02 0.  0.
         11    1    3    3    0    0  0.23012769373E+03 -0.19484402273E+03 -0.73365951120E+02  0.31033129297E+03  0.00000000000E+00 0. -1.
        -11    1    3    3    0    0  0.35994136137E+03 -0.46977773775E+03 -0.16221902635E+03  0.61364804165E+03  0.00000000000E+00 0.  1.
         22    1    1    2    0    0 -0.59006905511E+03  0.66462176048E+03 -0.39019740991E+03  0.97064802735E+03  0.00000000000E+00 0. -1.
<mgrwt>
<rscale>  0 0.17882979E+04</rscale>
<asrwt>0</asrwt>
<pdfrwt beam="1">  1        2 0.19387767E+00 0.17882979E+04</pdfrwt>
<pdfrwt beam="2">  1       -2 0.97603459E-01 0.17882979E+04</pdfrwt>
<totfact> 0.14420935E+01</totfact>
</mgrwt>
</event>
<event>
 6    1  0.1588846E-005  0.4840873E+04  0.7818608E-02  0.7853534E-01
          2   -1    0    0  501    0  0.00000000000E+00  0.00000000000E+00  0.21677169011E+04  0.21677169011E+04  0.00000000000E+00 0. -1.
         -2   -1    0    0    0  501 -0.00000000000E+00 -0.00000000000E+00 -0.27026187837E+04  0.27026187837E+04  0.00000000000E+00 0.  1.
         23    2    1    2    0    0 -0.49127908309E+03 -0.23650480880E+04 -0.40867893969E+03  0.24515054246E+04  0.89737255674E+02 0.  0.
         13    1    3    3    0    0 -0.43033647456E+03 -0.18971797065E+04 -0.33108990383E+03  0.19733476239E+04  0.00000000000E+00 0. -1.
        -13    1    3    3    0    0 -0.60942608536E+02 -0.46786838153E+03 -0.77589035861E+02  0.47815780079E+03  0.00000000000E+00 0.  1.
         22    1    1    2    0    0  0.49127908309E+03  0.23650480880E+04 -0.12622294284E+03  0.24188302602E+04  0.00000000000E+00 0.  1.
<mgrwt>
<rscale>  0 0.48408728E+04</rscale>
<asrwt>0</asrwt>
<pdfrwt beam="1">  1        2 0.33349491E+00 0.48408728E+04</pdfrwt>
<pdfrwt beam="2">  1       -2 0.41578750E+00 0.48408728E+04</pdfrwt>
<totfact> 0.23225672E-02</totfact>
</mgrwt>
</event>
<event>
 6    1  0.1588846E-005  0.2936485E+04  0.7818608E-02  0.8262104E-01
          1   -1    0    0  501    0  0.00000000000E+00  0.00000000000E+00  0.26085500200E+04  0.26085500200E+04  0.00000000000E+00 0. -1.
         -1   -1    0    0    0  501 -0.00000000000E+00 -0.00000000000E+00 -0.82641174165E+03  0.82641174165E+03  0.00000000000E+00 0.  1.
         23    2    1    2    0    0  0.11578932266E+04 -0.17590185945E+03 -0.14103780470E+03  0.11832369928E+04  0.92195066661E+02 0.  0.
         11    1    3    3    0    0  0.48493446292E+03 -0.51907540146E+02 -0.99065994498E+02  0.49766444248E+03  0.00000000000E+00 0. -1.
        -11    1    3    3    0    0  0.67295876369E+03 -0.12399431931E+03 -0.41971810199E+02  0.68557255028E+03  0.00000000000E+00 0.  1.
         22    1    1    2    0    0 -0.11578932266E+04  0.17590185945E+03  0.19231760830E+04  0.22517247688E+04  0.00000000000E+00 0. -1.
<mgrwt>
<rscale>  0 0.29364852E+04</rscale>
<asrwt>0</asrwt>
<pdfrwt beam="1">  1        1 0.40131538E+00 0.29364852E+04</pdfrwt>
<pdfrwt beam="2">  1       -1 0.12714027E+00 0.29364852E+04</pdfrwt>
<totfact> 0.52206654E-01</totfact>
</mgrwt>
</event>
<event>
 6    1  0.1588846E-005  0.2222700E+04  0.7818608E-02  0.8509039E-01
         -1   -1    0    0    0  501 -0.00000000000E+00  0.00000000000E+00  0.47306080778E+03  0.47306080778E+03  0.00000000000E+00 0. -1.
          1   -1    0    0  501    0  0.00000000000E+00 -0.00000000000E+00 -0.26108663568E+04  0.26108663568E+04  0.00000000000E+00 0.  1.
         23    2    1    2    0    0  0.36252190151E+03  0.23869881415E+03 -0.24872819584E+04  0.25266722734E+04  0.95404317681E+02 0.  0.
         11    1    3    3    0    0  0.19729622596E+03  0.90668977195E+02 -0.10335857191E+04  0.10561468189E+04  0.00000000000E+00 0.  1.
        -11    1    3    3    0    0  0.16522567555E+03  0.14802983696E+03 -0.14536962393E+04  0.14705254546E+04  0.00000000000E+00 0. -1.
         22    1    1    2    0    0 -0.36252190151E+03 -0.23869881415E+03  0.34947640940E+03  0.55725489112E+03  0.00000000000E+00 0. -1.
<mgrwt>
<rscale>  0 0.22226998E+04</rscale>
<asrwt>0</asrwt>
<pdfrwt beam="1">  1        1 0.40167174E+00 0.22226998E+04</pdfrwt>
<pdfrwt beam="2">  1       -1 0.72778587E-01 0.22226998E+04</pdfrwt>
<totfact> 0.19641645E+00</totfact>
</mgrwt>
</event>
<event>
 6    1  0.1588846E-005  0.5119004E+04  0.7818608E-02  0.7810407E-01
         -1   -1    0    0    0  501 -0.00000000000E+00  0.00000000000E+00  0.35883880160E+04  0.35883880160E+04  0.00000000000E+00 0.  1.
          1   -1    0    0  501    0  0.00000000000E+00 -0.00000000000E+00 -0.18256249294E+04  0.18256249294E+04  0.00000000000E+00 0. -1.
         23    2    1    2    0    0 -0.16937785794E+04 -0.18336991126E+04  0.28895633198E+03  0.25151433964E+04  0.10541456816E+03 0.  0.
         11    1    3    3    0    0 -0.11739062358E+04 -0.12002324459E+04  0.20653683703E+03  0.16915292606E+04  0.00000000000E+00 0. -1.
        -11    1    3    3    0    0 -0.51987234360E+03 -0.63346666677E+03  0.82419494943E+02  0.82361413580E+03  0.00000000000E+00 0.  1.
         22    1    1    2    0    0  0.16937785794E+04  0.18336991126E+04  0.14738067546E+04  0.28988695489E+04  0.00000000000E+00 0.  1.
<mgrwt>
<rscale>  0 0.51190041E+04</rscale>
<asrwt>0</asrwt>
<pdfrwt beam="1">  1        1 0.28086537E+00 0.51190041E+04</pdfrwt>
<pdfrwt beam="2">  1       -1 0.55205969E+00 0.51190041E+04</pdfrwt>
<totfact> 0.20720054E-03</totfact>
</mgrwt>
</event>
<event>
 6    1  0.1588846E-005  0.2251089E+04  0.7818608E-02  0.8497460E-01
          2   -1    0    0  501    0  0.00000000000E+00  0.00000000000E+00  0.91136118743E+03  0.91136118743E+03  0.00000000000E+00 0. -1.
         -2   -1    0    0    0  501 -0.00000000000E+00 -0.00000000000E+00 -0.13900635503E+04  0.13900635503E+04  0.00000000000E+00 0.  1.
         23    2    1    2    0    0  0.26819367061E+03  0.70686686395E+03 -0.10896031263E+04  0.13294224996E+04  0.92415373387E+02 0.  0.
         13    1    3    3    0    0  0.15014648088E+03  0.47919687036E+03 -0.66370682074E+03  0.83227420372E+03  0.00000000000E+00 0. -1.
        -13    1    3    3    0    0  0.11804718973E+03  0.22766999360E+03 -0.42589630558E+03  0.49714829587E+03  0.00000000000E+00 0.  1.
         22    1    1    2    0    0 -0.26819367061E+03 -0.70686686395E+03  0.61090076340E+03  0.97200223818E+03  0.00000000000E+00 0. -1.
<mgrwt>
<rscale>  0 0.22510886E+04</rscale>
<asrwt>0</asrwt>
<pdfrwt beam="1">  1        2 0.14020941E+00 0.22510886E+04</pdfrwt>
<pdfrwt beam="2">  1       -2 0.21385593E+00 0.22510886E+04</pdfrwt>
<totfact> 0.28352551E+00</totfact>
</mgrwt>
</event>
<event>
 6    1  0.1588846E-005  0.1864495E+04  0.7818608E-02  0.8672734E-01
         -2   -1    0    0    0  501 -0.00000000000E+00  0.00000000000E+00  0.33500613329E+03  0.33500613329E+03  0.00000000000E+00 0.  1.
          2   -1    0    0  501    0  0.00000000000E+00 -0.00000000000E+00 -0.25942382396E+04  0.25942382396E+04  0.00000000000E+00 0. -1.
         23    2    1    2    0    0 -0.37500553294E+03 -0.26597325950E+02 -0.24687173606E+04  0.24988716980E+04  0.91966239006E+02 0.  0.
         11    1    3    3    0    0 -0.23238405586E+03 -0.26229247331E+02 -0.17989944154E+04  0.18141309846E+04  0.00000000000E+00 0.  1.
        -11    1    3    3    0    0 -0.14262147708E+03 -0.36807861847E+00 -0.66972294520E+03  0.68474071336E+03  0.00000000000E+00 0. -1.
         22    1    1    2    0    0  0.37500553294E+03  0.26597325950E+02  0.20948525432E+03  0.43037267485E+03  0.00000000000E+00 0.  1.
<mgrwt>
<rscale>  0 0.18644953E+04</rscale>
<asrwt>0</asrwt>
<pdfrwt beam="1">  1        2 0.39911358E+00 0.18644953E+04</pdfrwt>
<pdfrwt beam="2">  1       -2 0.51539404E-01 0.18644953E+04</pdfrwt>
<totfact> 0.10257365E+01</totfact>
</mgrwt>
</event>
<event>
 6    1  0.1588846E-005  0.2676315E+04  0.7818608E-02  0.8342731E-01
          1   -1    0    0  501    0  0.00000000000E+00  0.00000000000E+00  0.98516169031E+03  0.98516169031E+03  0.00000000000E+00 0. -1.
         -1   -1    0    0    0  501 -0.00000000000E+00 -0.00000000000E+00 -0.18176358355E+04  0.18176358355E+04  0.00000000000E+00 0.  1.
         23    2    1    2    0    0 -0.78121856857E+03 -0.68885594513E+03 -0.12939788625E+04  0.16635821953E+04  0.91101367050E+02 0.  0.
         11    1    3    3    0    0 -0.57364611410E+03 -0.48187943848E+03 -0.86972444476E+03  0.11479103917E+04  0.00000000000E+00 0. -1.
        -11    1    3    3    0    0 -0.20757245447E+03 -0.20697650664E+03 -0.42425441772E+03  0.51567180368E+03  0.00000000000E+00 0.  1.
         22    1    1    2    0    0  0.78121856857E+03  0.68885594513E+03  0.46150471733E+03  0.11392153304E+04  0.00000000000E+00 0. -1.
<mgrwt>
<rscale>  0 0.26763148E+04</rscale>
<asrwt>0</asrwt>
<pdfrwt beam="1">  1        1 0.15156334E+00 0.26763148E+04</pdfrwt>
<pdfrwt beam="2">  1       -1 0.27963628E+00 0.26763148E+04</pdfrwt>
<totfact> 0.60849433E-01</totfact>
</mgrwt>
</event>
<event>
 6    1  0.1588846E-005  0.1960151E+04  0.7818608E-02  0.8625481E-01
          2   -1    0    0  501    0  0.00000000000E+00  0.00000000000E+00  0.30385230400E+04  0.30385230400E+04  0.00000000000E+00 0.  1.
         -2   -1    0    0    0  501 -0.00000000000E+00 -0.00000000000E+00 -0.31612324030E+03  0.31612324030E+03  0.00000000000E+00 0. -1.
         23    2    1    2    0    0 -0.28465757025E+03  0.71939520832E+03  0.34040614736E+03  0.85015967466E+03  0.91300214743E+02 0.  0.
         13    1    3    3    0    0 -0.15036892850E+02  0.65249528694E+02  0.49802085487E+01  0.67144706557E+02  0.00000000000E+00 0. -1.
        -13    1    3    3    0    0 -0.26962067740E+03  0.65414567962E+03  0.33542593881E+03  0.78301496811E+03  0.00000000000E+00 0.  1.
         22    1    1    2    0    0  0.28465757025E+03 -0.71939520832E+03  0.23819936523E+04  0.25044866056E+04  0.00000000000E+00 0.  1.
<mgrwt>
<rscale>  0 0.19601508E+04</rscale>
<asrwt>0</asrwt>
<pdfrwt beam="1">  1        2 0.46746506E+00 0.19601508E+04</pdfrwt>
<pdfrwt beam="2">  1       -2 0.48634347E-01 0.19601508E+04</pdfrwt>
<totfact> 0.61624621E+00</totfact>
</mgrwt>
</event>
<event>
 6    1  0.1588846E-005  0.1696546E+04  0.7818608E-02  0.8763337E-01
         -2   -1    0    0    0  501 -0.00000000000E+00  0.00000000000E+00  0.98633872395E+03  0.98633872395E+03  0.00000000000E+00 0. -1.
          2   -1    0    0  501    0  0.00000000000E+00 -0.00000000000E+00 -0.72953342899E+03  0.72953342899E+03  0.00000000000E+00 0.  1.
         23    2    1    2    0    0  0.82699132752E+03 -0.17228150756E+03  0.16682013573E+03  0.86634704882E+03  0.95565044166E+02 0.  0.
         13    1    3    3    0    0  0.52534008919E+03 -0.88172869702E+02  0.14682099609E+03  0.55255141766E+03  0.00000000000E+00 0. -1.
        -13    1    3    3    0    0  0.30165123833E+03 -0.84108637857E+02  0.19999139643E+02  0.31379563116E+03  0.00000000000E+00 0.  1.
         22    1    1    2    0    0 -0.82699132752E+03  0.17228150756E+03  0.89985159228E+02  0.84952510412E+03  0.00000000000E+00 0.  1.
<mgrwt>
<rscale>  0 0.16965460E+04</rscale>
<asrwt>0</asrwt>
<pdfrwt beam="1">  1        2 0.11223591E+00 0.16965460E+04</pdfrwt>
<pdfrwt beam="2">  1       -2 0.15174442E+00 0.16965460E+04</pdfrwt>
<totfact> 0.10742570E+01</totfact>
</mgrwt>
</event>
<event>
 6    1  0.1588846E-005  0.1799461E+04  0.7818608E-02  0.8706586E-01
         -1   -1    0    0    0  501 -0.00000000000E+00  0.00000000000E+00  0.27605898716E+04  0.27605898716E+04  0.00000000000E+00 0.  1.
          1   -1    0    0  501    0  0.00000000000E+00 -0.00000000000E+00 -0.29323987694E+03  0.29323987694E+03  0.00000000000E+00 0. -1.
         23    2    1    2    0    0 -0.51403702462E+03 -0.71095469575E+03  0.91718416320E+03  0.12726209604E+04  0.92987512253E+02 0.  0.
         13    1    3    3    0    0 -0.52534216400E+02 -0.12688737666E+03  0.15891194546E+03  0.21003156110E+03  0.00000000000E+00 0.  1.
        -13    1    3    3    0    0 -0.46150280822E+03 -0.58406731909E+03  0.75827221774E+03  0.10625893993E+04  0.00000000000E+00 0. -1.
         22    1    1    2    0    0  0.51403702462E+03  0.71095469575E+03  0.15501658315E+04  0.17812087882E+04  0.00000000000E+00 0. -1.
<mgrwt>
<rscale>  0 0.17994611E+04</rscale>
<asrwt>0</asrwt>
<pdfrwt beam="1">  1        1 0.45113829E-01 0.17994611E+04</pdfrwt>
<pdfrwt beam="2">  1       -1 0.42470612E+00 0.17994611E+04</pdfrwt>
<totfact> 0.41359824E-01</totfact>
</mgrwt>
</event>
<event>
 6    1  0.1588846E-005  0.2352533E+04  0.7818608E-02  0.8457492E-01
         -2   -1    0    0    0  501 -0.00000000000E+00  0.00000000000E+00  0.10811630200E+04  0.10811630200E+04  0.00000000000E+00 0.  1.
          2   -1    0    0  501    0  0.00000000000E+00 -0.00000000000E+00 -0.12797351743E+04  0.12797351743E+04  0.00000000000E+00 0. -1.
         23    2    1    2    0    0 -0.40492330999E+03 -0.30078960211E+03 -0.11638677073E+04  0.12717550558E+04  0.91299562643E+02 0.  0.
         11    1    3    3    0    0 -0.31595827111E+03 -0.23866380438E+03 -0.80965031641E+03  0.90129000631E+03  0.00000000000E+00 0.  1.
        -11    1    3    3    0    0 -0.88965038880E+02 -0.62125797729E+02 -0.35421739086E+03  0.37046504946E+03  0.00000000000E+00 0. -1.
         22    1    1    2    0    0  0.40492330999E+03  0.30078960211E+03  0.96529555293E+03  0.10891431385E+04  0.00000000000E+00 0.  1.
<mgrwt>
<rscale>  0 0.23525325E+04</rscale>
<asrwt>0</asrwt>
<pdfrwt beam="1">  1        2 0.19688233E+00 0.23525325E+04</pdfrwt>
<pdfrwt beam="2">  1       -2 0.16633277E+00 0.23525325E+04</pdfrwt>
<totfact> 0.34730054E+00</totfact>
</mgrwt>
</event>
<event>
 6    1  0.1588846E-005  0.1466569E+04  0.7818608E-02  0.8906994E-01
          2   -1    0    0  501    0  0.00000000000E+00  0.00000000000E+00  0.21270216479E+04  0.21270216479E+04  0.00000000000E+00 0. -1.
         -2   -1    0    0    0  501 -0.00000000000E+00 -0.00000000000E+00 -0.25279758525E+03  0.25279758525E+03  0.00000000000E+00 0.  1.
         23    2    1    2    0    0 -0.55714352232E+03  0.39707652610E+03  0.52540249523E+03  0.86740451067E+03  0.90907266443E+02 0.  0.
         13    1    3    3    0    0 -0.32140581395E+03  0.28310500557E+03  0.32942904337E+03  0.54034584854E+03  0.00000000000E+00 0.  1.
        -13    1    3    3    0    0 -0.23573770837E+03  0.11397152053E+03  0.19597345186E+03  0.32705866213E+03  0.00000000000E+00 0. -1.
         22    1    1    2    0    0  0.55714352232E+03 -0.39707652610E+03  0.13488215674E+04  0.15124147225E+04  0.00000000000E+00 0. -1.
<mgrwt>
<rscale>  0 0.14665687E+04</rscale>
<asrwt>0</asrwt>
<pdfrwt beam="1">  1        2 0.32723409E+00 0.14665687E+04</pdfrwt>
<pdfrwt beam="2">  1       -2 0.38891938E-01 0.14665687E+04</pdfrwt>
<totfact> 0.34375175E+01</totfact>
</mgrwt>
</event>
<event>
 6    1  0.1588846E-005  0.4081884E+04  0.7818608E-02  0.7988229E-01
         -2   -1    0    0    0  501 -0.00000000000E+00  0.00000000000E+00  0.11780696523E+04  0.11780696523E+04  0.00000000000E+00 0.  1.
          2   -1    0    0  501    0  0.00000000000E+00 -0.00000000000E+00 -0.35358216532E+04  0.35358216532E+04  0.00000000000E+00 0. -1.
         23    2    1    2    0    0 -0.16381521603E+04 -0.89854194925E+03 -0.21250217273E+04  0.28310520890E+04  0.90655690214E+02 0.  0.
         13    1    3    3    0    0 -0.21763056359E+03 -0.87005189343E+02 -0.25186220642E+03  0.34404583445E+03  0.00000000000E+00 0.  1.
        -13    1    3    3    0    0 -0.14205215967E+04 -0.81153675991E+03 -0.18731595209E+04  0.24870062545E+04  0.00000000000E+00 0. -1.
         22    1    1    2    0    0  0.16381521603E+04  0.89854194925E+03 -0.23273027361E+03  0.18828392165E+04  0.00000000000E+00 0.  1.
<mgrwt>
<rscale>  0 0.40818840E+04</rscale>
<asrwt>0</asrwt>
<pdfrwt beam="1">  1        2 0.54397255E+00 0.40818840E+04</pdfrwt>
<pdfrwt beam="2">  1       -2 0.18124149E+00 0.40818840E+04</pdfrwt>
<totfact> 0.10667391E-01</totfact>
</mgrwt>
</event>
<event>
 6    1  0.1588846E-005  0.1539185E+04  0.7818608E-02  0.8858805E-01
          1   -1    0    0  501    0  0.00000000000E+00  0.00000000000E+00  0.17355433229E+04  0.17355433229E+04  0.00000000000E+00 0. -1.
         -1   -1    0    0    0  501 -0.00000000000E+00 -0.00000000000E+00 -0.34126070613E+03  0.34126070613E+03  0.00000000000E+00 0.  1.
         23    2    1    2    0    0  0.15155134796E+03 -0.51732493440E+03 -0.36450401218E+02  0.54788615433E+03  0.90871929348E+02 0.  0.
         13    1    3    3    0    0  0.69557874002E+02 -0.14112171480E+03  0.20498479785E+02  0.15866261027E+03  0.00000000000E+00 0.  1.
        -13    1    3    3    0    0  0.81993473958E+02 -0.37620321959E+03 -0.56948881002E+02  0.38922354406E+03  0.00000000000E+00 0. -1.
         22    1    1    2    0    0 -0.15155134796E+03  0.51732493440E+03  0.14307330179E+04  0.15289178747E+04  0.00000000000E+00 0. -1.
<mgrwt>
<rscale>  0 0.15391852E+04</rscale>
<asrwt>0</asrwt>
<pdfrwt beam="1">  1        1 0.26700666E+00 0.15391852E+04</pdfrwt>
<pdfrwt beam="2">  1       -1 0.52501648E-01 0.15391852E+04</pdfrwt>
<totfact> 0.15888639E+01</totfact>
</mgrwt>
</event>
<event>
 6    1  0.1588846E-005  0.1676857E+04  0.7818608E-02  0.8774675E-01
          1   -1    0    0  501    0  0.00000000000E+00  0.00000000000E+00  0.10426567784E+04  0.10426567784E+04  0.00000000000E+00 0. -1.
         -1   -1    0    0    0  501 -0.00000000000E+00 -0.00000000000E+00 -0.67420313521E+03  0.67420313521E+03  0.00000000000E+00 0.  1.
         23    2    1    2    0    0 -0.59573149743E+03  0.49351225013E+03 -0.13958083102E+03  0.79136038091E+03  0.91203541761E+02 0.  0.
         13    1    3    3    0    0 -0.41346231032E+03  0.38384527083E+03 -0.12689107715E+03  0.57826431625E+03  0.00000000000E+00 0. -1.
        -13    1    3    3    0    0 -0.18226918712E+03  0.10966697930E+03 -0.12689753871E+02  0.21309606466E+03  0.00000000000E+00 0.  1.
         22    1    1    2    0    0  0.59573149743E+03 -0.49351225013E+03  0.50803447424E+03  0.92549953273E+03  0.00000000000E+00 0. -1.
<mgrwt>
<rscale>  0 0.16768571E+04</rscale>
<asrwt>0</asrwt>
<pdfrwt beam="1">  1        1 0.16040874E+00 0.16768571E+04</pdfrwt>
<pdfrwt beam="2">  1       -1 0.10372356E+00 0.16768571E+04</pdfrwt>
<totfact> 0.11711781E+01</totfact>
</mgrwt>
</event>
<event>
 6    1  0.1588846E-005  0.1531718E+04  0.7818608E-02  0.8863631E-01
         -2   -1    0    0    0  501 -0.00000000000E+00  0.00000000000E+00  0.36111934645E+03  0.36111934645E+03  0.00000000000E+00 0.  1.
          2   -1    0    0  501    0  0.00000000000E+00 -0.00000000000E+00 -0.16242275061E+04  0.16242275061E+04  0.00000000000E+00 0. -1.
         23    2    1    2    0    0 -0.19088864346E+03  0.47975844530E+03 -0.13621369663E+04  0.14595965842E+04  0.91642968944E+02 0.  0.
         11    1    3    3    0    0 -0.88668574256E+02  0.16814691873E+03 -0.39481688452E+03  0.43819616000E+03  0.00000000000E+00 0. -1.
        -11    1    3    3    0    0 -0.10222006921E+03  0.31161152657E+03 -0.96732008177E+03  0.10214004242E+04  0.00000000000E+00 0.  1.
         22    1    1    2    0    0  0.19088864346E+03 -0.47975844530E+03  0.99028806665E+02  0.52575026828E+03  0.00000000000E+00 0.  1.
<mgrwt>
<rscale>  0 0.15317180E+04</rscale>
<asrwt>0</asrwt>
<pdfrwt beam="1">  1        2 0.24988115E+00 0.15317180E+04</pdfrwt>
<pdfrwt beam="2">  1       -2 0.55556823E-01 0.15317180E+04</pdfrwt>
<totfact> 0.31714705E+01</totfact>
</mgrwt>
</event>
<event>
 6    1  0.1588846E-005  0.2531991E+04  0.7818608E-02  0.8391676E-01
          1   -1    0    0  501    0  0.00000000000E+00  0.00000000000E+00  0.97033459407E+03  0.97033459407E+03  0.00000000000E+00 0. -1.
         -1   -1    0    0    0  501 -0.00000000000E+00 -0.00000000000E+00 -0.16517449070E+04  0.16517449070E+04  0.00000000000E+00 0.  1.
         23    2    1    2    0    0 -0.17826076567E+03  0.12098430134E+04 -0.80480609345E+01  0.12260444943E+04  0.87311585533E+02 0.  0.
         13    1    3    3    0    0 -0.93952788466E+02  0.44715615883E+03  0.28811024666E+02  0.45782729493E+03  0.00000000000E+00 0. -1.
        -13    1    3    3    0    0 -0.84307977200E+02  0.76268685462E+03 -0.36859085600E+02  0.76821719937E+03  0.00000000000E+00 0.  1.
         22    1    1    2    0    0  0.17826076567E+03 -0.12098430134E+04 -0.67336225204E+03  0.13960350068E+04  0.00000000000E+00 0.  1.
<mgrwt>
<rscale>  0 0.25319915E+04</rscale>
<asrwt>0</asrwt>
<pdfrwt beam="1">  1        1 0.14928225E+00 0.25319915E+04</pdfrwt>
<pdfrwt beam="2">  1       -1 0.25411460E+00 0.25319915E+04</pdfrwt>
<totfact> 0.92707433E-01</totfact>
</mgrwt>
</event>
<event>
 6    1  0.1588846E-005  0.6060727E+04  0.7818608E-02  0.7682918E-01
         -2   -1    0    0    0  501 -0.00000000000E+00  0.00000000000E+00  0.16045582462E+04  0.16045582462E+04  0.00000000000E+00 0.  1.
          2   -1    0    0  501    0  0.00000000000E+00 -0.00000000000E+00 -0.57231352126E+04  0.57231352126E+04  0.00000000000E+00 0. -1.
         23    2    1    2    0    0 -0.43219273347E+03  0.26558434952E+04 -0.37432462342E+04  0.46108628811E+04  0.88706868210E+02 0.  0.
         11    1    3    3    0    0 -0.31268767992E+03  0.18550656799E+04 -0.25489580680E+04  0.31680008672E+04  0.00000000000E+00 0. -1.
        -11    1    3    3    0    0 -0.11950505356E+03  0.80077781526E+03 -0.11942881662E+04  0.14428620139E+04  0.00000000000E+00 0.  1.
         22    1    1    2    0    0  0.43219273347E+03 -0.26558434952E+04 -0.37533073217E+03  0.27168305778E+04  0.00000000000E+00 0.  1.
<mgrwt>
<rscale>  0 0.60607273E+04</rscale>
<asrwt>0</asrwt>
<pdfrwt beam="1">  1        2 0.88048234E+00 0.60607273E+04</pdfrwt>
<pdfrwt beam="2">  1       -2 0.24685512E+00 0.60607273E+04</pdfrwt>
<totfact> 0.88586089E-05</totfact>
</mgrwt>
</event>
<event>
 6    1  0.1588846E-005  0.1018762E+04  0.7818608E-02  0.9288203E-01
          1   -1    0    0  501    0  0.00000000000E+00  0.00000000000E+00  0.90917943449E+03  0.90917943449E+03  0.00000000000E+00 0. -1.
         -1   -1    0    0    0  501 -0.00000000000E+00 -0.00000000000E+00 -0.28538805955E+03  0.28538805955E+03  0.00000000000E+00 0.  1.
         23    2    1    2    0    0  0.35354646071E+03  0.48731089806E+02  0.73364852512E+03  0.82115296240E+03  0.93178378632E+02 0.  0.
         13    1    3    3    0    0  0.14265025734E+03 -0.20100456577E+02  0.23944164969E+03  0.27943769946E+03  0.00000000000E+00 0. -1.
        -13    1    3    3    0    0  0.21089620338E+03  0.68831546383E+02  0.49420687544E+03  0.54171526294E+03  0.00000000000E+00 0.  1.
         22    1    1    2    0    0 -0.35354646071E+03 -0.48731089806E+02 -0.10985715018E+03  0.37341453164E+03  0.00000000000E+00 0.  1.
<mgrwt>
<rscale>  0 0.10187619E+04</rscale>
<asrwt>0</asrwt>
<pdfrwt beam="1">  1        1 0.13987376E+00 0.10187619E+04</pdfrwt>
<pdfrwt beam="2">  1       -1 0.43905856E-01 0.10187619E+04</pdfrwt>
<totfact> 0.91778366E+01</totfact>
</mgrwt>
</event>
<event>
 6    1  0.1588846E-005  0.1116134E+04  0.7818608E-02  0.9189607E-01
          1   -1    0    0  501    0  0.00000000000E+00  0.00000000000E+00  0.53463078194E+03  0.53463078194E+03  0.00000000000E+00 0. -1.
         -1   -1    0    0    0  501 -0.00000000000E+00 -0.00000000000E+00 -0.58253107486E+03  0.58253107486E+03  0.00000000000E+00 0.  1.
         23    2    1    2    0    0  0.21896157215E+03  0.47625479621E+03 -0.20301841521E+03  0.57051349372E+03  0.97500608269E+02 0.  0.
         13    1    3    3    0    0  0.10607859115E+03  0.29190510177E+03 -0.75826259296E+02  0.31970435958E+03  0.00000000000E+00 0. -1.
        -13    1    3    3    0    0  0.11288298101E+03  0.18434969444E+03 -0.12719215591E+03  0.25080913414E+03  0.00000000000E+00 0.  1.
         22    1    1    2    0    0 -0.21896157215E+03 -0.47625479621E+03  0.15511812229E+03  0.54664836308E+03  0.00000000000E+00 0.  1.
<mgrwt>
<rscale>  0 0.11161345E+04</rscale>
<asrwt>0</asrwt>
<pdfrwt beam="1">  1        1 0.82250890E-01 0.11161345E+04</pdfrwt>
<pdfrwt beam="2">  1       -1 0.89620165E-01 0.11161345E+04</pdfrwt>
<totfact> 0.49029454E+01</totfact>
</mgrwt>
</event>
<event>
 6    1  0.1588846E-005  0.1167842E+04  0.7818608E-02  0.9141480E-01
          1   -1    0    0  501    0  0.00000000000E+00  0.00000000000E+00  0.85581759232E+03  0.85581759232E+03  0.00000000000E+00 0. -1.
         -1   -1    0    0    0  501 -0.00000000000E+00 -0.00000000000E+00 -0.39840692293E+03  0.39840692293E+03  0.00000000000E+00 0.  1.
         23    2    1    2    0    0  0.43523994480E+03  0.28255810701E+02  0.64141654503E+03  0.78084267924E+03  0.89821518035E+02 0.  0.
         11    1    3    3    0    0  0.42427208988E+03  0.37014476637E+02  0.59069734343E+03  0.72821715805E+03  0.00000000000E+00 0.  1.
        -11    1    3    3    0    0  0.10967854914E+02 -0.87586659363E+01  0.50719201599E+02  0.52625521197E+02  0.00000000000E+00 0. -1.
         22    1    1    2    0    0 -0.43523994480E+03 -0.28255810701E+02 -0.18400587564E+03  0.47338183600E+03  0.00000000000E+00 0.  1.
<mgrwt>
<rscale>  0 0.11678419E+04</rscale>
<asrwt>0</asrwt>
<pdfrwt beam="1">  1        1 0.13166424E+00 0.11678419E+04</pdfrwt>
<pdfrwt beam="2">  1       -1 0.61293373E-01 0.11678419E+04</pdfrwt>
<totfact> 0.53034950E+01</totfact>
</mgrwt>
</event>
<event>
 6    1  0.1588846E-005  0.1551088E+04  0.7818608E-02  0.8851173E-01
         -2   -1    0    0    0  501 -0.00000000000E+00  0.00000000000E+00  0.48708159997E+03  0.48708159997E+03  0.00000000000E+00 0.  1.
          2   -1    0    0  501    0  0.00000000000E+00 -0.00000000000E+00 -0.12348420587E+04  0.12348420587E+04  0.00000000000E+00 0. -1.
         23    2    1    2    0    0  0.17841194690E+03  0.54153765540E+03  0.20425450479E+03  0.61222714800E+03  0.89489233996E+02 0.  0.
         11    1    3    3    0    0  0.18708790506E+03  0.49503535231E+03  0.17939689398E+03  0.55878898506E+03  0.00000000000E+00 0.  1.
        -11    1    3    3    0    0 -0.86759581544E+01  0.46502303086E+02  0.24857610813E+02  0.53438162932E+02  0.00000000000E+00 0. -1.
         22    1    1    2    0    0 -0.17841194690E+03 -0.54153765540E+03 -0.95201496348E+03  0.11096965106E+04  0.00000000000E+00 0. -1.
<mgrwt>
<rscale>  0 0.15510885E+04</rscale>
<asrwt>0</asrwt>
<pdfrwt beam="1">  1        2 0.18997570E+00 0.15510885E+04</pdfrwt>
<pdfrwt beam="2">  1       -2 0.74935632E-01 0.15510885E+04</pdfrwt>
<totfact> 0.27807439E+01</totfact>
</mgrwt>
</event>
<event>
 6    1  0.1588846E-005  0.2545128E+04  0.7818608E-02  0.8387083E-01
          1   -1    0    0  501    0  0.00000000000E+00  0.00000000000E+00  0.31589890550E+04  0.31589890550E+04  0.00000000000E+00 0. -1.
         -1   -1    0    0    0  501 -0.00000000000E+00 -0.00000000000E+00 -0.51263832317E+03  0.51263832317E+03  0.00000000000E+00 0.  1.
         23    2    1    2    0    0 -0.78149294155E+03 -0.48131894498E+03  0.25931200049E+04  0.27522620238E+04  0.90971112493E+02 0.  0.
         13    1    3    3    0    0 -0.13241707569E+03 -0.78395124071E+02  0.54455944183E+03  0.56588431953E+03  0.00000000000E+00 0. -1.
        -13    1    3    3    0    0 -0.64907586586E+03 -0.40292382091E+03  0.20485605631E+04  0.21863777043E+04  0.00000000000E+00 0.  1.
         22    1    1    2    0    0  0.78149294155E+03  0.48131894498E+03  0.53230726906E+02  0.91936535435E+03  0.00000000000E+00 0.  1.
<mgrwt>
<rscale>  0 0.25451278E+04</rscale>
<asrwt>0</asrwt>
<pdfrwt beam="1">  1        1 0.48599830E+00 0.25451278E+04</pdfrwt>
<pdfrwt beam="2">  1       -1 0.78867437E-01 0.25451278E+04</pdfrwt>
<totfact> 0.64920296E-01</totfact>
</mgrwt>
</event>
<event>
 6    1  0.1588846E-005  0.7391706E+03  0.7818608E-02  0.9652495E-01
          2   -1    0    0  501    0  0.00000000000E+00  0.00000000000E+00  0.59782723089E+03  0.59782723089E+03  0.00000000000E+00 0. -1.
         -2   -1    0    0    0  501 -0.00000000000E+00 -0.00000000000E+00 -0.22848289507E+03  0.22848289507E+03  0.00000000000E+00 0.  1.
         23    2    1    2    0    0 -0.79017331569E+02 -0.97199580134E+02  0.56954871008E+03  0.59014643582E+03  0.90529473075E+02 0.  0.
         13    1    3    3    0    0 -0.60845736033E+02 -0.57495950407E+02  0.18418462297E+03  0.20231649276E+03  0.00000000000E+00 0.  1.
        -13    1    3    3    0    0 -0.18171595536E+02 -0.39703629727E+02  0.38536408711E+03  0.38782994306E+03  0.00000000000E+00 0. -1.
         22    1    1    2    0    0  0.79017331569E+02  0.97199580134E+02 -0.20020437426E+03  0.23616369014E+03  0.00000000000E+00 0.  1.
<mgrwt>
<rscale>  0 0.73917061E+03</rscale>
<asrwt>0</asrwt>
<pdfrwt beam="1">  1        2 0.91973420E-01 0.73917061E+03</pdfrwt>
<pdfrwt beam="2">  1       -2 0.35151215E-01 0.73917061E+03</pdfrwt>
<totfact> 0.38096593E+02</totfact>
</mgrwt>
</event>
<event>
 6    1  0.1588846E-005  0.2120675E+04  0.7818608E-02  0.8552190E-01
         -2   -1    0    0    0  501 -0.00000000000E+00  0.00000000000E+00  0.71285009927E+03  0.71285009927E+03  0.00000000000E+00 0.  1.
          2   -1    0    0  501    0  0.00000000000E+00 -0.00000000000E+00 -0.15772116764E+04  0.15772116764E+04  0.00000000000E+00 0. -1.
         23    2    1    2    0    0  0.33259836607E+02 -0.71553895491E+03  0.40806538712E+03  0.82986569566E+03  0.95170898622E+02 0.  0.
         11    1    3    3    0    0 -0.32687146877E+02 -0.23746827409E+03  0.14675916085E+03  0.28106561878E+03  0.00000000000E+00 0. -1.
        -11    1    3    3    0    0  0.65946983484E+02 -0.47807068082E+03  0.26130622627E+03  0.54880007688E+03  0.00000000000E+00 0.  1.
         22    1    1    2    0    0 -0.33259836607E+02  0.71553895491E+03 -0.12724269643E+04  0.14601960800E+04  0.00000000000E+00 0.  1.
<mgrwt>
<rscale>  0 0.21206749E+04</rscale>
<asrwt>0</asrwt>
<pdfrwt beam="1">  1        2 0.24264795E+00 0.21206749E+04</pdfrwt>
<pdfrwt beam="2">  1       -2 0.10966925E+00 0.21206749E+04</pdfrwt>
<totfact> 0.69936924E+00</totfact>
</mgrwt>
</event>
<event>
 6    1  0.1588846E-005  0.4005507E+04  0.7818608E-02  0.8003437E-01
         -2   -1    0    0    0  501 -0.00000000000E+00  0.00000000000E+00  0.13777987710E+04  0.13777987710E+04  0.00000000000E+00 0.  1.
          2   -1    0    0  501    0  0.00000000000E+00 -0.00000000000E+00 -0.29111804460E+04  0.29111804460E+04  0.00000000000E+00 0. -1.
         23    2    1    2    0    0  0.13687009622E+04  0.80067033343E+03  0.54090525302E+03  0.16780250683E+04  0.93671396130E+02 0.  0.
         13    1    3    3    0    0  0.10493655021E+04  0.64228396799E+03  0.45124518650E+03  0.13104651353E+04  0.00000000000E+00 0.  1.
        -13    1    3    3    0    0  0.31933546007E+03  0.15838636543E+03  0.89660066521E+02  0.36755993300E+03  0.00000000000E+00 0. -1.
         22    1    1    2    0    0 -0.13687009622E+04 -0.80067033343E+03 -0.20742869280E+04  0.26109541487E+04  0.00000000000E+00 0. -1.
<mgrwt>
<rscale>  0 0.40055066E+04</rscale>
<asrwt>0</asrwt>
<pdfrwt beam="1">  1        2 0.44787392E+00 0.40055066E+04</pdfrwt>
<pdfrwt beam="2">  1       -2 0.21196904E+00 0.40055066E+04</pdfrwt>
<totfact> 0.17333821E-01</totfact>
</mgrwt>
</event>
<event>
 6    1  0.1588846E-005  0.3359231E+04  0.7818608E-02  0.8147986E-01
         -2   -1    0    0    0  501 -0.00000000000E+00  0.00000000000E+00  0.17692590612E+04  0.17692590612E+04  0.00000000000E+00 0.  1.
          2   -1    0    0  501    0  0.00000000000E+00 -0.00000000000E+00 -0.15945135719E+04  0.15945135719E+04  0.00000000000E+00 0. -1.
         23    2    1    2    0    0 -0.33337578569E+03 -0.84512296599E+03 -0.13256154358E+04  0.16097899800E+04  0.93783015690E+02 0.  0.
         11    1    3    3    0    0 -0.32032148261E+03 -0.73202609079E+03 -0.11762981845E+04  0.14220216133E+04  0.00000000000E+00 0.  1.
        -11    1    3    3    0    0 -0.13054303074E+02 -0.11309687520E+03 -0.14931725130E+03  0.18776836673E+03  0.00000000000E+00 0. -1.
         22    1    1    2    0    0  0.33337578569E+03  0.84512296599E+03  0.15003609250E+04  0.17539826531E+04  0.00000000000E+00 0.  1.
<mgrwt>
<rscale>  0 0.33592306E+04</rscale>
<asrwt>0</asrwt>
<pdfrwt beam="1">  1        2 0.24530978E+00 0.33592306E+04</pdfrwt>
<pdfrwt beam="2">  1       -2 0.27219370E+00 0.33592306E+04</pdfrwt>
<totfact> 0.43869928E-01</totfact>
</mgrwt>
</event>
<event>
 6    1  0.1588846E-005  0.3906728E+04  0.7818608E-02  0.8023631E-01
         -2   -1    0    0    0  501 -0.00000000000E+00  0.00000000000E+00  0.29854692887E+04  0.29854692887E+04  0.00000000000E+00 0.  1.
          2   -1    0    0  501    0  0.00000000000E+00 -0.00000000000E+00 -0.12780670578E+04  0.12780670578E+04  0.00000000000E+00 0. -1.
         23    2    1    2    0    0 -0.10077320956E+04  0.12913708209E+04  0.20134112853E+04  0.25971618044E+04  0.90894779605E+02 0.  0.
         11    1    3    3    0    0 -0.63758385138E+03  0.86873817799E+03  0.12768540883E+04  0.16708008715E+04  0.00000000000E+00 0.  1.
        -11    1    3    3    0    0 -0.37014824420E+03  0.42263264286E+03  0.73655719697E+03  0.92636093285E+03  0.00000000000E+00 0. -1.
         22    1    1    2    0    0  0.10077320956E+04 -0.12913708209E+04 -0.30600905432E+03  0.16663745422E+04  0.00000000000E+00 0. -1.
<mgrwt>
<rscale>  0 0.39067275E+04</rscale>
<asrwt>0</asrwt>
<pdfrwt beam="1">  1        2 0.19662570E+00 0.39067275E+04</pdfrwt>
<pdfrwt beam="2">  1       -2 0.45930297E+00 0.39067275E+04</pdfrwt>
<totfact> 0.40777763E-02</totfact>
</mgrwt>
</event>
<event>
 6    1  0.1588846E-005  0.1273216E+04  0.7818608E-02  0.9051079E-01
         -2   -1    0    0    0  501 -0.00000000000E+00  0.00000000000E+00  0.71261444978E+03  0.71261444978E+03  0.00000000000E+00 0.  1.
          2   -1    0    0  501    0  0.00000000000E+00 -0.00000000000E+00 -0.56870840248E+03  0.56870840248E+03  0.00000000000E+00 0. -1.
         23    2    1    2    0    0  0.46507721061E+03  0.94635834796E+02 -0.34963990850E+03  0.59660366635E+03  0.91842887740E+02 0.  0.
         13    1    3    3    0    0  0.32098512176E+03  0.10141016875E+03 -0.21601860537E+03  0.39997438491E+03  0.00000000000E+00 0.  1.
        -13    1    3    3    0    0  0.14409208885E+03 -0.67743339490E+01 -0.13362130314E+03  0.19662928145E+03  0.00000000000E+00 0. -1.
         22    1    1    2    0    0 -0.46507721061E+03 -0.94635834796E+02  0.49354595580E+03  0.68471918590E+03  0.00000000000E+00 0.  1.
<mgrwt>
<rscale>  0 0.12732161E+04</rscale>
<asrwt>0</asrwt>
<pdfrwt beam="1">  1        2 0.87493600E-01 0.12732161E+04</pdfrwt>
<pdfrwt beam="2">  1       -2 0.10963299E+00 0.12732161E+04</pdfrwt>
<totfact> 0.34408072E+01</totfact>
</mgrwt>
</event>
<event>
 6    1  0.1588846E-005  0.2134452E+04  0.7818608E-02  0.8546217E-01
          2   -1    0    0  501    0  0.00000000000E+00  0.00000000000E+00  0.55404652085E+03  0.55404652085E+03  0.00000000000E+00 0.  1.
         -2   -1    0    0    0  501 -0.00000000000E+00 -0.00000000000E+00 -0.20557314827E+04  0.20557314827E+04  0.00000000000E+00 0. -1.
         23    2    1    2    0    0  0.10297899623E+03  0.50157288950E+03 -0.18943975210E+04  0.19644848987E+04  0.90988529705E+02 0.  0.
         11    1    3    3    0    0  0.58205622192E+01  0.16775122481E+03 -0.74393838253E+03  0.76263927867E+03  0.00000000000E+00 0.  1.
        -11    1    3    3    0    0  0.97158434010E+02  0.33382166469E+03 -0.11504591385E+04  0.12018456200E+04  0.00000000000E+00 0. -1.
         22    1    1    2    0    0 -0.10297899623E+03 -0.50157288950E+03  0.39271255910E+03  0.64529310489E+03  0.00000000000E+00 0.  1.
<mgrwt>
<rscale>  0 0.21344516E+04</rscale>
<asrwt>0</asrwt>
<pdfrwt beam="1">  1        2 0.85237926E-01 0.21344516E+04</pdfrwt>
<pdfrwt beam="2">  1       -2 0.31626638E+00 0.21344516E+04</pdfrwt>
<totfact> 0.12676167E+00</totfact>
</mgrwt>
</event>
<event>
 6    1  0.1588846E-005  0.1056481E+04  0.7818608E-02  0.9248679E-01
         -2   -1    0    0    0  501 -0.00000000000E+00  0.00000000000E+00  0.31161229972E+03  0.31161229972E+03  0.00000000000E+00 0.  1.
          2   -1    0    0  501    0  0.00000000000E+00 -0.00000000000E+00 -0.89546496586E+03  0.89546496586E+03  0.00000000000E+00 0. -1.
         23    2    1    2    0    0  0.33306838910E+03  0.30819791960E+03  0.55619778606E+01  0.46321563058E+03  0.92829280649E+02 0.  0.
         13    1    3    3    0    0  0.11319900375E+03  0.16625604652E+03 -0.64009871132E+01  0.20123632895E+03  0.00000000000E+00 0. -1.
        -13    1    3    3    0    0  0.21986938535E+03  0.14194187309E+03  0.11962964974E+02  0.26197930162E+03  0.00000000000E+00 0.  1.
         22    1    1    2    0    0 -0.33306838910E+03 -0.30819791960E+03 -0.58941464400E+03  0.74386163500E+03  0.00000000000E+00 0. -1.
<mgrwt>
<rscale>  0 0.10564808E+04</rscale>
<asrwt>0</asrwt>
<pdfrwt beam="1">  1        2 0.13776384E+00 0.10564808E+04</pdfrwt>
<pdfrwt beam="2">  1       -2 0.47940355E-01 0.10564808E+04</pdfrwt>
<totfact> 0.12114356E+02</totfact>
</mgrwt>
</event>
<event>
 6    1  0.1588846E-005  0.3761056E+04  0.7818608E-02  0.8054564E-01
          2   -1    0    0  501    0  0.00000000000E+00  0.00000000000E+00  0.24973347794E+04  0.24973347794E+04  0.00000000000E+00 0. -1.
         -2   -1    0    0    0  501 -0.00000000000E+00 -0.00000000000E+00 -0.14160641028E+04  0.14160641028E+04  0.00000000000E+00 0.  1.
         23    2    1    2    0    0  0.60434292523E+03  0.16892205965E+04 -0.42874587795E+02  0.17962311586E+04  0.76886604654E+02 0.  0.
         11    1    3    3    0    0  0.50727913918E+03  0.14038096160E+04 -0.64024981150E+02  0.14940256896E+04  0.00000000000E+00 0. -1.
        -11    1    3    3    0    0  0.97063786050E+02  0.28541098043E+03  0.21150393355E+02  0.30220546893E+03  0.00000000000E+00 0.  1.
         22    1    1    2    0    0 -0.60434292523E+03 -0.16892205965E+04  0.11241452644E+04  0.21171677237E+04  0.00000000000E+00 0. -1.
<mgrwt>
<rscale>  0 0.37610563E+04</rscale>
<asrwt>0</asrwt>
<pdfrwt beam="1">  1        2 0.38420535E+00 0.37610563E+04</pdfrwt>
<pdfrwt beam="2">  1       -2 0.21785602E+00 0.37610563E+04</pdfrwt>
<totfact> 0.28656991E-01</totfact>
</mgrwt>
</event>
<event>
 6    1  0.1588846E-005  0.2774081E+04  0.7818608E-02  0.8311361E-01
         -2   -1    0    0    0  501 -0.00000000000E+00  0.00000000000E+00  0.70417531334E+03  0.70417531334E+03  0.00000000000E+00 0.  1.
          2   -1    0    0  501    0  0.00000000000E+00 -0.00000000000E+00 -0.27321058322E+04  0.27321058322E+04  0.00000000000E+00 0. -1.
         23    2    1    2    0    0 -0.10612696429E+04 -0.85493373160E+03 -0.13262634408E+04  0.19034596854E+04  0.83541121464E+02 0.  0.
         11    1    3    3    0    0 -0.42462615985E+03 -0.39168622633E+03 -0.54110154868E+03  0.79152786527E+03  0.00000000000E+00 0. -1.
        -11    1    3    3    0    0 -0.63664348307E+03 -0.46324750527E+03 -0.78516189213E+03  0.11119318201E+04  0.00000000000E+00 0.  1.
         22    1    1    2    0    0  0.10612696429E+04  0.85493373160E+03 -0.70166707808E+03  0.15328214602E+04  0.00000000000E+00 0. -1.
<mgrwt>
<rscale>  0 0.27740811E+04</rscale>
<asrwt>0</asrwt>
<pdfrwt beam="1">  1        2 0.42032397E+00 0.27740811E+04</pdfrwt>
<pdfrwt beam="2">  1       -2 0.10833467E+00 0.27740811E+04</pdfrwt>
<totfact> 0.15098783E+00</totfact>
</mgrwt>
</event>
<event>
 6    1  0.1588846E-005  0.1815869E+04  0.7818608E-02  0.8697906E-01
          2   -1    0    0  501    0  0.00000000000E+00  0.00000000000E+00  0.52634126202E+03  0.52634126202E+03  0.00000000000E+00 0. -1.
         -2   -1    0    0    0  501 -0.00000000000E+00 -0.00000000000E+00 -0.15661800398E+04  0.15661800398E+04  0.00000000000E+00 0.  1.
         23    2    1    2    0    0 -0.70488977950E+03 -0.43420799610E+03 -0.97977221111E+02  0.83852394254E+03  0.90092625885E+02 0.  0.
         13    1    3    3    0    0 -0.40917728464E+03 -0.20640826650E+03 -0.31520433724E+02  0.45937344338E+03  0.00000000000E+00 0.  1.
        -13    1    3    3    0    0 -0.29571249487E+03 -0.22779972960E+03 -0.66456787387E+02  0.37915049916E+03  0.00000000000E+00 0. -1.
         22    1    1    2    0    0  0.70488977950E+03  0.43420799610E+03 -0.94186155666E+03  0.12539973593E+04  0.00000000000E+00 0.  1.
<mgrwt>
<rscale>  0 0.18158691E+04</rscale>
<asrwt>0</asrwt>
<pdfrwt beam="1">  1        2 0.80975581E-01 0.18158691E+04</pdfrwt>
<pdfrwt beam="2">  1       -2 0.24095077E+00 0.18158691E+04</pdfrwt>
<totfact> 0.39943117E+00</totfact>
</mgrwt>
</event>
<event>
 6    1  0.1588846E-005  0.2763998E+04  0.7818608E-02  0.8314533E-01
          2   -1    0    0  501    0  0.00000000000E+00  0.00000000000E+00  0.13938382351E+04  0.13938382351E+04  0.00000000000E+00 0. -1.
         -2   -1    0    0    0  501 -0.00000000000E+00 -0.00000000000E+00 -0.13702603107E+04  0.13702603107E+04  0.00000000000E+00 0.  1.
         23    2    1    2    0    0  0.12933465266E+04  0.48243690557E+03  0.30688284132E+02  0.13836851429E+04  0.90289524414E+02 0.  0.
         13    1    3    3    0    0  0.51624737809E+03  0.20814469695E+03 -0.29446125381E+02  0.55740707257E+03  0.00000000000E+00 0.  1.
        -13    1    3    3    0    0  0.77709914847E+03  0.27429220863E+03  0.60134409513E+02  0.82627807031E+03  0.00000000000E+00 0. -1.
         22    1    1    2    0    0 -0.12933465266E+04 -0.48243690557E+03 -0.71103597030E+01  0.13804134029E+04  0.00000000000E+00 0. -1.
<mgrwt>
<rscale>  0 0.27639980E+04</rscale>
<asrwt>0</asrwt>
<pdfrwt beam="1">  1        2 0.21443665E+00 0.27639980E+04</pdfrwt>
<pdfrwt beam="2">  1       -2 0.21080928E+00 0.27639980E+04</pdfrwt>
<totfact> 0.14406336E+00</totfact>
</mgrwt>
</event>
<event>
 6    1  0.1588846E-005  0.2581521E+04  0.7818608E-02  0.8374505E-01
          1   -1    0    0  501    0  0.00000000000E+00  0.00000000000E+00  0.17460669105E+04  0.17460669105E+04  0.00000000000E+00 0. -1.
         -1   -1    0    0    0  501 -0.00000000000E+00 -0.00000000000E+00 -0.95418017378E+03  0.95418017378E+03  0.00000000000E+00 0.  1.
         23    2    1    2    0    0  0.12811087482E+04 -0.32979508648E+02  0.25072934330E+03  0.13091401160E+04  0.93034225622E+02 0.  0.
         11    1    3    3    0    0  0.61900595828E+03 -0.62378265160E+02  0.12392330044E+03  0.63436299446E+03  0.00000000000E+00 0. -1.
        -11    1    3    3    0    0  0.66210278989E+03  0.29398756511E+02  0.12680604286E+03  0.67477712155E+03  0.00000000000E+00 0.  1.
         22    1    1    2    0    0 -0.12811087482E+04  0.32979508648E+02  0.54115739337E+03  0.13911069682E+04  0.00000000000E+00 0. -1.
<mgrwt>
<rscale>  0 0.25815208E+04</rscale>
<asrwt>0</asrwt>
<pdfrwt beam="1">  1        1 0.26862568E+00 0.25815208E+04</pdfrwt>
<pdfrwt beam="2">  1       -1 0.14679695E+00 0.25815208E+04</pdfrwt>
<totfact> 0.14459591E+00</totfact>
</mgrwt>
</event>
<event>
 6    1  0.1588846E-005  0.2583938E+04  0.7818608E-02  0.8373678E-01
         -1   -1    0    0    0  501 -0.00000000000E+00  0.00000000000E+00  0.76794125583E+03  0.76794125583E+03  0.00000000000E+00 0.  1.
          1   -1    0    0  501    0  0.00000000000E+00 -0.00000000000E+00 -0.21735826485E+04  0.21735826485E+04  0.00000000000E+00 0. -1.
         23    2    1    2    0    0 -0.88588792754E+03  0.70042888099E+02  0.36128574423E+03  0.96371326286E+03  0.92262872760E+02 0.  0.
         13    1    3    3    0    0 -0.38141223320E+03  0.57839110560E+02  0.19601337063E+03  0.43271456621E+03  0.00000000000E+00 0. -1.
        -13    1    3    3    0    0 -0.50447569434E+03  0.12203777539E+02  0.16527237360E+03  0.53099869665E+03  0.00000000000E+00 0.  1.
         22    1    1    2    0    0  0.88588792754E+03 -0.70042888099E+02 -0.17669271369E+04  0.19778106414E+04  0.00000000000E+00 0. -1.
<mgrwt>
<rscale>  0 0.25839379E+04</rscale>
<asrwt>0</asrwt>
<pdfrwt beam="1">  1        1 0.33439733E+00 0.25839379E+04</pdfrwt>
<pdfrwt beam="2">  1       -1 0.11814481E+00 0.25839379E+04</pdfrwt>
<totfact> 0.12877105E+00</totfact>
</mgrwt>
</event>
<event>
 6    1  0.1588846E-005  0.3747380E+04  0.7818608E-02  0.8057542E-01
         -2   -1    0    0    0  501 -0.00000000000E+00  0.00000000000E+00  0.20863901395E+04  0.20863901395E+04  0.00000000000E+00 0.  1.
          2   -1    0    0  501    0  0.00000000000E+00 -0.00000000000E+00 -0.16826741151E+04  0.16826741151E+04  0.00000000000E+00 0. -1.
         23    2    1    2    0    0  0.62199317987E+03  0.94271006459E+03 -0.13002968936E+04  0.17247458336E+04  0.91642769263E+02 0.  0.
         13    1    3    3    0    0  0.54445563198E+03  0.80429477821E+03 -0.11603780168E+04  0.15132082366E+04  0.00000000000E+00 0.  1.
        -13    1    3    3    0    0  0.77537547892E+02  0.13841528638E+03 -0.13991887679E+03  0.21153759694E+03  0.00000000000E+00 0. -1.
         22    1    1    2    0    0 -0.62199317987E+03 -0.94271006459E+03  0.17040129180E+04  0.20443184210E+04  0.00000000000E+00 0.  1.
<mgrwt>
<rscale>  0 0.37473802E+04</rscale>
<asrwt>0</asrwt>
<pdfrwt beam="1">  1        2 0.25887294E+00 0.37473802E+04</pdfrwt>
<pdfrwt beam="2">  1       -2 0.32098310E+00 0.37473802E+04</pdfrwt>
<totfact> 0.19062496E-01</totfact>
</mgrwt>
</event>
<event>
 6    1  0.1588846E-005  0.2091525E+04  0.7818608E-02  0.8564986E-01
         -3   -1    0    0    0  501 -0.00000000000E+00  0.00000000000E+00  0.15630636950E+04  0.15630636950E+04  0.00000000000E+00 0.  1.
          3   -1    0    0  501    0  0.00000000000E+00 -0.00000000000E+00 -0.69966393540E+03  0.69966393540E+03  0.00000000000E+00 0. -1.
         23    2    1    2    0    0  0.85252152865E+03  0.60166069988E+03  0.40403527210E+03  0.11226380344E+04  0.91011540484E+02 0.  0.
         13    1    3    3    0    0  0.68641297597E+03  0.51981168570E+03  0.35279349314E+03  0.93049997902E+03  0.00000000000E+00 0. -1.
        -13    1    3    3    0    0  0.16610855269E+03  0.81849014179E+02  0.51241778962E+02  0.19213805534E+03  0.00000000000E+00 0.  1.
         22    1    1    2    0    0 -0.85252152865E+03 -0.60166069988E+03  0.45936448749E+03  0.11400895960E+04  0.00000000000E+00 0. -1.
<mgrwt>
<rscale>  0 0.20915251E+04</rscale>
<asrwt>0</asrwt>
<pdfrwt beam="1">  1        3 0.10764061E+00 0.20915251E+04</pdfrwt>
<pdfrwt beam="2">  1       -3 0.24047134E+00 0.20915251E+04</pdfrwt>
<totfact> 0.14719287E-01</totfact>
</mgrwt>
</event>
<event>
 6    1  0.1588846E-005  0.1963195E+04  0.7818608E-02  0.8624024E-01
          2   -1    0    0  501    0  0.00000000000E+00  0.00000000000E+00  0.14037465350E+04  0.14037465350E+04  0.00000000000E+00 0. -1.
         -2   -1    0    0    0  501 -0.00000000000E+00 -0.00000000000E+00 -0.68640150602E+03  0.68640150602E+03  0.00000000000E+00 0.  1.
         23    2    1    2    0    0  0.60488526821E+03 -0.34856387463E+03 -0.37179573834E+03  0.79646702416E+03  0.93513031889E+02 0.  0.
         11    1    3    3    0    0  0.16654378668E+03 -0.62241663609E+02 -0.63038073084E+02  0.18863895734E+03  0.00000000000E+00 0.  1.
        -11    1    3    3    0    0  0.43834148153E+03 -0.28632221102E+03 -0.30875766525E+03  0.60782806681E+03  0.00000000000E+00 0. -1.
         22    1    1    2    0    0 -0.60488526821E+03  0.34856387463E+03  0.10891407673E+04  0.12936810169E+04  0.00000000000E+00 0. -1.
<mgrwt>
<rscale>  0 0.19631951E+04</rscale>
<asrwt>0</asrwt>
<pdfrwt beam="1">  1        2 0.21596101E+00 0.19631951E+04</pdfrwt>
<pdfrwt beam="2">  1       -2 0.10560023E+00 0.19631951E+04</pdfrwt>
<totfact> 0.97303181E+00</totfact>
</mgrwt>
</event>
<event>
 6    1  0.1588846E-005  0.2695830E+04  0.7818608E-02  0.8336359E-01
         -1   -1    0    0    0  501 -0.00000000000E+00  0.00000000000E+00  0.53096082373E+03  0.53096082373E+03  0.00000000000E+00 0.  1.
          1   -1    0    0  501    0  0.00000000000E+00 -0.00000000000E+00 -0.34218635577E+04  0.34218635577E+04  0.00000000000E+00 0. -1.
         23    2    1    2    0    0 -0.84056988269E+03 -0.81904414258E+03 -0.24148382672E+04  0.26863219489E+04  0.86548952216E+02 0.  0.
         11    1    3    3    0    0 -0.47341543756E+03 -0.51937103664E+03 -0.14229197189E+04  0.15869999927E+04  0.00000000000E+00 0.  1.
        -11    1    3    3    0    0 -0.36715444513E+03 -0.29967310593E+03 -0.99191854824E+03  0.10993219562E+04  0.00000000000E+00 0. -1.
         22    1    1    2    0    0  0.84056988269E+03  0.81904414258E+03 -0.47606446681E+03  0.12665024326E+04  0.00000000000E+00 0.  1.
<mgrwt>
<rscale>  0 0.26958305E+04</rscale>
<asrwt>0</asrwt>
<pdfrwt beam="1">  1        1 0.52644054E+00 0.26958305E+04</pdfrwt>
<pdfrwt beam="2">  1       -1 0.81686282E-01 0.26958305E+04</pdfrwt>
<totfact> 0.37488124E-01</totfact>
</mgrwt>
</event>
<event>
 6    1  0.1588846E-005  0.2161853E+04  0.7818608E-02  0.8534476E-01
         -2   -1    0    0    0  501 -0.00000000000E+00  0.00000000000E+00  0.57527438637E+03  0.57527438637E+03  0.00000000000E+00 0.  1.
          2   -1    0    0  501    0  0.00000000000E+00 -0.00000000000E+00 -0.20310345222E+04  0.20310345222E+04  0.00000000000E+00 0. -1.
         23    2    1    2    0    0  0.45281824204E+03 -0.17521848339E+03  0.43251299541E+03  0.65661116395E+03  0.91240627839E+02 0.  0.
         11    1    3    3    0    0  0.35470087190E+03 -0.12865865500E+03  0.38168283271E+03  0.53670060818E+03  0.00000000000E+00 0.  1.
        -11    1    3    3    0    0  0.98117370146E+02 -0.46559828395E+02  0.50830162699E+02  0.11991055577E+03  0.00000000000E+00 0. -1.
         22    1    1    2    0    0 -0.45281824204E+03  0.17521848339E+03 -0.18882731313E+04  0.19496977447E+04  0.00000000000E+00 0. -1.
<mgrwt>
<rscale>  0 0.21618530E+04</rscale>
<asrwt>0</asrwt>
<pdfrwt beam="1">  1        2 0.31246685E+00 0.21618530E+04</pdfrwt>
<pdfrwt beam="2">  1       -2 0.88503750E-01 0.21618530E+04</pdfrwt>
<totfact> 0.64659513E+00</totfact>
</mgrwt>
</event>
<event>
 6    1  0.1588846E-005  0.1706264E+04  0.7818608E-02  0.8757800E-01
          2   -1    0    0  501    0  0.00000000000E+00  0.00000000000E+00  0.18346212232E+04  0.18346212232E+04  0.00000000000E+00 0. -1.
         -2   -1    0    0    0  501 -0.00000000000E+00 -0.00000000000E+00 -0.39672186648E+03  0.39672186648E+03  0.00000000000E+00 0.  1.
         23    2    1    2    0    0 -0.63171988454E+03  0.10178333413E+03 -0.12468883891E+02  0.64609929360E+03  0.88650800911E+02 0.  0.
         11    1    3    3    0    0 -0.11405849329E+03  0.96423684905E+01  0.30763368555E+02  0.11852721210E+03  0.00000000000E+00 0. -1.
        -11    1    3    3    0    0 -0.51766139124E+03  0.92140965638E+02 -0.43232252446E+02  0.52757208150E+03  0.00000000000E+00 0.  1.
         22    1    1    2    0    0  0.63171988454E+03 -0.10178333413E+03  0.14503682407E+04  0.15852437961E+04  0.00000000000E+00 0. -1.
<mgrwt>
<rscale>  0 0.17062642E+04</rscale>
<asrwt>0</asrwt>
<pdfrwt beam="1">  1        2 0.28224941E+00 0.17062642E+04</pdfrwt>
<pdfrwt beam="2">  1       -2 0.61034134E-01 0.17062642E+04</pdfrwt>
<totfact> 0.19609608E+01</totfact>
</mgrwt>
</event>
<event>
 6    1  0.1588846E-005  0.1176313E+04  0.7818608E-02  0.9133846E-01
          2   -1    0    0  501    0  0.00000000000E+00  0.00000000000E+00  0.13461138529E+04  0.13461138529E+04  0.00000000000E+00 0.  1.
         -2   -1    0    0    0  501 -0.00000000000E+00 -0.00000000000E+00 -0.25698278563E+03  0.25698278563E+03  0.00000000000E+00 0. -1.
         23    2    1    2    0    0 -0.25942976489E+03  0.66617591902E+02  0.12560932460E+04  0.12874733257E+04  0.89864427686E+02 0.  0.
         13    1    3    3    0    0 -0.21125826041E+03  0.24134079601E+02  0.84226094527E+03  0.86868636821E+03  0.00000000000E+00 0. -1.
        -13    1    3    3    0    0 -0.48171504477E+02  0.42483512301E+02  0.41383230074E+03  0.41878695753E+03  0.00000000000E+00 0.  1.
         22    1    1    2    0    0  0.25942976489E+03 -0.66617591902E+02 -0.16696217873E+03  0.31562331281E+03  0.00000000000E+00 0. -1.
<mgrwt>
<rscale>  0 0.11763130E+04</rscale>
<asrwt>0</asrwt>
<pdfrwt beam="1">  1        2 0.20709443E+00 0.11763130E+04</pdfrwt>
<pdfrwt beam="2">  1       -2 0.39535814E-01 0.11763130E+04</pdfrwt>
<totfact> 0.92877580E+01</totfact>
</mgrwt>
</event>
<event>
 6    1  0.1588846E-005  0.1502969E+04  0.7818608E-02  0.8882481E-01
         -1   -1    0    0    0  501 -0.00000000000E+00  0.00000000000E+00  0.44641062554E+03  0.44641062554E+03  0.00000000000E+00 0.  1.
          1   -1    0    0  501    0  0.00000000000E+00 -0.00000000000E+00 -0.12650432170E+04  0.12650432170E+04  0.00000000000E+00 0. -1.
         23    2    1    2    0    0 -0.38363213824E+03  0.60257886303E+03 -0.66627080577E+03  0.98105051741E+03  0.90930893606E+02 0.  0.
         13    1    3    3    0    0 -0.28773018036E+03  0.51481244557E+03 -0.55726390597E+03  0.81139606340E+03  0.00000000000E+00 0. -1.
        -13    1    3    3    0    0 -0.95901957877E+02  0.87766417460E+02 -0.10900689981E+03  0.16965445400E+03  0.00000000000E+00 0.  1.
         22    1    1    2    0    0  0.38363213824E+03 -0.60257886303E+03 -0.15236178572E+03  0.73040332517E+03  0.00000000000E+00 0.  1.
<mgrwt>
<rscale>  0 0.15029687E+04</rscale>
<asrwt>0</asrwt>
<pdfrwt beam="1">  1        1 0.19462203E+00 0.15029687E+04</pdfrwt>
<pdfrwt beam="2">  1       -1 0.68678559E-01 0.15029687E+04</pdfrwt>
<totfact> 0.19887033E+01</totfact>
</mgrwt>
</event>
<event>
 6    1  0.1588846E-005  0.1025611E+04  0.7818608E-02  0.9280893E-01
          1   -1    0    0  501    0  0.00000000000E+00  0.00000000000E+00  0.48029980640E+03  0.48029980640E+03  0.00000000000E+00 0. -1.
         -1   -1    0    0    0  501 -0.00000000000E+00 -0.00000000000E+00 -0.54751113551E+03  0.54751113551E+03  0.00000000000E+00 0.  1.
         23    2    1    2    0    0  0.15096937696E+03 -0.35715299629E+03 -0.36380657440E+03  0.53963192243E+03  0.92181194373E+02 0.  0.
         13    1    3    3    0    0  0.10165873646E+03 -0.13085521851E+03 -0.17293816488E+03  0.23951032500E+03  0.00000000000E+00 0.  1.
        -13    1    3    3    0    0  0.49310640499E+02 -0.22629777777E+03 -0.19086840952E+03  0.30012159743E+03  0.00000000000E+00 0. -1.
         22    1    1    2    0    0 -0.15096937696E+03  0.35715299629E+03  0.29659524529E+03  0.48817901948E+03  0.00000000000E+00 0. -1.
<mgrwt>
<rscale>  0 0.10256110E+04</rscale>
<asrwt>0</asrwt>
<pdfrwt beam="1">  1        1 0.73892278E-01 0.10256110E+04</pdfrwt>
<pdfrwt beam="2">  1       -1 0.84232482E-01 0.10256110E+04</pdfrwt>
<totfact> 0.65525657E+01</totfact>
</mgrwt>
</event>
<event>
 6    1  0.1588846E-005  0.8114633E+03  0.7818608E-02  0.9543571E-01
         -2   -1    0    0    0  501 -0.00000000000E+00  0.00000000000E+00  0.14279898691E+04  0.14279898691E+04  0.00000000000E+00 0.  1.
          2   -1    0    0  501    0  0.00000000000E+00 -0.00000000000E+00 -0.11527965333E+03  0.11527965333E+03  0.00000000000E+00 0. -1.
         23    2    1    2    0    0 -0.64051142402E+02 -0.33067860188E+03  0.25311568898E+03  0.43142805541E+03  0.92799398711E+02 0.  0.
         13    1    3    3    0    0 -0.57319365385E+02 -0.24114249101E+03  0.13247867305E+03  0.28104414143E+03  0.00000000000E+00 0.  1.
        -13    1    3    3    0    0 -0.67317770176E+01 -0.89536110869E+02  0.12063701592E+03  0.15038391397E+03  0.00000000000E+00 0. -1.
         22    1    1    2    0    0  0.64051142402E+02  0.33067860188E+03  0.10595945268E+04  0.11118414670E+04  0.00000000000E+00 0.  1.
<mgrwt>
<rscale>  0 0.81146331E+03</rscale>
<asrwt>0</asrwt>
<pdfrwt beam="1">  1        2 0.17735332E-01 0.81146331E+03</pdfrwt>
<pdfrwt beam="2">  1       -2 0.21969074E+00 0.81146331E+03</pdfrwt>
<totfact> 0.33065290E+01</totfact>
</mgrwt>
</event>
<event>
 6    1  0.1588846E-005  0.1234318E+04  0.7818608E-02  0.9083338E-01
         -1   -1    0    0    0  501 -0.00000000000E+00  0.00000000000E+00  0.97086392658E+03  0.97086392658E+03  0.00000000000E+00 0.  1.
          1   -1    0    0  501    0  0.00000000000E+00 -0.00000000000E+00 -0.39231557141E+03  0.39231557141E+03  0.00000000000E+00 0. -1.
         23    2    1    2    0    0 -0.18702643881E+03  0.57060284246E+02  0.93339067379E+03  0.95802787707E+03  0.91457632037E+02 0.  0.
         13    1    3    3    0    0 -0.16961066742E+03  0.78508104814E+02  0.77290287372E+03  0.79517932143E+03  0.00000000000E+00 0.  1.
        -13    1    3    3    0    0 -0.17415771385E+02 -0.21447820567E+02  0.16048780008E+03  0.16284855564E+03  0.00000000000E+00 0. -1.
         22    1    1    2    0    0  0.18702643881E+03 -0.57060284246E+02 -0.35484231863E+03  0.40515162093E+03  0.00000000000E+00 0. -1.
<mgrwt>
<rscale>  0 0.12343177E+04</rscale>
<asrwt>0</asrwt>
<pdfrwt beam="1">  1        1 0.60356242E-01 0.12343177E+04</pdfrwt>
<pdfrwt beam="2">  1       -1 0.14936368E+00 0.12343177E+04</pdfrwt>
<totfact> 0.21454517E+01</totfact>
</mgrwt>
</event>
<event>
 6    1  0.1588846E-005  0.1390630E+04  0.7818608E-02  0.8960629E-01
         -2   -1    0    0    0  501 -0.00000000000E+00  0.00000000000E+00  0.40211770787E+03  0.40211770787E+03  0.00000000000E+00 0.  1.
          2   -1    0    0  501    0  0.00000000000E+00 -0.00000000000E+00 -0.12022927272E+04  0.12022927272E+04  0.00000000000E+00 0. -1.
         23    2    1    2    0    0  0.48877599230E+03  0.42140214105E+03 -0.69125083757E+03  0.94992879856E+03  0.89751137922E+02 0.  0.
         11    1    3    3    0    0  0.30778858430E+03  0.31087285794E+03 -0.42965501662E+03  0.61317141138E+03  0.00000000000E+00 0. -1.
        -11    1    3    3    0    0  0.18098740800E+03  0.11052928311E+03 -0.26159582096E+03  0.33675738718E+03  0.00000000000E+00 0.  1.
         22    1    1    2    0    0 -0.48877599230E+03 -0.42140214105E+03 -0.10892418174E+03  0.65448163649E+03  0.00000000000E+00 0.  1.
<mgrwt>
<rscale>  0 0.13906304E+04</rscale>
<asrwt>0</asrwt>
<pdfrwt beam="1">  1        2 0.18496811E+00 0.13906304E+04</pdfrwt>
<pdfrwt beam="2">  1       -2 0.61864263E-01 0.13906304E+04</pdfrwt>
<totfact> 0.44631548E+01</totfact>
</mgrwt>
</event>
<event>
 6    1  0.1588846E-005  0.5093151E+04  0.7818608E-02  0.7814296E-01
          2   -1    0    0  501    0  0.00000000000E+00  0.00000000000E+00  0.26764014913E+04  0.26764014913E+04  0.00000000000E+00 0. -1.
         -2   -1    0    0    0  501 -0.00000000000E+00 -0.00000000000E+00 -0.24230471756E+04  0.24230471756E+04  0.00000000000E+00 0.  1.
         23    2    1    2    0    0  0.14670611071E+04 -0.46185735347E+03 -0.19044178772E+04  0.24496257779E+04  0.90986227979E+02 0.  0.
         11    1    3    3    0    0  0.76479187139E+03 -0.25823729918E+03 -0.10663302795E+04  0.13374054637E+04  0.00000000000E+00 0.  1.
        -11    1    3    3    0    0  0.70226923570E+03 -0.20362005429E+03 -0.83808759769E+03  0.11122203142E+04  0.00000000000E+00 0. -1.
         22    1    1    2    0    0 -0.14670611071E+04  0.46185735347E+03  0.21577721929E+04  0.26498228890E+04  0.00000000000E+00 0. -1.
<mgrwt>
<rscale>  0 0.50931511E+04</rscale>
<asrwt>0</asrwt>
<pdfrwt beam="1">  1        2 0.41175407E+00 0.50931511E+04</pdfrwt>
<pdfrwt beam="2">  1       -2 0.37277649E+00 0.50931511E+04</pdfrwt>
<totfact> 0.22093215E-02</totfact>
</mgrwt>
</event>
<event>
 6    1  0.1588846E-005  0.3312696E+04  0.7818608E-02  0.8159672E-01
          2   -1    0    0  501    0  0.00000000000E+00  0.00000000000E+00  0.13843836611E+04  0.13843836611E+04  0.00000000000E+00 0. -1.
         -2   -1    0    0    0  501 -0.00000000000E+00 -0.00000000000E+00 -0.19817401629E+04  0.19817401629E+04  0.00000000000E+00 0.  1.
         23    2    1    2    0    0 -0.35440433868E+02  0.11264382379E+04  0.93283506569E+03  0.14657014075E+04  0.89332121868E+02 0.  0.
         11    1    3    3    0    0 -0.61755198487E+02  0.55852753549E+03  0.45502001833E+03  0.72305596569E+03  0.00000000000E+00 0. -1.
        -11    1    3    3    0    0  0.26314764619E+02  0.56791070237E+03  0.47781504736E+03  0.74264544178E+03  0.00000000000E+00 0.  1.
         22    1    1    2    0    0  0.35440433868E+02 -0.11264382379E+04 -0.15301915675E+04  0.19004224165E+04  0.00000000000E+00 0.  1.
<mgrwt>
<rscale>  0 0.33126960E+04</rscale>
<asrwt>0</asrwt>
<pdfrwt beam="1">  1        2 0.21298210E+00 0.33126960E+04</pdfrwt>
<pdfrwt beam="2">  1       -2 0.30488310E+00 0.33126960E+04</pdfrwt>
<totfact> 0.36559863E-01</totfact>
</mgrwt>
</event>
<event>
 6    1  0.1588846E-005  0.1481017E+04  0.7818608E-02  0.8897176E-01
          1   -1    0    0  501    0  0.00000000000E+00  0.00000000000E+00  0.61403682550E+03  0.61403682550E+03  0.00000000000E+00 0. -1.
         -1   -1    0    0    0  501 -0.00000000000E+00 -0.00000000000E+00 -0.89302868770E+03  0.89302868770E+03  0.00000000000E+00 0.  1.
         23    2    1    2    0    0 -0.26209768697E+03  0.10418781296E+03 -0.83344097018E+03  0.88500111843E+03  0.95146366004E+02 0.  0.
         11    1    3    3    0    0 -0.32853391104E+02  0.52125294274E+02 -0.20360783546E+03  0.21272644940E+03  0.00000000000E+00 0.  1.
        -11    1    3    3    0    0 -0.22924429587E+03  0.52062518687E+02 -0.62983313472E+03  0.67227466904E+03  0.00000000000E+00 0. -1.
         22    1    1    2    0    0  0.26209768697E+03 -0.10418781296E+03  0.55444910798E+03  0.62206439476E+03  0.00000000000E+00 0. -1.
<mgrwt>
<rscale>  0 0.14810165E+04</rscale>
<asrwt>0</asrwt>
<pdfrwt beam="1">  1        1 0.94467204E-01 0.14810165E+04</pdfrwt>
<pdfrwt beam="2">  1       -1 0.13738903E+00 0.14810165E+04</pdfrwt>
<totfact> 0.14128025E+01</totfact>
</mgrwt>
</event>
<event>
 6    1  0.1588846E-005  0.1609718E+04  0.7818608E-02  0.8814600E-01
         -2   -1    0    0    0  501 -0.00000000000E+00  0.00000000000E+00  0.98399992784E+03  0.98399992784E+03  0.00000000000E+00 0.  1.
          2   -1    0    0  501    0  0.00000000000E+00 -0.00000000000E+00 -0.65833144922E+03  0.65833144922E+03  0.00000000000E+00 0. -1.
         23    2    1    2    0    0 -0.64613515962E+03 -0.25443973123E+03  0.57328230284E+03  0.90507780653E+03  0.91011075061E+02 0.  0.
         11    1    3    3    0    0 -0.36958320297E+03 -0.13927351469E+03  0.38312200854E+03  0.55024660766E+03  0.00000000000E+00 0. -1.
        -11    1    3    3    0    0 -0.27655195665E+03 -0.11516621654E+03  0.19016029430E+03  0.35483119887E+03  0.00000000000E+00 0.  1.
         22    1    1    2    0    0  0.64613515962E+03  0.25443973123E+03 -0.24761382422E+03  0.73725357054E+03  0.00000000000E+00 0. -1.
<mgrwt>
<rscale>  0 0.16097181E+04</rscale>
<asrwt>0</asrwt>
<pdfrwt beam="1">  1        2 0.10128176E+00 0.16097181E+04</pdfrwt>
<pdfrwt beam="2">  1       -2 0.15138460E+00 0.16097181E+04</pdfrwt>
<totfact> 0.12391649E+01</totfact>
</mgrwt>
</event>
<event>
 6    1  0.1588846E-005  0.2540886E+04  0.7818608E-02  0.8388563E-01
         -1   -1    0    0    0  501 -0.00000000000E+00  0.00000000000E+00  0.68509664390E+03  0.68509664390E+03  0.00000000000E+00 0.  1.
          1   -1    0    0  501    0  0.00000000000E+00 -0.00000000000E+00 -0.23559092633E+04  0.23559092633E+04  0.00000000000E+00 0. -1.
         23    2    1    2    0    0  0.12213469934E+04 -0.17491785136E+03 -0.11908888589E+04  0.17171435470E+04  0.89894125603E+02 0.  0.
         11    1    3    3    0    0  0.50277119484E+03 -0.68545877857E+02 -0.55153741843E+03  0.74944708663E+03  0.00000000000E+00 0. -1.
        -11    1    3    3    0    0  0.71857579852E+03 -0.10637197350E+03 -0.63935144043E+03  0.96769646033E+03  0.00000000000E+00 0.  1.
         22    1    1    2    0    0 -0.12213469934E+04  0.17491785136E+03 -0.47992376055E+03  0.13238623602E+04  0.00000000000E+00 0.  1.
<mgrwt>
<rscale>  0 0.25408861E+04</rscale>
<asrwt>0</asrwt>
<pdfrwt beam="1">  1        1 0.36244757E+00 0.25408861E+04</pdfrwt>
<pdfrwt beam="2">  1       -1 0.10539949E+00 0.25408861E+04</pdfrwt>
<totfact> 0.12723086E+00</totfact>
</mgrwt>
</event>
<event>
 6    1  0.1588846E-005  0.8472584E+03  0.7818608E-02  0.9494024E-01
         -1   -1    0    0    0  501 -0.00000000000E+00  0.00000000000E+00  0.88940911885E+02  0.88940911885E+02  0.00000000000E+00 0.  1.
          1   -1    0    0  501    0  0.00000000000E+00 -0.00000000000E+00 -0.20177631215E+04  0.20177631215E+04  0.00000000000E+00 0. -1.
         23    2    1    2    0    0 -0.82404504129E+02  0.19312601890E+03 -0.18770386387E+04  0.18904409998E+04  0.80031000469E+02 0.  0.
         11    1    3    3    0    0 -0.34505311778E+02  0.15698907980E+03 -0.11937272340E+04  0.12045002685E+04  0.00000000000E+00 0. -1.
        -11    1    3    3    0    0 -0.47899192351E+02  0.36136939101E+02 -0.68331140472E+03  0.68594073127E+03  0.00000000000E+00 0.  1.
         22    1    1    2    0    0  0.82404504129E+02 -0.19312601890E+03 -0.51783570903E+02  0.21626303358E+03  0.00000000000E+00 0.  1.
<mgrwt>
<rscale>  0 0.84725838E+03</rscale>
<asrwt>0</asrwt>
<pdfrwt beam="1">  1        1 0.31042509E+00 0.84725838E+03</pdfrwt>
<pdfrwt beam="2">  1       -1 0.13683218E-01 0.84725838E+03</pdfrwt>
<totfact> 0.11304152E+02</totfact>
</mgrwt>
</event>
<event>
 6    1  0.1588846E-005  0.2222294E+04  0.7818608E-02  0.8509206E-01
         -1   -1    0    0    0  501 -0.00000000000E+00  0.00000000000E+00  0.17549774280E+04  0.17549774280E+04  0.00000000000E+00 0.  1.
          1   -1    0    0  501    0  0.00000000000E+00 -0.00000000000E+00 -0.70351215121E+03  0.70351215121E+03  0.00000000000E+00 0. -1.
         23    2    1    2    0    0 -0.38547789337E+02  0.24132981509E+03  0.17237739845E+04  0.17431400072E+04  0.86106464170E+02 0.  0.
         13    1    3    3    0    0 -0.31683738839E+02  0.28390702498E+02  0.41028046688E+03  0.41248024535E+03  0.00000000000E+00 0. -1.
        -13    1    3    3    0    0 -0.68640504981E+01  0.21293911259E+03  0.13134935176E+04  0.13306597618E+04  0.00000000000E+00 0.  1.
         22    1    1    2    0    0  0.38547789337E+02 -0.24132981509E+03 -0.67230870773E+03  0.71534957203E+03  0.00000000000E+00 0. -1.
<mgrwt>
<rscale>  0 0.22222943E+04</rscale>
<asrwt>0</asrwt>
<pdfrwt beam="1">  1        1 0.10823264E+00 0.22222943E+04</pdfrwt>
<pdfrwt beam="2">  1       -1 0.26999653E+00 0.22222943E+04</pdfrwt>
<totfact> 0.12713174E+00</totfact>
</mgrwt>
</event>
<event>
 6    1  0.1588846E-005  0.1594123E+04  0.7818608E-02  0.8824167E-01
          1   -1    0    0  501    0  0.00000000000E+00  0.00000000000E+00  0.40561856944E+03  0.40561856944E+03  0.00000000000E+00 0. -1.
         -1   -1    0    0    0  501 -0.00000000000E+00 -0.00000000000E+00 -0.15662672649E+04  0.15662672649E+04  0.00000000000E+00 0.  1.
         23    2    1    2    0    0 -0.71846862465E+01 -0.57602350283E+03  0.94277673774E+02  0.59105460363E+03  0.92750035928E+02 0.  0.
         13    1    3    3    0    0 -0.37660722092E+02 -0.50093601881E+03  0.84972642594E+02  0.50948559834E+03  0.00000000000E+00 0.  1.
        -13    1    3    3    0    0  0.30476035846E+02 -0.75087484021E+02  0.93050311791E+01  0.81569005282E+02  0.00000000000E+00 0. -1.
         22    1    1    2    0    0  0.71846862465E+01  0.57602350283E+03 -0.12549263693E+04  0.13808312307E+04  0.00000000000E+00 0.  1.
<mgrwt>
<rscale>  0 0.15941231E+04</rscale>
<asrwt>0</asrwt>
<pdfrwt beam="1">  1        1 0.62402856E-01 0.15941231E+04</pdfrwt>
<pdfrwt beam="2">  1       -1 0.24096420E+00 0.15941231E+04</pdfrwt>
<totfact> 0.45179441E+00</totfact>
</mgrwt>
</event>
<event>
 6    1  0.1588846E-005  0.3175211E+04  0.7818608E-02  0.8195395E-01
         -2   -1    0    0    0  501 -0.00000000000E+00  0.00000000000E+00  0.14408661148E+04  0.14408661148E+04  0.00000000000E+00 0.  1.
          2   -1    0    0  501    0  0.00000000000E+00 -0.00000000000E+00 -0.17492885117E+04  0.17492885117E+04  0.00000000000E+00 0. -1.
         23    2    1    2    0    0  0.57057041647E+03  0.14674242434E+04 -0.34870815398E+03  0.16151919436E+04  0.91450136668E+02 0.  0.
         11    1    3    3    0    0  0.27375243428E+03  0.75595625765E+03 -0.13533562039E+03  0.81530729722E+03  0.00000000000E+00 0. -1.
        -11    1    3    3    0    0  0.29681798219E+03  0.71146798578E+03 -0.21337253360E+03  0.79988464633E+03  0.00000000000E+00 0.  1.
         22    1    1    2    0    0 -0.57057041647E+03 -0.14674242434E+04  0.40285757054E+02  0.15749626829E+04  0.00000000000E+00 0.  1.
<mgrwt>
<rscale>  0 0.31752106E+04</rscale>
<asrwt>0</asrwt>
<pdfrwt beam="1">  1        2 0.26912131E+00 0.31752106E+04</pdfrwt>
<pdfrwt beam="2">  1       -2 0.22167171E+00 0.31752106E+04</pdfrwt>
<totfact> 0.74939606E-01</totfact>
</mgrwt>
</event>
<event>
 6    1  0.1752558E-005  0.2107671E+04  0.7818608E-02  0.8557872E-01
         -1   -1    0    0    0  501 -0.00000000000E+00  0.00000000000E+00  0.57538358695E+03  0.57538358695E+03  0.00000000000E+00 0.  1.
          1   -1    0    0  501    0  0.00000000000E+00 -0.00000000000E+00 -0.19301370749E+04  0.19301370749E+04  0.00000000000E+00 0. -1.
         23    2    1    2    0    0 -0.10057746243E+03 -0.54546759567E+03  0.38374019500E+03  0.68068888617E+03  0.91815568465E+02 0.  0.
         11    1    3    3    0    0 -0.10392833208E+03 -0.33755225221E+03  0.22098316420E+03  0.41662474727E+03  0.00000000000E+00 0.  1.
        -11    1    3    3    0    0  0.33508696432E+01 -0.20791534347E+03  0.16275703080E+03  0.26406413890E+03  0.00000000000E+00 0. -1.
         22    1    1    2    0    0  0.10057746243E+03  0.54546759567E+03 -0.17384936829E+04  0.18248317757E+04  0.00000000000E+00 0. -1.
<mgrwt>
<rscale>  0 0.21076709E+04</rscale>
<asrwt>0</asrwt>
<pdfrwt beam="1">  1        1 0.29694416E+00 0.21076709E+04</pdfrwt>
<pdfrwt beam="2">  1       -1 0.88520553E-01 0.21076709E+04</pdfrwt>
<totfact> 0.38268279E+00</totfact>
</mgrwt>
</event>
<event>
 6    1  0.1588846E-005  0.3626745E+04  0.7818608E-02  0.8084393E-01
         -1   -1    0    0    0  501 -0.00000000000E+00  0.00000000000E+00  0.12310108576E+04  0.12310108576E+04  0.00000000000E+00 0.  1.
          1   -1    0    0  501    0  0.00000000000E+00 -0.00000000000E+00 -0.26712353863E+04  0.26712353863E+04  0.00000000000E+00 0. -1.
         23    2    1    2    0    0  0.47152145864E+03 -0.96730464259E+03 -0.22894619153E+04  0.25314016516E+04  0.91365762014E+02 0.  0.
         13    1    3    3    0    0  0.16336227597E+03 -0.42068926843E+03 -0.89954426707E+03  0.10064027932E+04  0.00000000000E+00 0. -1.
        -13    1    3    3    0    0  0.30815918267E+03 -0.54661537416E+03 -0.13899176483E+04  0.15249988584E+04  0.00000000000E+00 0.  1.
         22    1    1    2    0    0 -0.47152145864E+03  0.96730464259E+03  0.84923738662E+03  0.13708445923E+04  0.00000000000E+00 0.  1.
<mgrwt>
<rscale>  0 0.36267450E+04</rscale>
<asrwt>0</asrwt>
<pdfrwt beam="1">  1        1 0.41095928E+00 0.36267450E+04</pdfrwt>
<pdfrwt beam="2">  1       -1 0.18938629E+00 0.36267450E+04</pdfrwt>
<totfact> 0.14810439E-01</totfact>
</mgrwt>
</event>
<event>
 6    1  0.1588846E-005  0.1610103E+04  0.7818608E-02  0.8814365E-01
         -2   -1    0    0    0  501 -0.00000000000E+00  0.00000000000E+00  0.26550486535E+03  0.26550486535E+03  0.00000000000E+00 0.  1.
          2   -1    0    0  501    0  0.00000000000E+00 -0.00000000000E+00 -0.24410400201E+04  0.24410400201E+04  0.00000000000E+00 0. -1.
         23    2    1    2    0    0  0.25124164322E+02  0.69990939388E+03 -0.17492000744E+04  0.18866266066E+04  0.95680035112E+02 0.  0.
         11    1    3    3    0    0 -0.27051122345E+02  0.48191797001E+03 -0.11850441469E+04  0.12795727112E+04  0.00000000000E+00 0. -1.
        -11    1    3    3    0    0  0.52175286667E+02  0.21799142387E+03 -0.56415592746E+03  0.60705389539E+03  0.00000000000E+00 0.  1.
         22    1    1    2    0    0 -0.25124164322E+02 -0.69990939388E+03 -0.42633508033E+03  0.81991827885E+03  0.00000000000E+00 0.  1.
<mgrwt>
<rscale>  0 0.16101031E+04</rscale>
<asrwt>0</asrwt>
<pdfrwt beam="1">  1        2 0.37554462E+00 0.16101031E+04</pdfrwt>
<pdfrwt beam="2">  1       -2 0.40846903E-01 0.16101031E+04</pdfrwt>
<totfact> 0.20514182E+01</totfact>
</mgrwt>
</event>
<event>
 6    1  0.1588846E-005  0.2449599E+04  0.7818608E-02  0.8421165E-01
         -2   -1    0    0    0  501 -0.00000000000E+00  0.00000000000E+00  0.19599916291E+04  0.19599916291E+04  0.00000000000E+00 0. -1.
          2   -1    0    0  501    0  0.00000000000E+00 -0.00000000000E+00 -0.76537748887E+03  0.76537748887E+03  0.00000000000E+00 0.  1.
         23    2    1    2    0    0  0.52959197593E+03 -0.10101968724E+04  0.10896185001E+04  0.15799480310E+04  0.89453468911E+02 0.  0.
         13    1    3    3    0    0  0.33823675320E+03 -0.55355179711E+03  0.60079489196E+03  0.88418221849E+03  0.00000000000E+00 0.  1.
        -13    1    3    3    0    0  0.19135522273E+03 -0.45664507527E+03  0.48882360810E+03  0.69576581252E+03  0.00000000000E+00 0. -1.
         22    1    1    2    0    0 -0.52959197593E+03  0.10101968724E+04  0.10499564014E+03  0.11454210869E+04  0.00000000000E+00 0.  1.
<mgrwt>
<rscale>  0 0.24495987E+04</rscale>
<asrwt>0</asrwt>
<pdfrwt beam="1">  1        2 0.11775038E+00 0.24495987E+04</pdfrwt>
<pdfrwt beam="2">  1       -2 0.30153717E+00 0.24495987E+04</pdfrwt>
<totfact> 0.10174922E+00</totfact>
</mgrwt>
</event>
<event>
 6    1  0.1588846E-005  0.1242465E+04  0.7818608E-02  0.9076478E-01
          1   -1    0    0  501    0  0.00000000000E+00  0.00000000000E+00  0.32890132094E+04  0.32890132094E+04  0.00000000000E+00 0. -1.
         -1   -1    0    0    0  501 -0.00000000000E+00 -0.00000000000E+00 -0.11733910952E+03  0.11733910952E+03  0.00000000000E+00 0.  1.
         23    2    1    2    0    0  0.41260050518E+02 -0.56989694551E+03  0.22383044772E+04  0.23119740603E+04  0.93446256452E+02 0.  0.
         11    1    3    3    0    0 -0.20953480681E+01 -0.42076623172E+03  0.15269752506E+04  0.15838882625E+04  0.00000000000E+00 0.  1.
        -11    1    3    3    0    0  0.43355398586E+02 -0.14913071379E+03  0.71132922657E+03  0.72808579779E+03  0.00000000000E+00 0. -1.
         22    1    1    2    0    0 -0.41260050518E+02  0.56989694551E+03  0.93336962271E+03  0.10943782586E+04  0.00000000000E+00 0. -1.
<mgrwt>
<rscale>  0 0.12424651E+04</rscale>
<asrwt>0</asrwt>
<pdfrwt beam="1">  1        1 0.50600196E+00 0.12424651E+04</pdfrwt>
<pdfrwt beam="2">  1       -1 0.18052173E-01 0.12424651E+04</pdfrwt>
<totfact> 0.88612415E+00</totfact>
</mgrwt>
</event>
<event>
 6    1  0.1588846E-005  0.1427837E+04  0.7818608E-02  0.8933912E-01
          2   -1    0    0  501    0  0.00000000000E+00  0.00000000000E+00  0.11009846237E+04  0.11009846237E+04  0.00000000000E+00 0. -1.
         -2   -1    0    0    0  501 -0.00000000000E+00 -0.00000000000E+00 -0.46293078671E+03  0.46293078671E+03  0.00000000000E+00 0.  1.
         23    2    1    2    0    0  0.58793728214E+03  0.33283467763E+03  0.56269014351E+03  0.88411480972E+03  0.92680250293E+02 0.  0.
         13    1    3    3    0    0  0.22832537179E+03  0.17642380405E+03  0.21235274187E+03  0.35826180513E+03  0.00000000000E+00 0. -1.
        -13    1    3    3    0    0  0.35961191036E+03  0.15641087357E+03  0.35033740163E+03  0.52585300458E+03  0.00000000000E+00 0.  1.
         22    1    1    2    0    0 -0.58793728214E+03 -0.33283467763E+03  0.75363693448E+02  0.67980060066E+03  0.00000000000E+00 0.  1.
<mgrwt>
<rscale>  0 0.14278371E+04</rscale>
<asrwt>0</asrwt>
<pdfrwt beam="1">  1        2 0.16938225E+00 0.14278371E+04</pdfrwt>
<pdfrwt beam="2">  1       -2 0.71220121E-01 0.14278371E+04</pdfrwt>
<totfact> 0.37830250E+01</totfact>
</mgrwt>
</event>
<event>
 6    1  0.1588846E-005  0.1482273E+04  0.7818608E-02  0.8896328E-01
         -2   -1    0    0    0  501 -0.00000000000E+00  0.00000000000E+00  0.23422238286E+03  0.23422238286E+03  0.00000000000E+00 0. -1.
          2   -1    0    0  501    0  0.00000000000E+00 -0.00000000000E+00 -0.23451343458E+04  0.23451343458E+04  0.00000000000E+00 0.  1.
         23    2    1    2    0    0  0.50759409554E+02 -0.62453032583E+03 -0.37863574250E+03  0.73723959083E+03  0.86847816585E+02 0.  0.
         13    1    3    3    0    0  0.44367699333E+02 -0.38673854285E+03 -0.28102029990E+03  0.48011207256E+03  0.00000000000E+00 0.  1.
        -13    1    3    3    0    0  0.63917102205E+01 -0.23779178299E+03 -0.97615442604E+02  0.25712751827E+03  0.00000000000E+00 0. -1.
         22    1    1    2    0    0 -0.50759409554E+02  0.62453032583E+03 -0.17322762204E+04  0.18421171378E+04  0.00000000000E+00 0.  1.
<mgrwt>
<rscale>  0 0.14822725E+04</rscale>
<asrwt>0</asrwt>
<pdfrwt beam="1">  1        2 0.36078990E+00 0.14822725E+04</pdfrwt>
<pdfrwt beam="2">  1       -2 0.36034213E-01 0.14822725E+04</pdfrwt>
<totfact> 0.30007104E+01</totfact>
</mgrwt>
</event>
<event>
 6    1  0.1588846E-005  0.2076424E+04  0.7818608E-02  0.8571700E-01
         -2   -1    0    0    0  501 -0.00000000000E+00  0.00000000000E+00  0.96359684110E+03  0.96359684110E+03  0.00000000000E+00 0.  1.
          2   -1    0    0  501    0  0.00000000000E+00 -0.00000000000E+00 -0.11186053709E+04  0.11186053709E+04  0.00000000000E+00 0. -1.
         23    2    1    2    0    0  0.39553526135E+03  0.91926811779E+03 -0.34714540019E+03  0.10631739531E+04  0.91251906400E+02 0.  0.
         13    1    3    3    0    0  0.12589999013E+03  0.20810813763E+03 -0.10577219340E+03  0.26523114704E+03  0.00000000000E+00 0. -1.
        -13    1    3    3    0    0  0.26963527123E+03  0.71115998015E+03 -0.24137320679E+03  0.79794280611E+03  0.00000000000E+00 0.  1.
         22    1    1    2    0    0 -0.39553526135E+03 -0.91926811779E+03  0.19213687040E+03  0.10190282588E+04  0.00000000000E+00 0. -1.
<mgrwt>
<rscale>  0 0.20764244E+04</rscale>
<asrwt>0</asrwt>
<pdfrwt beam="1">  1        2 0.17209313E+00 0.20764244E+04</pdfrwt>
<pdfrwt beam="2">  1       -2 0.14824567E+00 0.20764244E+04</pdfrwt>
<totfact> 0.60560129E+00</totfact>
</mgrwt>
</event>
<event>
 6    1  0.1588846E-005  0.2575530E+04  0.7818608E-02  0.8376561E-01
          2   -1    0    0  501    0  0.00000000000E+00  0.00000000000E+00  0.18598684166E+04  0.18598684166E+04  0.00000000000E+00 0. -1.
         -2   -1    0    0    0  501 -0.00000000000E+00 -0.00000000000E+00 -0.89164326704E+03  0.89164326704E+03  0.00000000000E+00 0.  1.
         23    2    1    2    0    0  0.53333822395E+02  0.10811876974E+04 -0.25715009462E+03  0.11164716772E+04  0.92582402713E+02 0.  0.
         11    1    3    3    0    0  0.54881852976E+02  0.50990875398E+03 -0.85270334381E+02  0.51989420567E+03  0.00000000000E+00 0.  1.
        -11    1    3    3    0    0 -0.15480305808E+01  0.57127894339E+03 -0.17187976024E+03  0.59657747153E+03  0.00000000000E+00 0. -1.
         22    1    1    2    0    0 -0.53333822395E+02 -0.10811876974E+04  0.12253752441E+04  0.16350400064E+04  0.00000000000E+00 0. -1.
<mgrwt>
<rscale>  0 0.25755304E+04</rscale>
<asrwt>0</asrwt>
<pdfrwt beam="1">  1        2 0.28613360E+00 0.25755304E+04</pdfrwt>
<pdfrwt beam="2">  1       -2 0.13717589E+00 0.25755304E+04</pdfrwt>
<totfact> 0.26829190E+00</totfact>
</mgrwt>
</event>
<event>
 6    1  0.1588846E-005  0.2724358E+04  0.7818608E-02  0.8327145E-01
          1   -1    0    0  501    0  0.00000000000E+00  0.00000000000E+00  0.18292895845E+04  0.18292895845E+04  0.00000000000E+00 0. -1.
         -1   -1    0    0    0  501 -0.00000000000E+00 -0.00000000000E+00 -0.10143452742E+04  0.10143452742E+04  0.00000000000E+00 0.  1.
         23    2    1    2    0    0 -0.72397387574E+02  0.12638018627E+04  0.92879579180E+03  0.15726515034E+04  0.90192008248E+02 0.  0.
         11    1    3    3    0    0 -0.17915476578E+02  0.82364829851E+03  0.64250757066E+03  0.10447647880E+04  0.00000000000E+00 0. -1.
        -11    1    3    3    0    0 -0.54481910996E+02  0.44015356418E+03  0.28628822114E+03  0.52788671536E+03  0.00000000000E+00 0.  1.
         22    1    1    2    0    0  0.72397387574E+02 -0.12638018627E+04 -0.11385148150E+03  0.12709833554E+04  0.00000000000E+00 0.  1.
<mgrwt>
<rscale>  0 0.27243577E+04</rscale>
<asrwt>0</asrwt>
<pdfrwt beam="1">  1        1 0.28142917E+00 0.27243577E+04</pdfrwt>
<pdfrwt beam="2">  1       -1 0.15605312E+00 0.27243577E+04</pdfrwt>
<totfact> 0.10620654E+00</totfact>
</mgrwt>
</event>
<event>
 6    1  0.1588846E-005  0.3841792E+04  0.7818608E-02  0.8037245E-01
          1   -1    0    0  501    0  0.00000000000E+00  0.00000000000E+00  0.26871772368E+04  0.26871772368E+04  0.00000000000E+00 0. -1.
         -1   -1    0    0    0  501 -0.00000000000E+00 -0.00000000000E+00 -0.13731292197E+04  0.13731292197E+04  0.00000000000E+00 0.  1.
         23    2    1    2    0    0  0.13726377316E+04 -0.10832657852E+04 -0.18007419547E+03  0.17603063935E+04  0.93020319390E+02 0.  0.
         11    1    3    3    0    0  0.10920753895E+04 -0.84927522082E+03 -0.10559604380E+03  0.13874608397E+04  0.00000000000E+00 0. -1.
        -11    1    3    3    0    0  0.28056234206E+03 -0.23399056433E+03 -0.74478151669E+02  0.37284555389E+03  0.00000000000E+00 0.  1.
         22    1    1    2    0    0 -0.13726377316E+04  0.10832657852E+04  0.14941222126E+04  0.23000000630E+04  0.00000000000E+00 0. -1.
<mgrwt>
<rscale>  0 0.38417921E+04</rscale>
<asrwt>0</asrwt>
<pdfrwt beam="1">  1        1 0.41341188E+00 0.38417921E+04</pdfrwt>
<pdfrwt beam="2">  1       -1 0.21125065E+00 0.38417921E+04</pdfrwt>
<totfact> 0.10014848E-01</totfact>
</mgrwt>
</event>
<event>
 6    1  0.1588846E-005  0.3653928E+04  0.7818608E-02  0.8078249E-01
         -2   -1    0    0    0  501 -0.00000000000E+00  0.00000000000E+00  0.91216575178E+03  0.91216575178E+03  0.00000000000E+00 0.  1.
          2   -1    0    0  501    0  0.00000000000E+00 -0.00000000000E+00 -0.36591995890E+04  0.36591995890E+04  0.00000000000E+00 0. -1.
         23    2    1    2    0    0  0.14479712290E+04  0.10652350725E+04 -0.17764262873E+04  0.25284690009E+04  0.78222084236E+02 0.  0.
         13    1    3    3    0    0  0.42822899139E+03  0.27642815859E+03 -0.48018490019E+03  0.70026433174E+03  0.00000000000E+00 0. -1.
        -13    1    3    3    0    0  0.10197422376E+04  0.78880691392E+03 -0.12962413871E+04  0.18282046691E+04  0.00000000000E+00 0.  1.
         22    1    1    2    0    0 -0.14479712290E+04 -0.10652350725E+04 -0.97060754992E+03  0.20428963399E+04  0.00000000000E+00 0.  1.
<mgrwt>
<rscale>  0 0.36539275E+04</rscale>
<asrwt>0</asrwt>
<pdfrwt beam="1">  1        2 0.56295378E+00 0.36539275E+04</pdfrwt>
<pdfrwt beam="2">  1       -2 0.14033319E+00 0.36539275E+04</pdfrwt>
<totfact> 0.18077284E-01</totfact>
</mgrwt>
</event>
<event>
 6    1  0.1588846E-005  0.4206949E+04  0.7818608E-02  0.7964052E-01
         -2   -1    0    0    0  501 -0.00000000000E+00  0.00000000000E+00  0.23435537211E+04  0.23435537211E+04  0.00000000000E+00 0.  1.
          2   -1    0    0  501    0  0.00000000000E+00 -0.00000000000E+00 -0.18879892346E+04  0.18879892346E+04  0.00000000000E+00 0. -1.
         23    2    1    2    0    0 -0.18176537083E+04 -0.89560367352E+03 -0.33624168357E+03  0.20560136054E+04  0.90346734699E+02 0.  0.
         13    1    3    3    0    0 -0.12486941669E+04 -0.60261824533E+03 -0.18894817681E+03  0.13993167210E+04  0.00000000000E+00 0. -1.
        -13    1    3    3    0    0 -0.56895954140E+03 -0.29298542819E+03 -0.14729350677E+03  0.65669688443E+03  0.00000000000E+00 0.  1.
         22    1    1    2    0    0  0.18176537083E+04  0.89560367352E+03  0.79180617009E+03  0.21755293504E+04  0.00000000000E+00 0.  1.
<mgrwt>
<rscale>  0 0.42069486E+04</rscale>
<asrwt>0</asrwt>
<pdfrwt beam="1">  1        2 0.29045988E+00 0.42069486E+04</pdfrwt>
<pdfrwt beam="2">  1       -2 0.36054673E+00 0.42069486E+04</pdfrwt>
<totfact> 0.79791270E-02</totfact>
</mgrwt>
</event>
<event>
 6    1  0.1588846E-005  0.1053002E+04  0.7818608E-02  0.9252250E-01
          1   -1    0    0  501    0  0.00000000000E+00  0.00000000000E+00  0.18428756001E+03  0.18428756001E+03  0.00000000000E+00 0. -1.
         -1   -1    0    0    0  501 -0.00000000000E+00 -0.00000000000E+00 -0.15041879396E+04  0.15041879396E+04  0.00000000000E+00 0.  1.
         23    2    1    2    0    0 -0.17334971651E+03  0.23880255120E+03 -0.13564208112E+04  0.13911364262E+04  0.91139214309E+02 0.  0.
         13    1    3    3    0    0 -0.53614786927E+02  0.12769134054E+03 -0.47804516264E+03  0.49770151833E+03  0.00000000000E+00 0. -1.
        -13    1    3    3    0    0 -0.11973492959E+03  0.11111121067E+03 -0.87837564857E+03  0.89343490782E+03  0.00000000000E+00 0.  1.
         22    1    1    2    0    0  0.17334971651E+03 -0.23880255120E+03  0.36520431639E+02  0.29733907345E+03  0.00000000000E+00 0. -1.
<mgrwt>
<rscale>  0 0.10530017E+04</rscale>
<asrwt>0</asrwt>
<pdfrwt beam="1">  1        1 0.28351932E-01 0.10530017E+04</pdfrwt>
<pdfrwt beam="2">  1       -1 0.23141353E+00 0.10530017E+04</pdfrwt>
<totfact> 0.15337100E+01</totfact>
</mgrwt>
</event>
<event>
 6    1  0.1588846E-005  0.1084040E+04  0.7818608E-02  0.9220888E-01
         -1   -1    0    0    0  501 -0.00000000000E+00  0.00000000000E+00  0.85444402602E+03  0.85444402602E+03  0.00000000000E+00 0. -1.
          1   -1    0    0  501    0  0.00000000000E+00 -0.00000000000E+00 -0.34383270422E+03  0.34383270422E+03  0.00000000000E+00 0.  1.
         23    2    1    2    0    0 -0.20174894672E+03  0.38210859721E+03 -0.97737732051E+02  0.45208761957E+03  0.90116224630E+02 0.  0.
         13    1    3    3    0    0 -0.12124575707E+03  0.22522657153E+03 -0.10282751044E+03  0.27568285953E+03  0.00000000000E+00 0.  1.
        -13    1    3    3    0    0 -0.80503189642E+02  0.15688202568E+03  0.50897783895E+01  0.17640476005E+03  0.00000000000E+00 0. -1.
         22    1    1    2    0    0  0.20174894672E+03 -0.38210859721E+03  0.60834905385E+03  0.74618911067E+03  0.00000000000E+00 0. -1.
<mgrwt>
<rscale>  0 0.10840402E+04</rscale>
<asrwt>0</asrwt>
<pdfrwt beam="1">  1        1 0.52897339E-01 0.10840402E+04</pdfrwt>
<pdfrwt beam="2">  1       -1 0.13145293E+00 0.10840402E+04</pdfrwt>
<totfact> 0.36068247E+01</totfact>
</mgrwt>
</event>
<event>
 6    1  0.1588846E-005  0.1300737E+04  0.7818608E-02  0.9028981E-01
          2   -1    0    0  501    0  0.00000000000E+00  0.00000000000E+00  0.21502572849E+03  0.21502572849E+03  0.00000000000E+00 0. -1.
         -2   -1    0    0    0  501 -0.00000000000E+00 -0.00000000000E+00 -0.19671098001E+04  0.19671098001E+04  0.00000000000E+00 0.  1.
         23    2    1    2    0    0 -0.64348347999E+03 -0.57691009683E+02 -0.82152797103E+03  0.10492922482E+04  0.93310092193E+02 0.  0.
         11    1    3    3    0    0 -0.25548601267E+03  0.21058006812E+02 -0.34321455660E+03  0.42838390980E+03  0.00000000000E+00 0. -1.
        -11    1    3    3    0    0 -0.38799746732E+03 -0.78749016494E+02 -0.47831341443E+03  0.62090833838E+03  0.00000000000E+00 0.  1.
         22    1    1    2    0    0  0.64348347999E+03  0.57691009683E+02 -0.93055610058E+03  0.11328432804E+04  0.00000000000E+00 0.  1.
<mgrwt>
<rscale>  0 0.13007370E+04</rscale>
<asrwt>0</asrwt>
<pdfrwt beam="1">  1        2 0.33080882E-01 0.13007370E+04</pdfrwt>
<pdfrwt beam="2">  1       -2 0.30263227E+00 0.13007370E+04</pdfrwt>
<totfact> 0.48172998E+00</totfact>
</mgrwt>
</event>
<event>
 6    1  0.1588846E-005  0.5451090E+04  0.7818608E-02  0.7762455E-01
         -2   -1    0    0    0  501 -0.00000000000E+00  0.00000000000E+00  0.38274920805E+04  0.38274920805E+04  0.00000000000E+00 0. -1.
          2   -1    0    0  501    0  0.00000000000E+00 -0.00000000000E+00 -0.19408517478E+04  0.19408517478E+04  0.00000000000E+00 0.  1.
         23    2    1    2    0    0 -0.16626256384E+04  0.21350383796E+04  0.60596669020E+03  0.27745439227E+04  0.90473497634E+02 0.  0.
         11    1    3    3    0    0 -0.10534659582E+04  0.12811460939E+04  0.37341074998E+03  0.17001651176E+04  0.00000000000E+00 0.  1.
        -11    1    3    3    0    0 -0.60915968025E+03  0.85389228562E+03  0.23255594022E+03  0.10743788051E+04  0.00000000000E+00 0. -1.
         22    1    1    2    0    0  0.16626256384E+04 -0.21350383796E+04  0.12806736425E+04  0.29937999055E+04  0.00000000000E+00 0. -1.
<mgrwt>
<rscale>  0 0.54510897E+04</rscale>
<asrwt>0</asrwt>
<pdfrwt beam="1">  1        2 0.29859258E+00 0.54510897E+04</pdfrwt>
<pdfrwt beam="2">  1       -2 0.58884494E+00 0.54510897E+04</pdfrwt>
<totfact> 0.28963079E-03</totfact>
</mgrwt>
</event>
<event>
 6    1  0.1588846E-005  0.2764982E+04  0.7818608E-02  0.8314223E-01
          1   -1    0    0  501    0  0.00000000000E+00  0.00000000000E+00  0.13861620521E+04  0.13861620521E+04  0.00000000000E+00 0. -1.
         -1   -1    0    0    0  501 -0.00000000000E+00 -0.00000000000E+00 -0.13788298915E+04  0.13788298915E+04  0.00000000000E+00 0.  1.
         23    2    1    2    0    0  0.65448570423E+02  0.13732415324E+04  0.13357690696E+03  0.13844074450E+04  0.93087926099E+02 0.  0.
         11    1    3    3    0    0  0.84857549505E+02  0.11438349586E+04  0.94222340606E+02  0.11508418943E+04  0.00000000000E+00 0. -1.
        -11    1    3    3    0    0 -0.19408979082E+02  0.22940657381E+03  0.39354566358E+02  0.23356555069E+03  0.00000000000E+00 0.  1.
         22    1    1    2    0    0 -0.65448570423E+02 -0.13732415324E+04 -0.12624474636E+03  0.13805844986E+04  0.00000000000E+00 0.  1.
<mgrwt>
<rscale>  0 0.27649822E+04</rscale>
<asrwt>0</asrwt>
<pdfrwt beam="1">  1        1 0.21325570E+00 0.27649822E+04</pdfrwt>
<pdfrwt beam="2">  1       -1 0.21212767E+00 0.27649822E+04</pdfrwt>
<totfact> 0.84843908E-01</totfact>
</mgrwt>
</event>
<event>
 6    1  0.1588846E-005  0.3243059E+04  0.7818608E-02  0.8177537E-01
          2   -1    0    0  501    0  0.00000000000E+00  0.00000000000E+00  0.42387964528E+04  0.42387964528E+04  0.00000000000E+00 0.  1.
         -2   -1    0    0    0  501 -0.00000000000E+00 -0.00000000000E+00 -0.62030783227E+03  0.62030783227E+03  0.00000000000E+00 0. -1.
         23    2    1    2    0    0 -0.24660789136E+03  0.14876238859E+04  0.92280609415E+03  0.17703270900E+04  0.92987311617E+02 0.  0.
         13    1    3    3    0    0 -0.23445401195E+03  0.13056845192E+04  0.78160908141E+03  0.15397056548E+04  0.00000000000E+00 0.  1.
        -13    1    3    3    0    0 -0.12153879413E+02  0.18193936674E+03  0.14119701273E+03  0.23062143517E+03  0.00000000000E+00 0. -1.
         22    1    1    2    0    0  0.24660789136E+03 -0.14876238859E+04  0.26956825263E+04  0.30887771951E+04  0.00000000000E+00 0.  1.
<mgrwt>
<rscale>  0 0.32430594E+04</rscale>
<asrwt>0</asrwt>
<pdfrwt beam="1">  1        2 0.65212251E+00 0.32430594E+04</pdfrwt>
<pdfrwt beam="2">  1       -2 0.95431977E-01 0.32430594E+04</pdfrwt>
<totfact> 0.16601502E-01</totfact>
</mgrwt>
</event>
<event>
 6    1  0.1588846E-005  0.2652965E+04  0.7818608E-02  0.8350429E-01
         -1   -1    0    0    0  501 -0.00000000000E+00  0.00000000000E+00  0.86457527737E+03  0.86457527737E+03  0.00000000000E+00 0.  1.
          1   -1    0    0  501    0  0.00000000000E+00 -0.00000000000E+00 -0.20351684006E+04  0.20351684006E+04  0.00000000000E+00 0. -1.
         23    2    1    2    0    0  0.93050824206E+03  0.92861052705E+03 -0.40768234383E+03  0.13798107989E+04  0.97518448726E+02 0.  0.
         13    1    3    3    0    0  0.64778481454E+03  0.65721782825E+03 -0.23968802374E+03  0.95342057270E+03  0.00000000000E+00 0.  1.
        -13    1    3    3    0    0  0.28272342752E+03  0.27139269879E+03 -0.16799432010E+03  0.42639022622E+03  0.00000000000E+00 0. -1.
         22    1    1    2    0    0 -0.93050824206E+03 -0.92861052705E+03 -0.76291077937E+03  0.15199328790E+04  0.00000000000E+00 0.  1.
<mgrwt>
<rscale>  0 0.26529653E+04</rscale>
<asrwt>0</asrwt>
<pdfrwt beam="1">  1        1 0.31310283E+00 0.26529653E+04</pdfrwt>
<pdfrwt beam="2">  1       -1 0.13301158E+00 0.26529653E+04</pdfrwt>
<totfact> 0.11829776E+00</totfact>
</mgrwt>
</event>
<event>
 6    1  0.1588846E-005  0.6514832E+03  0.7818608E-02  0.9804000E-01
         -1   -1    0    0    0  501 -0.00000000000E+00  0.00000000000E+00  0.12528088077E+03  0.12528088077E+03  0.00000000000E+00 0.  1.
          1   -1    0    0  501    0  0.00000000000E+00 -0.00000000000E+00 -0.84695747176E+03  0.84695747176E+03  0.00000000000E+00 0. -1.
         23    2    1    2    0    0  0.26842913771E+03  0.13955626527E+03 -0.52194279811E+03  0.60971422758E+03  0.88300632276E+02 0.  0.
         13    1    3    3    0    0  0.45288608269E+02  0.50706486274E+02 -0.68050808751E+02  0.96193130529E+02  0.00000000000E+00 0. -1.
        -13    1    3    3    0    0  0.22314052944E+03  0.88849778991E+02 -0.45389198936E+03  0.51352109705E+03  0.00000000000E+00 0.  1.
         22    1    1    2    0    0 -0.26842913771E+03 -0.13955626527E+03 -0.19973379288E+03  0.36252412494E+03  0.00000000000E+00 0. -1.
<mgrwt>
<rscale>  0 0.65148316E+03</rscale>
<asrwt>0</asrwt>
<pdfrwt beam="1">  1        1 0.13030115E+00 0.65148316E+03</pdfrwt>
<pdfrwt beam="2">  1       -1 0.19273981E-01 0.65148316E+03</pdfrwt>
<totfact> 0.44346562E+02</totfact>
</mgrwt>
</event>
<event>
 6    1  0.1588846E-005  0.1996664E+04  0.7818608E-02  0.8608182E-01
         -1   -1    0    0    0  501 -0.00000000000E+00  0.00000000000E+00  0.29429323660E+03  0.29429323660E+03  0.00000000000E+00 0.  1.
          1   -1    0    0  501    0  0.00000000000E+00 -0.00000000000E+00 -0.33866442520E+04  0.33866442520E+04  0.00000000000E+00 0. -1.
         23    2    1    2    0    0  0.54045001671E+03  0.81930265853E+03 -0.18733460439E+04  0.21159083555E+04  0.65572112443E+02 0.  0.
         13    1    3    3    0    0  0.32808170757E+03  0.45181230051E+03 -0.11084752942E+04  0.12411645498E+04  0.00000000000E+00 0.  1.
        -13    1    3    3    0    0  0.21236830915E+03  0.36749035802E+03 -0.76487074962E+03  0.87474380569E+03  0.00000000000E+00 0. -1.
         22    1    1    2    0    0 -0.54045001671E+03 -0.81930265853E+03 -0.12190049715E+04  0.15650291331E+04  0.00000000000E+00 0.  1.
<mgrwt>
<rscale>  0 0.19966637E+04</rscale>
<asrwt>0</asrwt>
<pdfrwt beam="1">  1        1 0.52102222E+00 0.19966637E+04</pdfrwt>
<pdfrwt beam="2">  1       -1 0.45275880E-01 0.19966637E+04</pdfrwt>
<totfact> 0.13817976E+00</totfact>
</mgrwt>
</event>
<event>
 6    1  0.1588846E-005  0.1787964E+04  0.7818608E-02  0.8712727E-01
         -2   -1    0    0    0  501 -0.00000000000E+00  0.00000000000E+00  0.37153817702E+03  0.37153817702E+03  0.00000000000E+00 0.  1.
          2   -1    0    0  501    0  0.00000000000E+00 -0.00000000000E+00 -0.21510666542E+04  0.21510666542E+04  0.00000000000E+00 0. -1.
         23    2    1    2    0    0  0.10807790900E+03 -0.25620523017E+03 -0.20873963359E+04  0.21077499497E+04  0.89802188466E+02 0.  0.
         11    1    3    3    0    0  0.23546679654E+02 -0.14170267430E+01 -0.18959368663E+03  0.19105554192E+03  0.00000000000E+00 0.  1.
        -11    1    3    3    0    0  0.84531229350E+02 -0.25478820343E+03 -0.18978026492E+04  0.19166944078E+04  0.00000000000E+00 0. -1.
         22    1    1    2    0    0 -0.10807790900E+03  0.25620523017E+03  0.30786785864E+03  0.41485488158E+03  0.00000000000E+00 0.  1.
<mgrwt>
<rscale>  0 0.17879635E+04</rscale>
<asrwt>0</asrwt>
<pdfrwt beam="1">  1        2 0.33093334E+00 0.17879635E+04</pdfrwt>
<pdfrwt beam="2">  1       -2 0.57159718E-01 0.17879635E+04</pdfrwt>
<totfact> 0.14915883E+01</totfact>
</mgrwt>
</event>
<event>
 6    1  0.1588846E-005  0.7049170E+03  0.7818608E-02  0.9708860E-01
          1   -1    0    0  501    0  0.00000000000E+00  0.00000000000E+00  0.59858114546E+03  0.59858114546E+03  0.00000000000E+00 0. -1.
         -1   -1    0    0    0  501 -0.00000000000E+00 -0.00000000000E+00 -0.20753577680E+03  0.20753577680E+03  0.00000000000E+00 0.  1.
         23    2    1    2    0    0  0.15333260357E+03 -0.16949893520E+03 -0.10066377248E+03  0.26388205080E+03  0.85204256308E+02 0.  0.
         13    1    3    3    0    0  0.64407373814E+02 -0.11292771635E+03 -0.20823840968E+02  0.13166097096E+03  0.00000000000E+00 0.  1.
        -13    1    3    3    0    0  0.88925229755E+02 -0.56571218842E+02 -0.79839931514E+02  0.13222107983E+03  0.00000000000E+00 0. -1.
         22    1    1    2    0    0 -0.15333260357E+03  0.16949893520E+03  0.49170914115E+03  0.54223487147E+03  0.00000000000E+00 0. -1.
<mgrwt>
<rscale>  0 0.70491702E+03</rscale>
<asrwt>0</asrwt>
<pdfrwt beam="1">  1        1 0.92089406E-01 0.70491702E+03</pdfrwt>
<pdfrwt beam="2">  1       -1 0.31928581E-01 0.70491702E+03</pdfrwt>
<totfact> 0.31778464E+02</totfact>
</mgrwt>
</event>
<event>
 6    1  0.1588846E-005  0.3449509E+04  0.7818608E-02  0.8125861E-01
          2   -1    0    0  501    0  0.00000000000E+00  0.00000000000E+00  0.25751284373E+04  0.25751284373E+04  0.00000000000E+00 0. -1.
         -2   -1    0    0    0  501 -0.00000000000E+00 -0.00000000000E+00 -0.11551961781E+04  0.11551961781E+04  0.00000000000E+00 0.  1.
         23    2    1    2    0    0 -0.69149073455E+03  0.43728789485E+03  0.23509039141E+04  0.24909342970E+04  0.92867217342E+02 0.  0.
         11    1    3    3    0    0 -0.44803219073E+03  0.26123796277E+03  0.13621883441E+04  0.14575785406E+04  0.00000000000E+00 0.  1.
        -11    1    3    3    0    0 -0.24345854383E+03  0.17604993208E+03  0.98871556998E+03  0.10333557565E+04  0.00000000000E+00 0. -1.
         22    1    1    2    0    0  0.69149073455E+03 -0.43728789485E+03 -0.93097165486E+03  0.12393903183E+04  0.00000000000E+00 0.  1.
<mgrwt>
<rscale>  0 0.34495093E+04</rscale>
<asrwt>0</asrwt>
<pdfrwt beam="1">  1        2 0.39617360E+00 0.34495093E+04</pdfrwt>
<pdfrwt beam="2">  1       -2 0.17772249E+00 0.34495093E+04</pdfrwt>
<totfact> 0.48822678E-01</totfact>
</mgrwt>
</event>
<event>
 6    1  0.1588846E-005  0.6578649E+03  0.7818608E-02  0.9792132E-01
         -1   -1    0    0    0  501 -0.00000000000E+00  0.00000000000E+00  0.28460096738E+03  0.28460096738E+03  0.00000000000E+00 0.  1.
          1   -1    0    0  501    0  0.00000000000E+00 -0.00000000000E+00 -0.38016932789E+03  0.38016932789E+03  0.00000000000E+00 0. -1.
         23    2    1    2    0    0  0.94311981159E+02 -0.12590861904E+03 -0.33337968286E+03  0.37963531815E+03  0.90737157229E+02 0.  0.
         13    1    3    3    0    0  0.81528522795E+02 -0.10207096922E+03 -0.17189581116E+03  0.21590171996E+03  0.00000000000E+00 0. -1.
        -13    1    3    3    0    0  0.12783458365E+02 -0.23837649817E+02 -0.16148387170E+03  0.16373359819E+03  0.00000000000E+00 0.  1.
         22    1    1    2    0    0 -0.94311981159E+02  0.12590861904E+03  0.23781132235E+03  0.28513497712E+03  0.00000000000E+00 0.  1.
<mgrwt>
<rscale>  0 0.65786491E+03</rscale>
<asrwt>0</asrwt>
<pdfrwt beam="1">  1        1 0.58487589E-01 0.65786491E+03</pdfrwt>
<pdfrwt beam="2">  1       -1 0.43784764E-01 0.65786491E+03</pdfrwt>
<totfact> 0.33524550E+02</totfact>
</mgrwt>
</event>
<event>
 6    1  0.1588846E-005  0.4670167E+04  0.7818608E-02  0.7881504E-01
         -2   -1    0    0    0  501 -0.00000000000E+00  0.00000000000E+00  0.25548361238E+04  0.25548361238E+04  0.00000000000E+00 0. -1.
          2   -1    0    0  501    0  0.00000000000E+00 -0.00000000000E+00 -0.21342331410E+04  0.21342331410E+04  0.00000000000E+00 0.  1.
         23    2    1    2    0    0 -0.87961696826E+03  0.17045264206E+04  0.15459732932E+04  0.24651999645E+04  0.89672250767E+02 0.  0.
         13    1    3    3    0    0 -0.53498093250E+03  0.11294142452E+04  0.10005969740E+04  0.16009295549E+04  0.00000000000E+00 0.  1.
        -13    1    3    3    0    0 -0.34463603576E+03  0.57511217535E+03  0.54537631917E+03  0.86427040959E+03  0.00000000000E+00 0. -1.
         22    1    1    2    0    0  0.87961696826E+03 -0.17045264206E+04 -0.11253703104E+04  0.22238693003E+04  0.00000000000E+00 0.  1.
<mgrwt>
<rscale>  0 0.46701674E+04</rscale>
<asrwt>0</asrwt>
<pdfrwt beam="1">  1        2 0.32834356E+00 0.46701674E+04</pdfrwt>
<pdfrwt beam="2">  1       -2 0.39305171E+00 0.46701674E+04</pdfrwt>
<totfact> 0.34630788E-02</totfact>
</mgrwt>
</event>
<event>
 6    1  0.1588846E-005  0.2741894E+04  0.7818608E-02  0.8321538E-01
         -2   -1    0    0    0  501 -0.00000000000E+00  0.00000000000E+00  0.15645035153E+04  0.15645035153E+04  0.00000000000E+00 0.  1.
          2   -1    0    0  501    0  0.00000000000E+00 -0.00000000000E+00 -0.12013369312E+04  0.12013369312E+04  0.00000000000E+00 0. -1.
         23    2    1    2    0    0 -0.65128371648E+03  0.92290683519E+03 -0.59954302936E+03  0.12816782903E+04  0.85556355870E+02 0.  0.
         13    1    3    3    0    0 -0.26832678168E+03  0.31123271681E+03 -0.22935408413E+03  0.47060425167E+03  0.00000000000E+00 0. -1.
        -13    1    3    3    0    0 -0.38295693481E+03  0.61167411838E+03 -0.37018894523E+03  0.81107403866E+03  0.00000000000E+00 0.  1.
         22    1    1    2    0    0  0.65128371648E+03 -0.92290683519E+03  0.96270961347E+03  0.14841621561E+04  0.00000000000E+00 0.  1.
<mgrwt>
<rscale>  0 0.27418941E+04</rscale>
<asrwt>0</asrwt>
<pdfrwt beam="1">  1        2 0.18482107E+00 0.27418941E+04</pdfrwt>
<pdfrwt beam="2">  1       -2 0.24069285E+00 0.27418941E+04</pdfrwt>
<totfact> 0.12123634E+00</totfact>
</mgrwt>
</event>
<event>
 6    1  0.1588846E-005  0.7280956E+03  0.7818608E-02  0.9670356E-01
          2   -1    0    0  501    0  0.00000000000E+00  0.00000000000E+00  0.76502041073E+03  0.76502041073E+03  0.00000000000E+00 0. -1.
         -2   -1    0    0    0  501 -0.00000000000E+00 -0.00000000000E+00 -0.17323827341E+03  0.17323827341E+03  0.00000000000E+00 0.  1.
         23    2    1    2    0    0  0.10347823103E+03  0.15485074486E+03 -0.94620629199E+02  0.22703772314E+03  0.88918877519E+02 0.  0.
         11    1    3    3    0    0  0.11215519161E+03  0.10280444896E+03 -0.58063105727E+02  0.16284614204E+03  0.00000000000E+00 0. -1.
        -11    1    3    3    0    0 -0.86769605841E+01  0.52046295893E+02 -0.36557523472E+02  0.64191581096E+02  0.00000000000E+00 0.  1.
         22    1    1    2    0    0 -0.10347823103E+03 -0.15485074486E+03  0.68640276652E+03  0.71122096100E+03  0.00000000000E+00 0. -1.
<mgrwt>
<rscale>  0 0.72809564E+03</rscale>
<asrwt>0</asrwt>
<pdfrwt beam="1">  1        2 0.11769545E+00 0.72809564E+03</pdfrwt>
<pdfrwt beam="2">  1       -2 0.26652042E-01 0.72809564E+03</pdfrwt>
<totfact> 0.46884350E+02</totfact>
</mgrwt>
</event>
<event>
 6    1  0.1588846E-005  0.2786788E+04  0.7818608E-02  0.8307382E-01
         -4   -1    0    0    0  501 -0.00000000000E+00  0.00000000000E+00  0.64138865736E+03  0.64138865736E+03  0.00000000000E+00 0.  1.
          4   -1    0    0  501    0  0.00000000000E+00 -0.00000000000E+00 -0.30270982458E+04  0.30270982458E+04  0.00000000000E+00 0. -1.
         23    2    1    2    0    0 -0.72957771999E+03 -0.65111403685E+03 -0.24981021260E+04  0.26841773884E+04  0.89782413061E+02 0.  0.
         13    1    3    3    0    0 -0.29606814102E+03 -0.28311030814E+03 -0.93276876190E+03  0.10187567688E+04  0.00000000000E+00 0. -1.
        -13    1    3    3    0    0 -0.43350957897E+03 -0.36800372871E+03 -0.15653333641E+04  0.16654206196E+04  0.00000000000E+00 0.  1.
         22    1    1    2    0    0  0.72957771999E+03  0.65111403685E+03  0.11239253754E+03  0.98430951483E+03  0.00000000000E+00 0.  1.
<mgrwt>
<rscale>  0 0.27867877E+04</rscale>
<asrwt>0</asrwt>
<pdfrwt beam="1">  1        4 0.46570742E+00 0.27867877E+04</pdfrwt>
<pdfrwt beam="2">  1       -4 0.98675179E-01 0.27867877E+04</pdfrwt>
<totfact> 0.33199689E-03</totfact>
</mgrwt>
</event>
<event>
 6    1  0.1588846E-005  0.1065361E+04  0.7818608E-02  0.9239627E-01
          1   -1    0    0  501    0  0.00000000000E+00  0.00000000000E+00  0.33398045462E+03  0.33398045462E+03  0.00000000000E+00 0. -1.
         -1   -1    0    0    0  501 -0.00000000000E+00 -0.00000000000E+00 -0.84959547694E+03  0.84959547694E+03  0.00000000000E+00 0.  1.
         23    2    1    2    0    0  0.24363219701E+02  0.30509405723E+03 -0.73875086801E+03  0.80480745891E+03  0.91028845436E+02 0.  0.
         13    1    3    3    0    0 -0.20993455802E+02  0.55499896517E+02 -0.85905850556E+02  0.10440679508E+03  0.00000000000E+00 0. -1.
        -13    1    3    3    0    0  0.45356675503E+02  0.24959416071E+03 -0.65284501746E+03  0.70040066383E+03  0.00000000000E+00 0.  1.
         22    1    1    2    0    0 -0.24363219701E+02 -0.30509405723E+03  0.22313584570E+03  0.37876847264E+03  0.00000000000E+00 0. -1.
<mgrwt>
<rscale>  0 0.10653606E+04</rscale>
<asrwt>0</asrwt>
<pdfrwt beam="1">  1        1 0.51381609E-01 0.10653606E+04</pdfrwt>
<pdfrwt beam="2">  1       -1 0.13070700E+00 0.10653606E+04</pdfrwt>
<totfact> 0.38064881E+01</totfact>
</mgrwt>
</event>
<event>
 6    1  0.1588846E-005  0.1594055E+04  0.7818608E-02  0.8824209E-01
          2   -1    0    0  501    0  0.00000000000E+00  0.00000000000E+00  0.19013779596E+04  0.19013779596E+04  0.00000000000E+00 0. -1.
         -2   -1    0    0    0  501 -0.00000000000E+00 -0.00000000000E+00 -0.33410110551E+03  0.33410110551E+03  0.00000000000E+00 0.  1.
         23    2    1    2    0    0  0.56136658755E+03 -0.55286719858E+03  0.64566479393E+03  0.10229761272E+04  0.93821883983E+02 0.  0.
         13    1    3    3    0    0  0.15439624797E+03 -0.13148911784E+03  0.11848328984E+03  0.23487417795E+03  0.00000000000E+00 0.  1.
        -13    1    3    3    0    0  0.40697033958E+03 -0.42137808074E+03  0.52718150409E+03  0.78810194929E+03  0.00000000000E+00 0. -1.
         22    1    1    2    0    0 -0.56136658755E+03  0.55286719858E+03  0.92161206011E+03  0.12125029378E+04  0.00000000000E+00 0. -1.
<mgrwt>
<rscale>  0 0.15940546E+04</rscale>
<asrwt>0</asrwt>
<pdfrwt beam="1">  1        2 0.29251968E+00 0.15940546E+04</pdfrwt>
<pdfrwt beam="2">  1       -2 0.51400171E-01 0.15940546E+04</pdfrwt>
<totfact> 0.26007102E+01</totfact>
</mgrwt>
</event>
<event>
 6    1  0.1588846E-005  0.3274199E+04  0.7818608E-02  0.8169492E-01
         -4   -1    0    0    0  501 -0.00000000000E+00  0.00000000000E+00  0.18806239892E+04  0.18806239892E+04  0.00000000000E+00 0.  1.
          4   -1    0    0  501    0  0.00000000000E+00 -0.00000000000E+00 -0.14251091848E+04  0.14251091848E+04  0.00000000000E+00 0. -1.
         23    2    1    2    0    0 -0.12207046067E+04  0.69668035884E+03  0.10722297621E+04  0.17708649065E+04  0.10393553442E+03 0.  0.
         11    1    3    3    0    0 -0.29881126605E+03  0.17898579029E+03  0.32280637389E+03  0.47489792679E+03  0.00000000000E+00 0. -1.
        -11    1    3    3    0    0 -0.92189334065E+03  0.51769456855E+03  0.74942338817E+03  0.12959669797E+04  0.00000000000E+00 0.  1.
         22    1    1    2    0    0  0.12207046067E+04 -0.69668035884E+03 -0.61671495766E+03  0.15348682674E+04  0.00000000000E+00 0. -1.
<mgrwt>
<rscale>  0 0.32741988E+04</rscale>
<asrwt>0</asrwt>
<pdfrwt beam="1">  1        4 0.21924757E+00 0.32741988E+04</pdfrwt>
<pdfrwt beam="2">  1       -4 0.28932677E+00 0.32741988E+04</pdfrwt>
<totfact> 0.58780890E-03</totfact>
</mgrwt>
</event>
<event>
 6    1  0.1588846E-005  0.2691479E+04  0.7818608E-02  0.8337775E-01
          1   -1    0    0  501    0  0.00000000000E+00  0.00000000000E+00  0.12680135836E+04  0.12680135836E+04  0.00000000000E+00 0. -1.
         -1   -1    0    0    0  501 -0.00000000000E+00 -0.00000000000E+00 -0.14282297778E+04  0.14282297778E+04  0.00000000000E+00 0.  1.
         23    2    1    2    0    0  0.98359754907E+03 -0.91431167127E+03 -0.22030595969E+02  0.13462340169E+04  0.91818899630E+02 0.  0.
         13    1    3    3    0    0  0.40838094362E+03 -0.40176867195E+03  0.33017718927E+02  0.57383205787E+03  0.00000000000E+00 0. -1.
        -13    1    3    3    0    0  0.57521660546E+03 -0.51254299932E+03 -0.55048314896E+02  0.77240195903E+03  0.00000000000E+00 0.  1.
         22    1    1    2    0    0 -0.98359754907E+03  0.91431167127E+03 -0.13818559824E+03  0.13500093445E+04  0.00000000000E+00 0. -1.
<mgrwt>
<rscale>  0 0.26914790E+04</rscale>
<asrwt>0</asrwt>
<pdfrwt beam="1">  1        1 0.19507901E+00 0.26914790E+04</pdfrwt>
<pdfrwt beam="2">  1       -1 0.21972766E+00 0.26914790E+04</pdfrwt>
<totfact> 0.92095501E-01</totfact>
</mgrwt>
</event>
<event>
 6    1  0.1588846E-005  0.2117372E+04  0.7818608E-02  0.8553629E-01
         -1   -1    0    0    0  501 -0.00000000000E+00  0.00000000000E+00  0.65608615541E+03  0.65608615541E+03  0.00000000000E+00 0.  1.
          1   -1    0    0  501    0  0.00000000000E+00 -0.00000000000E+00 -0.17083367219E+04  0.17083367219E+04  0.00000000000E+00 0. -1.
         23    2    1    2    0    0  0.57950337411E+03 -0.79742036219E+03 -0.95198742474E+03  0.13735868201E+04  0.93580451601E+02 0.  0.
         11    1    3    3    0    0  0.25114036677E+03 -0.31758867325E+03 -0.45110662710E+03  0.60616106623E+03  0.00000000000E+00 0. -1.
        -11    1    3    3    0    0  0.32836300734E+03 -0.47983168894E+03 -0.50088079764E+03  0.76742575390E+03  0.00000000000E+00 0.  1.
         22    1    1    2    0    0 -0.57950337411E+03  0.79742036219E+03 -0.10026314175E+03  0.99083605719E+03  0.00000000000E+00 0.  1.
<mgrwt>
<rscale>  0 0.21173720E+04</rscale>
<asrwt>0</asrwt>
<pdfrwt beam="1">  1        1 0.26282103E+00 0.21173720E+04</pdfrwt>
<pdfrwt beam="2">  1       -1 0.10093633E+00 0.21173720E+04</pdfrwt>
<totfact> 0.40294514E+00</totfact>
</mgrwt>
</event>
<event>
 6    1  0.1680487E-005  0.3382941E+04  0.7818608E-02  0.8142106E-01
         -1   -1    0    0    0  501 -0.00000000000E+00  0.00000000000E+00  0.10024512300E+04  0.10024512300E+04  0.00000000000E+00 0.  1.
          1   -1    0    0  501    0  0.00000000000E+00 -0.00000000000E+00 -0.28540759108E+04  0.28540759108E+04  0.00000000000E+00 0. -1.
         23    2    1    2    0    0  0.69348110317E+03 -0.43545128600E+03  0.75913216936E+03  0.11203646468E+04  0.91659305693E+02 0.  0.
         11    1    3    3    0    0  0.33414900612E+03 -0.25723850575E+03  0.35905616634E+03  0.55384884013E+03  0.00000000000E+00 0. -1.
        -11    1    3    3    0    0  0.35933209705E+03 -0.17821278025E+03  0.40007600302E+03  0.56651580668E+03  0.00000000000E+00 0.  1.
         22    1    1    2    0    0 -0.69348110317E+03  0.43545128600E+03 -0.26107568501E+04  0.27361624940E+04  0.00000000000E+00 0. -1.
<mgrwt>
<rscale>  0 0.33829407E+04</rscale>
<asrwt>0</asrwt>
<pdfrwt beam="1">  1        1 0.43908860E+00 0.33829407E+04</pdfrwt>
<pdfrwt beam="2">  1       -1 0.15422327E+00 0.33829407E+04</pdfrwt>
<totfact> 0.20308566E-01</totfact>
</mgrwt>
</event>
<event>
 6    1  0.1588846E-005  0.7159928E+03  0.7818608E-02  0.9690267E-01
          2   -1    0    0  501    0  0.00000000000E+00  0.00000000000E+00  0.11750180737E+04  0.11750180737E+04  0.00000000000E+00 0. -1.
         -2   -1    0    0    0  501 -0.00000000000E+00 -0.00000000000E+00 -0.10907186983E+03  0.10907186983E+03  0.00000000000E+00 0.  1.
         23    2    1    2    0    0  0.13220675856E+03  0.11644128478E+03  0.10886224699E+04  0.11064627698E+04  0.90132009668E+02 0.  0.
         11    1    3    3    0    0  0.49281116025E+01  0.21884966446E+02  0.39495653683E+02  0.45421852672E+02  0.00000000000E+00 0.  1.
        -11    1    3    3    0    0  0.12727864696E+03  0.94556318334E+02  0.10491268163E+04  0.10610409172E+04  0.00000000000E+00 0. -1.
         22    1    1    2    0    0 -0.13220675856E+03 -0.11644128478E+03 -0.22676266024E+02  0.17762717374E+03  0.00000000000E+00 0.  1.
<mgrwt>
<rscale>  0 0.71599279E+03</rscale>
<asrwt>0</asrwt>
<pdfrwt beam="1">  1        2 0.18077200E+00 0.71599279E+03</pdfrwt>
<pdfrwt beam="2">  1       -2 0.16780288E-01 0.71599279E+03</pdfrwt>
<totfact> 0.57228615E+02</totfact>
</mgrwt>
</event>
<event>
 6    1  0.1588846E-005  0.1166194E+04  0.7818608E-02  0.9142973E-01
          2   -1    0    0  501    0  0.00000000000E+00  0.00000000000E+00  0.10532849219E+04  0.10532849219E+04  0.00000000000E+00 0.  1.
         -2   -1    0    0    0  501 -0.00000000000E+00 -0.00000000000E+00 -0.32280146151E+03  0.32280146151E+03  0.00000000000E+00 0. -1.
         23    2    1    2    0    0 -0.10268689114E+02  0.56678161609E+03  0.22617616656E+03  0.61735540806E+03  0.92871929192E+02 0.  0.
         13    1    3    3    0    0  0.29040372405E+02  0.28232162841E+03  0.78616457900E+02  0.29449854422E+03  0.00000000000E+00 0. -1.
        -13    1    3    3    0    0 -0.39309061519E+02  0.28445998768E+03  0.14755970866E+03  0.32285686384E+03  0.00000000000E+00 0.  1.
         22    1    1    2    0    0  0.10268689114E+02 -0.56678161609E+03  0.50430729381E+03  0.75873097531E+03  0.00000000000E+00 0.  1.
<mgrwt>
<rscale>  0 0.11661937E+04</rscale>
<asrwt>0</asrwt>
<pdfrwt beam="1">  1        2 0.16204383E+00 0.11661937E+04</pdfrwt>
<pdfrwt beam="2">  1       -2 0.49661764E-01 0.11661937E+04</pdfrwt>
<totfact> 0.88377110E+01</totfact>
</mgrwt>
</event>
<event>
 6    1  0.1588846E-005  0.1781388E+04  0.7818608E-02  0.8716260E-01
          2   -1    0    0  501    0  0.00000000000E+00  0.00000000000E+00  0.51964751807E+03  0.51964751807E+03  0.00000000000E+00 0. -1.
         -2   -1    0    0    0  501 -0.00000000000E+00 -0.00000000000E+00 -0.15266811878E+04  0.15266811878E+04  0.00000000000E+00 0.  1.
         23    2    1    2    0    0  0.63275656085E+03  0.48035088712E+03 -0.47986205444E+02  0.80098141341E+03  0.90281275216E+02 0.  0.
         13    1    3    3    0    0  0.44534223004E+03  0.35808268277E+03 -0.71823138879E+02  0.57594398411E+03  0.00000000000E+00 0.  1.
        -13    1    3    3    0    0  0.18741433081E+03  0.12226820435E+03  0.23836933435E+02  0.22503742929E+03  0.00000000000E+00 0. -1.
         22    1    1    2    0    0 -0.63275656085E+03 -0.48035088712E+03 -0.95904746425E+03  0.12453472924E+04  0.00000000000E+00 0. -1.
<mgrwt>
<rscale>  0 0.17813883E+04</rscale>
<asrwt>0</asrwt>
<pdfrwt beam="1">  1        2 0.79945773E-01 0.17813883E+04</pdfrwt>
<pdfrwt beam="2">  1       -2 0.23487403E+00 0.17813883E+04</pdfrwt>
<totfact> 0.44345075E+00</totfact>
</mgrwt>
</event>
<event>
 6    1  0.1588846E-005  0.3559439E+04  0.7818608E-02  0.8099846E-01
          2   -1    0    0  501    0  0.00000000000E+00  0.00000000000E+00  0.29317992707E+04  0.29317992707E+04  0.00000000000E+00 0. -1.
         -2   -1    0    0    0  501 -0.00000000000E+00 -0.00000000000E+00 -0.10803608974E+04  0.10803608974E+04  0.00000000000E+00 0.  1.
         23    2    1    2    0    0  0.24613839305E+03  0.15922535489E+04  0.17753437796E+04  0.23991983398E+04  0.91932940512E+02 0.  0.
         11    1    3    3    0    0  0.19197777755E+03  0.98913188068E+03  0.11416505532E+04  0.15226960728E+04  0.00000000000E+00 0.  1.
        -11    1    3    3    0    0  0.54160615493E+02  0.60312166819E+03  0.63369322638E+03  0.87650226701E+03  0.00000000000E+00 0. -1.
         22    1    1    2    0    0 -0.24613839305E+03 -0.15922535489E+04  0.76094593810E+02  0.16129618283E+04  0.00000000000E+00 0.  1.
<mgrwt>
<rscale>  0 0.35594389E+04</rscale>
<asrwt>0</asrwt>
<pdfrwt beam="1">  1        2 0.45104604E+00 0.35594389E+04</pdfrwt>
<pdfrwt beam="2">  1       -2 0.16620937E+00 0.35594389E+04</pdfrwt>
<totfact> 0.35607098E-01</totfact>
</mgrwt>
</event>
<event>
 6    1  0.1588846E-005  0.2856645E+04  0.7818608E-02  0.8285895E-01
          2   -1    0    0  501    0  0.00000000000E+00  0.00000000000E+00  0.14712991963E+04  0.14712991963E+04  0.00000000000E+00 0. -1.
         -2   -1    0    0    0  501 -0.00000000000E+00 -0.00000000000E+00 -0.13866014564E+04  0.13866014564E+04  0.00000000000E+00 0.  1.
         23    2    1    2    0    0  0.12004106666E+04  0.25410929028E+03 -0.68617622297E+03  0.14088306176E+04  0.91698419492E+02 0.  0.
         13    1    3    3    0    0  0.59929473748E+03  0.10654104404E+03 -0.38753318368E+03  0.72158654705E+03  0.00000000000E+00 0.  1.
        -13    1    3    3    0    0  0.60111592914E+03  0.14756824624E+03 -0.29864303928E+03  0.68724407053E+03  0.00000000000E+00 0. -1.
         22    1    1    2    0    0 -0.12004106666E+04 -0.25410929028E+03  0.77087396288E+03  0.14490700351E+04  0.00000000000E+00 0. -1.
<mgrwt>
<rscale>  0 0.28566453E+04</rscale>
<asrwt>0</asrwt>
<pdfrwt beam="1">  1        2 0.22635372E+00 0.28566453E+04</pdfrwt>
<pdfrwt beam="2">  1       -2 0.21332330E+00 0.28566453E+04</pdfrwt>
<totfact> 0.12443337E+00</totfact>
</mgrwt>
</event>
<event>
 6    1  0.1588846E-005  0.2283550E+04  0.7818608E-02  0.8484436E-01
          1   -1    0    0  501    0  0.00000000000E+00  0.00000000000E+00  0.18008454143E+04  0.18008454143E+04  0.00000000000E+00 0. -1.
         -1   -1    0    0    0  501 -0.00000000000E+00 -0.00000000000E+00 -0.72391000811E+03  0.72391000811E+03  0.00000000000E+00 0.  1.
         23    2    1    2    0    0 -0.76693256929E+03 -0.52699396181E+03  0.12673506551E+04  0.15749311394E+04  0.91226143441E+02 0.  0.
         13    1    3    3    0    0 -0.45677667064E+03 -0.32275510791E+03  0.83469909940E+03  0.10047578679E+04  0.00000000000E+00 0. -1.
        -13    1    3    3    0    0 -0.31015589865E+03 -0.20423885389E+03  0.43265155571E+03  0.57017327153E+03  0.00000000000E+00 0.  1.
         22    1    1    2    0    0  0.76693256929E+03  0.52699396181E+03 -0.19041524890E+03  0.94982428303E+03  0.00000000000E+00 0.  1.
<mgrwt>
<rscale>  0 0.22835499E+04</rscale>
<asrwt>0</asrwt>
<pdfrwt beam="1">  1        1 0.27705314E+00 0.22835499E+04</pdfrwt>
<pdfrwt beam="2">  1       -1 0.11137077E+00 0.22835499E+04</pdfrwt>
<totfact> 0.27289086E+00</totfact>
</mgrwt>
</event>
<event>
 6    1  0.1588846E-005  0.2779089E+03  0.7818608E-02  0.1096837E+00
         -1   -1    0    0    0  501 -0.00000000000E+00  0.00000000000E+00  0.96732509101E+01  0.96732509101E+01  0.00000000000E+00 0.  1.
          1   -1    0    0  501    0  0.00000000000E+00 -0.00000000000E+00 -0.19960555063E+04  0.19960555063E+04  0.00000000000E+00 0. -1.
         23    2    1    2    0    0 -0.16459560996E+01 -0.91977155829E+02 -0.16991139961E+04  0.17040906311E+04  0.92054335455E+02 0.  0.
         11    1    3    3    0    0 -0.42889826634E+02 -0.23720220749E+02 -0.53085020176E+03  0.53310798419E+03  0.00000000000E+00 0. -1.
        -11    1    3    3    0    0  0.41243870534E+02 -0.68256935079E+02 -0.11682637944E+04  0.11709826469E+04  0.00000000000E+00 0.  1.
         22    1    1    2    0    0  0.16459560996E+01  0.91977155829E+02 -0.28726825927E+03  0.30163812615E+03  0.00000000000E+00 0.  1.
<mgrwt>
<rscale>  0 0.27790895E+03</rscale>
<asrwt>0</asrwt>
<pdfrwt beam="1">  1        1 0.30708567E+00 0.27790895E+03</pdfrwt>
<pdfrwt beam="2">  1       -1 0.14881915E-02 0.27790895E+03</pdfrwt>
<totfact> 0.35830489E+03</totfact>
</mgrwt>
</event>
<event>
 6    1  0.1588846E-005  0.5466020E+04  0.7818608E-02  0.7760382E-01
         -1   -1    0    0    0  501 -0.00000000000E+00  0.00000000000E+00  0.28573324932E+04  0.28573324932E+04  0.00000000000E+00 0.  1.
          1   -1    0    0  501    0  0.00000000000E+00 -0.00000000000E+00 -0.26140969789E+04  0.26140969789E+04  0.00000000000E+00 0. -1.
         23    2    1    2    0    0  0.14986879394E+04  0.52028622572E+03 -0.21050430288E+04  0.26374966197E+04  0.91754940735E+02 0.  0.
         13    1    3    3    0    0  0.84816889827E+03  0.26169615444E+03 -0.12321539681E+04  0.15185778737E+04  0.00000000000E+00 0. -1.
        -13    1    3    3    0    0  0.65051904117E+03  0.25859007128E+03 -0.87288906070E+03  0.11189187460E+04  0.00000000000E+00 0.  1.
         22    1    1    2    0    0 -0.14986879394E+04 -0.52028622572E+03  0.23482785431E+04  0.28339328525E+04  0.00000000000E+00 0.  1.
<mgrwt>
<rscale>  0 0.54660202E+04</rscale>
<asrwt>0</asrwt>
<pdfrwt beam="1">  1        1 0.40216876E+00 0.54660202E+04</pdfrwt>
<pdfrwt beam="2">  1       -1 0.43958962E+00 0.54660202E+04</pdfrwt>
<totfact> 0.30050071E-03</totfact>
</mgrwt>
</event>
<event>
 6    1  0.1588846E-005  0.1941509E+04  0.7818608E-02  0.8634466E-01
          1   -1    0    0  501    0  0.00000000000E+00  0.00000000000E+00  0.75306403995E+03  0.75306403995E+03  0.00000000000E+00 0. -1.
         -1   -1    0    0    0  501 -0.00000000000E+00 -0.00000000000E+00 -0.12513739506E+04  0.12513739506E+04  0.00000000000E+00 0.  1.
         23    2    1    2    0    0  0.92097222078E+03 -0.28765929909E+03 -0.16113135168E+03  0.98236799079E+03  0.90254379588E+02 0.  0.
         11    1    3    3    0    0  0.34115021652E+03 -0.14079854568E+03 -0.91178959190E+02  0.38015957609E+03  0.00000000000E+00 0.  1.
        -11    1    3    3    0    0  0.57982200426E+03 -0.14686075341E+03 -0.69952392485E+02  0.60220841470E+03  0.00000000000E+00 0. -1.
         22    1    1    2    0    0 -0.92097222078E+03  0.28765929909E+03 -0.33717855898E+03  0.10220699998E+04  0.00000000000E+00 0.  1.
<mgrwt>
<rscale>  0 0.19415094E+04</rscale>
<asrwt>0</asrwt>
<pdfrwt beam="1">  1        1 0.11585601E+00 0.19415094E+04</pdfrwt>
<pdfrwt beam="2">  1       -1 0.19251907E+00 0.19415094E+04</pdfrwt>
<totfact> 0.38489735E+00</totfact>
</mgrwt>
</event>
<event>
 6    1  0.1588846E-005  0.3140286E+04  0.7818608E-02  0.8204768E-01
         -2   -1    0    0    0  501 -0.00000000000E+00  0.00000000000E+00  0.12078229420E+04  0.12078229420E+04  0.00000000000E+00 0. -1.
          2   -1    0    0  501    0  0.00000000000E+00 -0.00000000000E+00 -0.20411504020E+04  0.20411504020E+04  0.00000000000E+00 0.  1.
         23    2    1    2    0    0  0.12425862576E+03  0.61190518887E+03  0.10717274706E+04  0.12442034183E+04  0.97847885579E+02 0.  0.
         11    1    3    3    0    0  0.29023420041E+01  0.83269194817E+02  0.90260704698E+02  0.12283801206E+03  0.00000000000E+00 0. -1.
        -11    1    3    3    0    0  0.12135628376E+03  0.52863599406E+03  0.98146676587E+03  0.11213654062E+04  0.00000000000E+00 0.  1.
         22    1    1    2    0    0 -0.12425862576E+03 -0.61190518887E+03 -0.19050549306E+04  0.20047699257E+04  0.00000000000E+00 0.  1.
<mgrwt>
<rscale>  0 0.31402855E+04</rscale>
<asrwt>0</asrwt>
<pdfrwt beam="1">  1        2 0.31402314E+00 0.31402855E+04</pdfrwt>
<pdfrwt beam="2">  1       -2 0.18581891E+00 0.31402855E+04</pdfrwt>
<totfact> 0.88719095E-01</totfact>
</mgrwt>
</event>
<event>
 6    1  0.1588846E-005  0.1621090E+04  0.7818608E-02  0.8807695E-01
         -3   -1    0    0    0  501 -0.00000000000E+00  0.00000000000E+00  0.73515637783E+03  0.73515637783E+03  0.00000000000E+00 0.  1.
          3   -1    0    0  501    0  0.00000000000E+00 -0.00000000000E+00 -0.89366449401E+03  0.89366449401E+03  0.00000000000E+00 0. -1.
         23    2    1    2    0    0  0.60007211211E+03 -0.52422370231E+03  0.53392902836E+02  0.80432158643E+03  0.95840401356E+02 0.  0.
         11    1    3    3    0    0  0.48344251055E+03 -0.43423224828E+03  0.69564538914E+01  0.64986360008E+03  0.00000000000E+00 0. -1.
        -11    1    3    3    0    0  0.11662960156E+03 -0.89991454023E+02  0.46436448945E+02  0.15445798635E+03  0.00000000000E+00 0.  1.
         22    1    1    2    0    0 -0.60007211211E+03  0.52422370231E+03 -0.21190101901E+03  0.82449928541E+03  0.00000000000E+00 0. -1.
<mgrwt>
<rscale>  0 0.16210899E+04</rscale>
<asrwt>0</asrwt>
<pdfrwt beam="1">  1        3 0.13748684E+00 0.16210899E+04</pdfrwt>
<pdfrwt beam="2">  1       -3 0.11310098E+00 0.16210899E+04</pdfrwt>
<totfact> 0.66122240E-01</totfact>
</mgrwt>
</event>
<event>
 6    1  0.1588846E-005  0.5142872E+04  0.7818608E-02  0.7806838E-01
          1   -1    0    0  501    0  0.00000000000E+00  0.00000000000E+00  0.23379142308E+04  0.23379142308E+04  0.00000000000E+00 0. -1.
         -1   -1    0    0    0  501 -0.00000000000E+00 -0.00000000000E+00 -0.28282833268E+04  0.28282833268E+04  0.00000000000E+00 0.  1.
         23    2    1    2    0    0 -0.11315356957E+04 -0.18729086104E+04  0.11099162388E+04  0.24552802135E+04  0.91253361470E+02 0.  0.
         13    1    3    3    0    0 -0.69813627939E+03 -0.11436970578E+04  0.63006530033E+03  0.14806821088E+04  0.00000000000E+00 0.  1.
        -13    1    3    3    0    0 -0.43339941628E+03 -0.72921155266E+03  0.47985093845E+03  0.97459810471E+03  0.00000000000E+00 0. -1.
         22    1    1    2    0    0  0.11315356957E+04  0.18729086104E+04 -0.16002853348E+04  0.27109173441E+04  0.00000000000E+00 0.  1.
<mgrwt>
<rscale>  0 0.51428723E+04</rscale>
<asrwt>0</asrwt>
<pdfrwt beam="1">  1        1 0.35967911E+00 0.51428723E+04</pdfrwt>
<pdfrwt beam="2">  1       -1 0.43512051E+00 0.51428723E+04</pdfrwt>
<totfact> 0.51392041E-03</totfact>
</mgrwt>
</event>
<event>
 6    1  0.1588846E-005  0.2107729E+04  0.7818608E-02  0.8557846E-01
         -2   -1    0    0    0  501 -0.00000000000E+00  0.00000000000E+00  0.38223633828E+03  0.38223633828E+03  0.00000000000E+00 0. -1.
          2   -1    0    0  501    0  0.00000000000E+00 -0.00000000000E+00 -0.29056116014E+04  0.29056116014E+04  0.00000000000E+00 0.  1.
         23    2    1    2    0    0 -0.45369463077E+03  0.33543858467E+03 -0.26487671065E+04  0.27098505552E+04  0.94683605028E+02 0.  0.
         13    1    3    3    0    0 -0.31173799378E+03  0.17585420480E+03 -0.15972260163E+04  0.16368372629E+04  0.00000000000E+00 0. -1.
        -13    1    3    3    0    0 -0.14195663699E+03  0.15958437988E+03 -0.10515410902E+04  0.10730132923E+04  0.00000000000E+00 0.  1.
         22    1    1    2    0    0  0.45369463077E+03 -0.33543858467E+03  0.12539184336E+03  0.57799738447E+03  0.00000000000E+00 0. -1.
<mgrwt>
<rscale>  0 0.21077290E+04</rscale>
<asrwt>0</asrwt>
<pdfrwt beam="1">  1        2 0.44701718E+00 0.21077290E+04</pdfrwt>
<pdfrwt beam="2">  1       -2 0.58805589E-01 0.21077290E+04</pdfrwt>
<totfact> 0.49672934E+00</totfact>
</mgrwt>
</event>
<event>
 6    1  0.1588846E-005  0.3624725E+04  0.7818608E-02  0.8084852E-01
          2   -1    0    0  501    0  0.00000000000E+00  0.00000000000E+00  0.14461184321E+04  0.14461184321E+04  0.00000000000E+00 0. -1.
         -2   -1    0    0    0  501 -0.00000000000E+00 -0.00000000000E+00 -0.22713613328E+04  0.22713613328E+04  0.00000000000E+00 0.  1.
         23    2    1    2    0    0  0.16976900881E+04  0.48928110534E+03 -0.41501176598E+01  0.17692136143E+04  0.92476777506E+02 0.  0.
         13    1    3    3    0    0  0.44443336814E+03  0.16073463857E+03 -0.27387832007E+02  0.47339912980E+03  0.00000000000E+00 0. -1.
        -13    1    3    3    0    0  0.12532567199E+04  0.32854646677E+03  0.23237714347E+02  0.12958144845E+04  0.00000000000E+00 0.  1.
         22    1    1    2    0    0 -0.16976900881E+04 -0.48928110534E+03 -0.82109278297E+03  0.19482661506E+04  0.00000000000E+00 0.  1.
<mgrwt>
<rscale>  0 0.36247248E+04</rscale>
<asrwt>0</asrwt>
<pdfrwt beam="1">  1        2 0.22247976E+00 0.36247248E+04</pdfrwt>
<pdfrwt beam="2">  1       -2 0.34944020E+00 0.36247248E+04</pdfrwt>
<totfact> 0.17368543E-01</totfact>
</mgrwt>
</event>
<event>
 6    1  0.1588846E-005  0.5674183E+03  0.7818608E-02  0.9975408E-01
          1   -1    0    0  501    0  0.00000000000E+00  0.00000000000E+00  0.51339573706E+03  0.51339573706E+03  0.00000000000E+00 0. -1.
         -1   -1    0    0    0  501 -0.00000000000E+00 -0.00000000000E+00 -0.15678137143E+03  0.15678137143E+03  0.00000000000E+00 0.  1.
         23    2    1    2    0    0 -0.13868105670E+03  0.12200863736E+03  0.42571957306E+03  0.47296130594E+03  0.91305525296E+02 0.  0.
         11    1    3    3    0    0 -0.66094948432E+02  0.20344302035E+02  0.82124594726E+02  0.10736331726E+03  0.00000000000E+00 0. -1.
        -11    1    3    3    0    0 -0.72586108270E+02  0.10166433532E+03  0.34359497834E+03  0.36559798868E+03  0.00000000000E+00 0.  1.
         22    1    1    2    0    0  0.13868105670E+03 -0.12200863736E+03 -0.69105207434E+02  0.19721580254E+03  0.00000000000E+00 0.  1.
<mgrwt>
<rscale>  0 0.56741832E+03</rscale>
<asrwt>0</asrwt>
<pdfrwt beam="1">  1        1 0.78983959E-01 0.56741832E+03</pdfrwt>
<pdfrwt beam="2">  1       -1 0.24120211E-01 0.56741832E+03</pdfrwt>
<totfact> 0.64174387E+02</totfact>
</mgrwt>
</event>
<event>
 6    1  0.1588846E-005  0.1336131E+04  0.7818608E-02  0.9001394E-01
          2   -1    0    0  501    0  0.00000000000E+00  0.00000000000E+00  0.21629272512E+04  0.21629272512E+04  0.00000000000E+00 0. -1.
         -2   -1    0    0    0  501 -0.00000000000E+00 -0.00000000000E+00 -0.20634606841E+03  0.20634606841E+03  0.00000000000E+00 0.  1.
         23    2    1    2    0    0 -0.32068058350E+03 -0.49583849756E+02  0.20119448772E+04  0.20400929231E+04  0.93607431747E+02 0.  0.
         13    1    3    3    0    0 -0.55190616527E+02  0.20121734527E+01  0.17971512790E+03  0.18800952154E+03  0.00000000000E+00 0.  1.
        -13    1    3    3    0    0 -0.26548996697E+03 -0.51596023209E+02  0.18322297493E+04  0.18520834015E+04  0.00000000000E+00 0. -1.
         22    1    1    2    0    0  0.32068058350E+03  0.49583849756E+02 -0.55363694386E+02  0.32918039651E+03  0.00000000000E+00 0.  1.
<mgrwt>
<rscale>  0 0.13361310E+04</rscale>
<asrwt>0</asrwt>
<pdfrwt beam="1">  1        2 0.33275802E+00 0.13361310E+04</pdfrwt>
<pdfrwt beam="2">  1       -2 0.31745550E-01 0.13361310E+04</pdfrwt>
<totfact> 0.48929203E+01</totfact>
</mgrwt>
</event>
<event>
 6    1  0.1588846E-005  0.1911508E+04  0.7818608E-02  0.8649149E-01
          2   -1    0    0  501    0  0.00000000000E+00  0.00000000000E+00  0.19450330313E+04  0.19450330313E+04  0.00000000000E+00 0.  1.
         -2   -1    0    0    0  501 -0.00000000000E+00 -0.00000000000E+00 -0.46964041649E+03  0.46964041649E+03  0.00000000000E+00 0. -1.
         23    2    1    2    0    0  0.68121493937E+03 -0.66666359102E+03  0.77593680874E+03  0.12324160469E+04  0.90979362392E+02 0.  0.
         13    1    3    3    0    0  0.54354552697E+03 -0.51824110525E+03  0.65560961992E+03  0.99691501985E+03  0.00000000000E+00 0. -1.
        -13    1    3    3    0    0  0.13766941240E+03 -0.14842248577E+03  0.12032718881E+03  0.23550102709E+03  0.00000000000E+00 0.  1.
         22    1    1    2    0    0 -0.68121493937E+03  0.66666359102E+03  0.69945580605E+03  0.11822574008E+04  0.00000000000E+00 0.  1.
<mgrwt>
<rscale>  0 0.19115084E+04</rscale>
<asrwt>0</asrwt>
<pdfrwt beam="1">  1        2 0.29923585E+00 0.19115084E+04</pdfrwt>
<pdfrwt beam="2">  1       -2 0.72252373E-01 0.19115084E+04</pdfrwt>
<totfact> 0.11630765E+01</totfact>
</mgrwt>
</event>
<event>
 6    1  0.1588846E-005  0.7030521E+04  0.7818608E-02  0.7574296E-01
          1   -1    0    0  501    0  0.00000000000E+00  0.00000000000E+00  0.50430828539E+04  0.50430828539E+04  0.00000000000E+00 0. -1.
         -1   -1    0    0    0  501 -0.00000000000E+00 -0.00000000000E+00 -0.24502980146E+04  0.24502980146E+04  0.00000000000E+00 0.  1.
         23    2    1    2    0    0 -0.16478684653E+04  0.30065942475E+04  0.21181784680E+04  0.40321194430E+04  0.12738811373E+03 0.  0.
         13    1    3    3    0    0 -0.49223436195E+03  0.10091111144E+04  0.66170929299E+03  0.13032494377E+04  0.00000000000E+00 0. -1.
        -13    1    3    3    0    0 -0.11556341034E+04  0.19974831331E+04  0.14564691750E+04  0.27288700053E+04  0.00000000000E+00 0.  1.
         22    1    1    2    0    0  0.16478684653E+04 -0.30065942475E+04  0.47460637121E+03  0.34612614255E+04  0.00000000000E+00 0.  1.
<mgrwt>
<rscale>  0 0.70305209E+04</rscale>
<asrwt>0</asrwt>
<pdfrwt beam="1">  1        1 0.77585890E+00 0.70305209E+04</pdfrwt>
<pdfrwt beam="2">  1       -1 0.37696893E+00 0.70305209E+04</pdfrwt>
<totfact> 0.47237886E-05</totfact>
</mgrwt>
</event>
<event>
 6    1  0.1588846E-005  0.3305553E+04  0.7818608E-02  0.8161484E-01
          2   -1    0    0  501    0  0.00000000000E+00  0.00000000000E+00  0.37864939232E+04  0.37864939232E+04  0.00000000000E+00 0. -1.
         -2   -1    0    0    0  501 -0.00000000000E+00 -0.00000000000E+00 -0.72142467511E+03  0.72142467511E+03  0.00000000000E+00 0.  1.
         23    2    1    2    0    0 -0.44161211010E+03  0.14952803316E+04  0.22758828703E+04  0.27604347887E+04  0.97328606698E+02 0.  0.
         13    1    3    3    0    0 -0.15080584558E+03  0.36274707695E+03  0.58149675451E+03  0.70175944625E+03  0.00000000000E+00 0.  1.
        -13    1    3    3    0    0 -0.29080626452E+03  0.11325332547E+04  0.16943861158E+04  0.20586753425E+04  0.00000000000E+00 0. -1.
         22    1    1    2    0    0  0.44161211010E+03 -0.14952803316E+04  0.78918637780E+03  0.17474838096E+04  0.00000000000E+00 0.  1.
<mgrwt>
<rscale>  0 0.33055530E+04</rscale>
<asrwt>0</asrwt>
<pdfrwt beam="1">  1        2 0.58253751E+00 0.33055530E+04</pdfrwt>
<pdfrwt beam="2">  1       -2 0.11098841E+00 0.33055530E+04</pdfrwt>
<totfact> 0.26940747E-01</totfact>
</mgrwt>
</event>
<event>
 6    1  0.1588846E-005  0.3072194E+04  0.7818608E-02  0.8223411E-01
         -2   -1    0    0    0  501 -0.00000000000E+00  0.00000000000E+00  0.21900482291E+04  0.21900482291E+04  0.00000000000E+00 0.  1.
          2   -1    0    0  501    0  0.00000000000E+00 -0.00000000000E+00 -0.10774167108E+04  0.10774167108E+04  0.00000000000E+00 0. -1.
         23    2    1    2    0    0  0.96260148868E+02 -0.95763757334E+03 -0.71502460039E+03  0.12018748000E+04  0.83109070341E+02 0.  0.
         13    1    3    3    0    0  0.54670232579E+02 -0.73871304072E+03 -0.51241820910E+03  0.90069873536E+03  0.00000000000E+00 0. -1.
        -13    1    3    3    0    0  0.41589916289E+02 -0.21892453263E+03 -0.20260639129E+03  0.30117606464E+03  0.00000000000E+00 0.  1.
         22    1    1    2    0    0 -0.96260148868E+02  0.95763757334E+03  0.18276561187E+04  0.20655901400E+04  0.00000000000E+00 0.  1.
<mgrwt>
<rscale>  0 0.30721944E+04</rscale>
<asrwt>0</asrwt>
<pdfrwt beam="1">  1        2 0.16575642E+00 0.30721944E+04</pdfrwt>
<pdfrwt beam="2">  1       -2 0.33693050E+00 0.30721944E+04</pdfrwt>
<totfact> 0.35975535E-01</totfact>
</mgrwt>
</event>
<event>
 6    1  0.1588846E-005  0.6354152E+03  0.7818608E-02  0.9834538E-01
          2   -1    0    0  501    0  0.00000000000E+00  0.00000000000E+00  0.29936059293E+04  0.29936059293E+04  0.00000000000E+00 0. -1.
         -2   -1    0    0    0  501 -0.00000000000E+00 -0.00000000000E+00 -0.33717903932E+02  0.33717903932E+02  0.00000000000E+00 0.  1.
         23    2    1    2    0    0  0.12595996218E+03  0.28477622733E+03  0.15607838944E+04  0.15939865453E+04  0.88223181835E+02 0.  0.
         11    1    3    3    0    0  0.13911596532E+03  0.24961380783E+03  0.13548337977E+04  0.13846425258E+04  0.00000000000E+00 0.  1.
        -11    1    3    3    0    0 -0.13156003143E+02  0.35162419496E+02  0.20595009667E+03  0.20934401946E+03  0.00000000000E+00 0. -1.
         22    1    1    2    0    0 -0.12595996218E+03 -0.28477622733E+03  0.13991041309E+04  0.14333372879E+04  0.00000000000E+00 0.  1.
<mgrwt>
<rscale>  0 0.63541519E+03</rscale>
<asrwt>0</asrwt>
<pdfrwt beam="1">  1        2 0.46055455E+00 0.63541519E+03</pdfrwt>
<pdfrwt beam="2">  1       -2 0.51873722E-02 0.63541519E+03</pdfrwt>
<totfact> 0.36605934E+02</totfact>
</mgrwt>
</event>
<event>
 6    1  0.1588846E-005  0.9158801E+03  0.7818608E-02  0.9405945E-01
          2   -1    0    0  501    0  0.00000000000E+00  0.00000000000E+00  0.11660766256E+03  0.11660766256E+03  0.00000000000E+00 0. -1.
         -2   -1    0    0    0  501 -0.00000000000E+00 -0.00000000000E+00 -0.17984160807E+04  0.17984160807E+04  0.00000000000E+00 0.  1.
         23    2    1    2    0    0 -0.88594690207E+02 -0.40311094423E+03 -0.45688451236E+03  0.62243485756E+03  0.91292068562E+02 0.  0.
         11    1    3    3    0    0 -0.79589016452E+02 -0.34703164472E+03 -0.43360507346E+03  0.56105145370E+03  0.00000000000E+00 0.  1.
        -11    1    3    3    0    0 -0.90056737545E+01 -0.56079299511E+02 -0.23279438903E+02  0.61383403857E+02  0.00000000000E+00 0. -1.
         22    1    1    2    0    0  0.88594690207E+02  0.40311094423E+03 -0.12249239058E+04  0.12925888857E+04  0.00000000000E+00 0.  1.
<mgrwt>
<rscale>  0 0.91588011E+03</rscale>
<asrwt>0</asrwt>
<pdfrwt beam="1">  1        2 0.17939641E-01 0.91588011E+03</pdfrwt>
<pdfrwt beam="2">  1       -2 0.27667938E+00 0.91588011E+03</pdfrwt>
<totfact> 0.14528282E+01</totfact>
</mgrwt>
</event>
<event>
 6    1  0.1588846E-005  0.3407860E+04  0.7818608E-02  0.8135980E-01
         -1   -1    0    0    0  501 -0.00000000000E+00  0.00000000000E+00  0.12385315031E+04  0.12385315031E+04  0.00000000000E+00 0.  1.
          1   -1    0    0  501    0  0.00000000000E+00 -0.00000000000E+00 -0.23442101380E+04  0.23442101380E+04  0.00000000000E+00 0. -1.
         23    2    1    2    0    0 -0.28831678064E+03  0.22390533598E+03 -0.23017665462E+04  0.23321871812E+04  0.87793219764E+02 0.  0.
         13    1    3    3    0    0 -0.22707243385E+03  0.21653352967E+03 -0.19190622013E+04  0.19445432348E+04  0.00000000000E+00 0. -1.
        -13    1    3    3    0    0 -0.61244346798E+02  0.73718063093E+01 -0.38270434496E+03  0.38764394642E+03  0.00000000000E+00 0.  1.
         22    1    1    2    0    0  0.28831678064E+03 -0.22390533598E+03  0.11960879114E+04  0.12505544599E+04  0.00000000000E+00 0.  1.
<mgrwt>
<rscale>  0 0.34078604E+04</rscale>
<asrwt>0</asrwt>
<pdfrwt beam="1">  1        1 0.36064771E+00 0.34078604E+04</pdfrwt>
<pdfrwt beam="2">  1       -1 0.19054331E+00 0.34078604E+04</pdfrwt>
<totfact> 0.24990826E-01</totfact>
</mgrwt>
</event>
<event>
 6    1  0.1588846E-005  0.2098967E+04  0.7818608E-02  0.8561698E-01
         -2   -1    0    0    0  501 -0.00000000000E+00  0.00000000000E+00  0.63270821673E+03  0.63270821673E+03  0.00000000000E+00 0. -1.
          2   -1    0    0  501    0  0.00000000000E+00 -0.00000000000E+00 -0.17407961498E+04  0.17407961498E+04  0.00000000000E+00 0.  1.
         23    2    1    2    0    0  0.95503328423E+02  0.96559387936E+03 -0.10012103168E+04  0.13973305856E+04  0.92834484516E+02 0.  0.
         13    1    3    3    0    0  0.90713361811E+02  0.63698550017E+03 -0.71082483403E+03  0.95877598328E+03  0.00000000000E+00 0.  1.
        -13    1    3    3    0    0  0.47899666120E+01  0.32860837918E+03 -0.29038548277E+03  0.43855460236E+03  0.00000000000E+00 0. -1.
         22    1    1    2    0    0 -0.95503328423E+02 -0.96559387936E+03 -0.10687761625E+03  0.97617378086E+03  0.00000000000E+00 0. -1.
<mgrwt>
<rscale>  0 0.20989674E+04</rscale>
<asrwt>0</asrwt>
<pdfrwt beam="1">  1        2 0.26781479E+00 0.20989674E+04</pdfrwt>
<pdfrwt beam="2">  1       -2 0.97339728E-01 0.20989674E+04</pdfrwt>
<totfact> 0.75514669E+00</totfact>
</mgrwt>
</event>
<event>
 6    1  0.1588846E-005  0.2690088E+04  0.7818608E-02  0.8338228E-01
          2   -1    0    0  501    0  0.00000000000E+00  0.00000000000E+00  0.12702835350E+04  0.12702835350E+04  0.00000000000E+00 0. -1.
         -2   -1    0    0    0  501 -0.00000000000E+00 -0.00000000000E+00 -0.14242039284E+04  0.14242039284E+04  0.00000000000E+00 0.  1.
         23    2    1    2    0    0  0.27219743872E+03  0.13141047638E+04 -0.13906412251E+03  0.13524056907E+04  0.93271358580E+02 0.  0.
         11    1    3    3    0    0  0.21336794288E+03  0.82860667718E+03 -0.69863270122E+02  0.85848458404E+03  0.00000000000E+00 0. -1.
        -11    1    3    3    0    0  0.58829495844E+02  0.48549808658E+03 -0.69200852384E+02  0.49392110668E+03  0.00000000000E+00 0.  1.
         22    1    1    2    0    0 -0.27219743872E+03 -0.13141047638E+04 -0.14856270952E+02  0.13420817727E+04  0.00000000000E+00 0. -1.
<mgrwt>
<rscale>  0 0.26900876E+04</rscale>
<asrwt>0</asrwt>
<pdfrwt beam="1">  1        2 0.19542824E+00 0.26900876E+04</pdfrwt>
<pdfrwt beam="2">  1       -2 0.21910830E+00 0.26900876E+04</pdfrwt>
<totfact> 0.15128352E+00</totfact>
</mgrwt>
</event>
<event>
 6    1  0.1588846E-005  0.1661581E+04  0.7818608E-02  0.8783585E-01
          2   -1    0    0  501    0  0.00000000000E+00  0.00000000000E+00  0.36837287479E+04  0.36837287479E+04  0.00000000000E+00 0. -1.
         -2   -1    0    0    0  501 -0.00000000000E+00 -0.00000000000E+00 -0.18736790078E+03  0.18736790078E+03  0.00000000000E+00 0.  1.
         23    2    1    2    0    0  0.40748037580E+03  0.66045130394E+03  0.10791800057E+04  0.13323963116E+04  0.91729302114E+02 0.  0.
         13    1    3    3    0    0  0.35913897597E+03  0.52327986779E+03  0.90716425487E+03  0.11071357683E+04  0.00000000000E+00 0. -1.
        -13    1    3    3    0    0  0.48341399824E+02  0.13717143615E+03  0.17201575086E+03  0.22526054331E+03  0.00000000000E+00 0.  1.
         22    1    1    2    0    0 -0.40748037580E+03 -0.66045130394E+03  0.24171808413E+04  0.25387003370E+04  0.00000000000E+00 0. -1.
<mgrwt>
<rscale>  0 0.16615806E+04</rscale>
<asrwt>0</asrwt>
<pdfrwt beam="1">  1        2 0.56672745E+00 0.16615806E+04</pdfrwt>
<pdfrwt beam="2">  1       -2 0.28825834E-01 0.16615806E+04</pdfrwt>
<totfact> 0.64100768E+00</totfact>
</mgrwt>
</event>
<event>
 6    1  0.1588846E-005  0.2311138E+04  0.7818608E-02  0.8473543E-01
          2   -1    0    0  501    0  0.00000000000E+00  0.00000000000E+00  0.17258943632E+04  0.17258943632E+04  0.00000000000E+00 0. -1.
         -2   -1    0    0    0  501 -0.00000000000E+00 -0.00000000000E+00 -0.77370874881E+03  0.77370874881E+03  0.00000000000E+00 0.  1.
         23    2    1    2    0    0  0.10762399540E+04 -0.41557792818E+03  0.45780418342E+03  0.12444495547E+04  0.89847486927E+02 0.  0.
         13    1    3    3    0    0  0.94090966391E+03 -0.33859406856E+03  0.41741516176E+03  0.10836015671E+04  0.00000000000E+00 0. -1.
        -13    1    3    3    0    0  0.13533029012E+03 -0.76983859620E+02  0.40389021651E+02  0.16084798766E+03  0.00000000000E+00 0.  1.
         22    1    1    2    0    0 -0.10762399540E+04  0.41557792818E+03  0.49438143096E+03  0.12551535573E+04  0.00000000000E+00 0.  1.
<mgrwt>
<rscale>  0 0.23111379E+04</rscale>
<asrwt>0</asrwt>
<pdfrwt beam="1">  1        2 0.26552221E+00 0.23111379E+04</pdfrwt>
<pdfrwt beam="2">  1       -2 0.11903212E+00 0.23111379E+04</pdfrwt>
<totfact> 0.46562235E+00</totfact>
</mgrwt>
</event>
<event>
 6    1  0.1588846E-005  0.3149583E+04  0.7818608E-02  0.8202261E-01
          2   -1    0    0  501    0  0.00000000000E+00  0.00000000000E+00  0.38395476208E+04  0.38395476208E+04  0.00000000000E+00 0. -1.
         -2   -1    0    0    0  501 -0.00000000000E+00 -0.00000000000E+00 -0.64590096433E+03  0.64590096433E+03  0.00000000000E+00 0.  1.
         23    2    1    2    0    0  0.10249827054E+04 -0.97714520761E+03  0.62207621137E+03  0.15497413693E+04  0.96525621719E+02 0.  0.
         11    1    3    3    0    0  0.49182935860E+03 -0.53235190682E+03  0.30161143656E+03  0.78502492275E+03  0.00000000000E+00 0.  1.
        -11    1    3    3    0    0  0.53315334683E+03 -0.44479330079E+03  0.32046477481E+03  0.76471644651E+03  0.00000000000E+00 0. -1.
         22    1    1    2    0    0 -0.10249827054E+04  0.97714520761E+03  0.25715704451E+04  0.29357072159E+04  0.00000000000E+00 0. -1.
<mgrwt>
<rscale>  0 0.31495825E+04</rscale>
<asrwt>0</asrwt>
<pdfrwt beam="1">  1        2 0.59069962E+00 0.31495825E+04</pdfrwt>
<pdfrwt beam="2">  1       -2 0.99369382E-01 0.31495825E+04</pdfrwt>
<totfact> 0.32431014E-01</totfact>
</mgrwt>
</event>
<event>
 6    1  0.1588846E-005  0.2163442E+04  0.7818608E-02  0.8533800E-01
          2   -1    0    0  501    0  0.00000000000E+00  0.00000000000E+00  0.13851580157E+04  0.13851580157E+04  0.00000000000E+00 0.  1.
         -2   -1    0    0    0  501 -0.00000000000E+00 -0.00000000000E+00 -0.84475593267E+03  0.84475593267E+03  0.00000000000E+00 0. -1.
         23    2    1    2    0    0  0.25462226128E+03  0.84818606605E+02  0.13488417888E+04  0.13780915197E+04  0.87950972431E+02 0.  0.
         13    1    3    3    0    0  0.11781999694E+03  0.85353466491E+02  0.67421981558E+03  0.68973844727E+03  0.00000000000E+00 0. -1.
        -13    1    3    3    0    0  0.13680226435E+03 -0.53485988668E+00  0.67462197325E+03  0.68835307248E+03  0.00000000000E+00 0.  1.
         22    1    1    2    0    0 -0.25462226128E+03 -0.84818606605E+02 -0.80843970580E+03  0.85182242861E+03  0.00000000000E+00 0. -1.
<mgrwt>
<rscale>  0 0.21634421E+04</rscale>
<asrwt>0</asrwt>
<pdfrwt beam="1">  1        2 0.21310123E+00 0.21634421E+04</pdfrwt>
<pdfrwt beam="2">  1       -2 0.12996245E+00 0.21634421E+04</pdfrwt>
<totfact> 0.58811016E+00</totfact>
</mgrwt>
</event>
<event>
 6    1  0.1588846E-005  0.8902118E+03  0.7818608E-02  0.9437901E-01
          2   -1    0    0  501    0  0.00000000000E+00  0.00000000000E+00  0.73548488909E+03  0.73548488909E+03  0.00000000000E+00 0. -1.
         -2   -1    0    0    0  501 -0.00000000000E+00 -0.00000000000E+00 -0.26937230853E+03  0.26937230853E+03  0.00000000000E+00 0.  1.
         23    2    1    2    0    0  0.10639769911E+03 -0.12024865267E+03 -0.22758121859E+03  0.29282398503E+03  0.90401694189E+02 0.  0.
         13    1    3    3    0    0  0.32544049627E+02 -0.29723271546E+02 -0.14010573558E+03  0.14687479423E+03  0.00000000000E+00 0.  1.
        -13    1    3    3    0    0  0.73853649485E+02 -0.90525381121E+02 -0.87475483014E+02  0.14594919081E+03  0.00000000000E+00 0. -1.
         22    1    1    2    0    0 -0.10639769911E+03  0.12024865267E+03  0.69369379915E+03  0.71203321259E+03  0.00000000000E+00 0. -1.
<mgrwt>
<rscale>  0 0.89021180E+03</rscale>
<asrwt>0</asrwt>
<pdfrwt beam="1">  1        2 0.11315152E+00 0.89021180E+03</pdfrwt>
<pdfrwt beam="2">  1       -2 0.41441894E-01 0.89021180E+03</pdfrwt>
<totfact> 0.21277379E+02</totfact>
</mgrwt>
</event>
<event>
 6    1  0.1588846E-005  0.3837399E+04  0.7818608E-02  0.8038176E-01
          2   -1    0    0  501    0  0.00000000000E+00  0.00000000000E+00  0.15921134559E+04  0.15921134559E+04  0.00000000000E+00 0.  1.
         -2   -1    0    0    0  501 -0.00000000000E+00 -0.00000000000E+00 -0.23122772151E+04  0.23122772151E+04  0.00000000000E+00 0. -1.
         23    2    1    2    0    0 -0.10472606643E+04 -0.13381258171E+04 -0.12644528491E+04  0.21201299796E+04  0.93672416508E+02 0.  0.
         11    1    3    3    0    0 -0.58290482704E+03 -0.78162556265E+03 -0.77540539951E+03  0.12457809162E+04  0.00000000000E+00 0.  1.
        -11    1    3    3    0    0 -0.46435583727E+03 -0.55650025442E+03 -0.48904744960E+03  0.87434906344E+03  0.00000000000E+00 0. -1.
         22    1    1    2    0    0  0.10472606643E+04  0.13381258171E+04  0.54428908989E+03  0.17842606913E+04  0.00000000000E+00 0.  1.
<mgrwt>
<rscale>  0 0.38373989E+04</rscale>
<asrwt>0</asrwt>
<pdfrwt beam="1">  1        2 0.24494053E+00 0.38373989E+04</pdfrwt>
<pdfrwt beam="2">  1       -2 0.35573495E+00 0.38373989E+04</pdfrwt>
<totfact> 0.12884221E-01</totfact>
</mgrwt>
</event>
<event>
 6    1  0.1588846E-005  0.3813649E+04  0.7818608E-02  0.8043232E-01
          1   -1    0    0  501    0  0.00000000000E+00  0.00000000000E+00  0.23314217936E+04  0.23314217936E+04  0.00000000000E+00 0. -1.
         -1   -1    0    0    0  501 -0.00000000000E+00 -0.00000000000E+00 -0.15595542589E+04  0.15595542589E+04  0.00000000000E+00 0.  1.
         23    2    1    2    0    0  0.52044856039E+03  0.18323787748E+04  0.32152198728E+03  0.19336079751E+04  0.83574726728E+02 0.  0.
         13    1    3    3    0    0  0.40176161811E+03  0.14131316023E+04  0.21219727291E+03  0.14843789967E+04  0.00000000000E+00 0.  1.
        -13    1    3    3    0    0  0.11868694227E+03  0.41924717245E+03  0.10932471438E+03  0.44922897842E+03  0.00000000000E+00 0. -1.
         22    1    1    2    0    0 -0.52044856039E+03 -0.18323787748E+04  0.45034554745E+03  0.19573680774E+04  0.00000000000E+00 0. -1.
<mgrwt>
<rscale>  0 0.38136485E+04</rscale>
<asrwt>0</asrwt>
<pdfrwt beam="1">  1        1 0.35868028E+00 0.38136485E+04</pdfrwt>
<pdfrwt beam="2">  1       -1 0.23993142E+00 0.38136485E+04</pdfrwt>
<totfact> 0.11424037E-01</totfact>
</mgrwt>
</event>
<event>
 6    1  0.1588846E-005  0.4880943E+04  0.7818608E-02  0.7847140E-01
         -1   -1    0    0    0  501 -0.00000000000E+00  0.00000000000E+00  0.21935005122E+04  0.21935005122E+04  0.00000000000E+00 0.  1.
          1   -1    0    0  501    0  0.00000000000E+00 -0.00000000000E+00 -0.27152490163E+04  0.27152490163E+04  0.00000000000E+00 0. -1.
         23    2    1    2    0    0 -0.14536936375E+04 -0.15754440312E+04  0.91029929751E+03  0.23307638820E+04  0.92554714815E+02 0.  0.
         11    1    3    3    0    0 -0.90898265521E+03 -0.10256356864E+04  0.61956772223E+03  0.15040087071E+04  0.00000000000E+00 0. -1.
        -11    1    3    3    0    0 -0.54471098232E+03 -0.54980834487E+03  0.29073157527E+03  0.82675517490E+03  0.00000000000E+00 0.  1.
         22    1    1    2    0    0  0.14536936375E+04  0.15754440312E+04 -0.14320478016E+04  0.25779856465E+04  0.00000000000E+00 0. -1.
<mgrwt>
<rscale>  0 0.48809426E+04</rscale>
<asrwt>0</asrwt>
<pdfrwt beam="1">  1        1 0.41773062E+00 0.48809426E+04</pdfrwt>
<pdfrwt beam="2">  1       -1 0.33746162E+00 0.48809426E+04</pdfrwt>
<totfact> 0.13120608E-02</totfact>
</mgrwt>
</event>
<event>
 6    1  0.1588846E-005  0.2139611E+04  0.7818608E-02  0.8543992E-01
         -1   -1    0    0    0  501 -0.00000000000E+00  0.00000000000E+00  0.50690044112E+03  0.50690044112E+03  0.00000000000E+00 0.  1.
          1   -1    0    0  501    0  0.00000000000E+00 -0.00000000000E+00 -0.22578078303E+04  0.22578078303E+04  0.00000000000E+00 0. -1.
         23    2    1    2    0    0 -0.29678507516E+03  0.26424329532E+03 -0.21578029195E+04  0.21959641527E+04  0.90770154275E+02 0.  0.
         11    1    3    3    0    0 -0.23226079932E+03  0.15091237098E+03 -0.14334629657E+04  0.14599779782E+04  0.00000000000E+00 0.  1.
        -11    1    3    3    0    0 -0.64524275848E+02  0.11333092435E+03 -0.72433995375E+03  0.73598617459E+03  0.00000000000E+00 0. -1.
         22    1    1    2    0    0  0.29678507516E+03 -0.26424329532E+03  0.40689553028E+03  0.56874411868E+03  0.00000000000E+00 0.  1.
<mgrwt>
<rscale>  0 0.21396110E+04</rscale>
<asrwt>0</asrwt>
<pdfrwt beam="1">  1        1 0.34735505E+00 0.21396110E+04</pdfrwt>
<pdfrwt beam="2">  1       -1 0.77984684E-01 0.21396110E+04</pdfrwt>
<totfact> 0.30021725E+00</totfact>
</mgrwt>
</event>
<event>
 6    1  0.1588846E-005  0.3656008E+04  0.7818608E-02  0.8077781E-01
          2   -1    0    0  501    0  0.00000000000E+00  0.00000000000E+00  0.35019644515E+04  0.35019644515E+04  0.00000000000E+00 0. -1.
         -2   -1    0    0    0  501 -0.00000000000E+00 -0.00000000000E+00 -0.95420693516E+03  0.95420693516E+03  0.00000000000E+00 0.  1.
         23    2    1    2    0    0  0.58190389128E+03 -0.12159124438E+03  0.33802188550E+04  0.34332400840E+04  0.88664521465E+02 0.  0.
         13    1    3    3    0    0  0.27974814891E+03 -0.10370347990E+03  0.16673376140E+04  0.16938205801E+04  0.00000000000E+00 0.  1.
        -13    1    3    3    0    0  0.30215574237E+03 -0.17887764483E+02  0.17128812410E+04  0.17394195039E+04  0.00000000000E+00 0. -1.
         22    1    1    2    0    0 -0.58190389128E+03  0.12159124438E+03 -0.83246133871E+03  0.10229313026E+04  0.00000000000E+00 0.  1.
<mgrwt>
<rscale>  0 0.36560081E+04</rscale>
<asrwt>0</asrwt>
<pdfrwt beam="1">  1        2 0.53876376E+00 0.36560081E+04</pdfrwt>
<pdfrwt beam="2">  1       -2 0.14680107E+00 0.36560081E+04</pdfrwt>
<totfact> 0.20819894E-01</totfact>
</mgrwt>
</event>
<event>
 6    1  0.1588846E-005  0.2079517E+04  0.7818608E-02  0.8570321E-01
          1   -1    0    0  501    0  0.00000000000E+00  0.00000000000E+00  0.34139580327E+04  0.34139580327E+04  0.00000000000E+00 0. -1.
         -1   -1    0    0    0  501 -0.00000000000E+00 -0.00000000000E+00 -0.31666975141E+03  0.31666975141E+03  0.00000000000E+00 0.  1.
         23    2    1    2    0    0  0.23074299875E+03 -0.67584856978E+03  0.20073451945E+03  0.74733475191E+03  0.90560826835E+02 0.  0.
         13    1    3    3    0    0  0.13893356255E+03 -0.43320824606E+03  0.83044759752E+02  0.46245902671E+03  0.00000000000E+00 0.  1.
        -13    1    3    3    0    0  0.91809436199E+02 -0.24264032372E+03  0.11768975970E+03  0.28487572520E+03  0.00000000000E+00 0. -1.
         22    1    1    2    0    0 -0.23074299875E+03  0.67584856978E+03  0.28965537619E+04  0.29832930322E+04  0.00000000000E+00 0. -1.
<mgrwt>
<rscale>  0 0.20795165E+04</rscale>
<asrwt>0</asrwt>
<pdfrwt beam="1">  1        1 0.52522429E+00 0.20795165E+04</pdfrwt>
<pdfrwt beam="2">  1       -1 0.48718426E-01 0.20795165E+04</pdfrwt>
<totfact> 0.11375098E+00</totfact>
</mgrwt>
</event>
<event>
 6    1  0.1588846E-005  0.5628967E+03  0.7818608E-02  0.9985522E-01
          2   -1    0    0  501    0  0.00000000000E+00  0.00000000000E+00  0.94464553812E+03  0.94464553812E+03  0.00000000000E+00 0. -1.
         -2   -1    0    0    0  501 -0.00000000000E+00 -0.00000000000E+00 -0.83854924419E+02  0.83854924419E+02  0.00000000000E+00 0.  1.
         23    2    1    2    0    0 -0.20191239870E+03  0.14481080427E+03  0.65370760376E+03  0.70504697472E+03  0.89547861842E+02 0.  0.
         13    1    3    3    0    0 -0.47961297895E+02 -0.58099904420E+01  0.10491865705E+03  0.11550743129E+03  0.00000000000E+00 0.  1.
        -13    1    3    3    0    0 -0.15395110080E+03  0.15062079471E+03  0.54878894671E+03  0.58953954343E+03  0.00000000000E+00 0. -1.
         22    1    1    2    0    0  0.20191239870E+03 -0.14481080427E+03  0.20708300994E+03  0.32345348783E+03  0.00000000000E+00 0.  1.
<mgrwt>
<rscale>  0 0.56289672E+03</rscale>
<asrwt>0</asrwt>
<pdfrwt beam="1">  1        2 0.14533007E+00 0.56289672E+03</pdfrwt>
<pdfrwt beam="2">  1       -2 0.12900758E-01 0.56289672E+03</pdfrwt>
<totfact> 0.12437872E+03</totfact>
</mgrwt>
</event>
<event>
 6    1  0.1588846E-005  0.2401192E+04  0.7818608E-02  0.8439058E-01
         -2   -1    0    0    0  501 -0.00000000000E+00  0.00000000000E+00  0.50249085720E+03  0.50249085720E+03  0.00000000000E+00 0.  1.
          2   -1    0    0  501    0  0.00000000000E+00 -0.00000000000E+00 -0.28685699495E+04  0.28685699495E+04  0.00000000000E+00 0. -1.
         23    2    1    2    0    0  0.30540485940E+03 -0.59100403616E+03 -0.25852381951E+04  0.26706404963E+04  0.79411813835E+02 0.  0.
         11    1    3    3    0    0  0.18935512598E+02 -0.40702895216E+02 -0.10933895342E+03  0.11819596461E+03  0.00000000000E+00 0. -1.
        -11    1    3    3    0    0  0.28646934681E+03 -0.55030114094E+03 -0.24758992417E+04  0.25524445317E+04  0.00000000000E+00 0.  1.
         22    1    1    2    0    0 -0.30540485940E+03  0.59100403616E+03  0.21915910279E+03  0.70042031041E+03  0.00000000000E+00 0.  1.
<mgrwt>
<rscale>  0 0.24011915E+04</rscale>
<asrwt>0</asrwt>
<pdfrwt beam="1">  1        2 0.44131845E+00 0.24011915E+04</pdfrwt>
<pdfrwt beam="2">  1       -2 0.77306286E-01 0.24011915E+04</pdfrwt>
<totfact> 0.28196316E+00</totfact>
</mgrwt>
</event>
<event>
 6    1  0.1588846E-005  0.3107439E+04  0.7818608E-02  0.8213699E-01
         -2   -1    0    0    0  501 -0.00000000000E+00  0.00000000000E+00  0.94137685426E+03  0.94137685426E+03  0.00000000000E+00 0. -1.
          2   -1    0    0  501    0  0.00000000000E+00 -0.00000000000E+00 -0.25643761699E+04  0.25643761699E+04  0.00000000000E+00 0.  1.
         23    2    1    2    0    0  0.45095378550E+03 -0.65807795031E+03  0.69009899800E+03  0.10589490447E+04  0.93330310682E+02 0.  0.
         13    1    3    3    0    0  0.26704827667E+03 -0.31103740017E+03  0.33382273685E+03  0.52867444237E+03  0.00000000000E+00 0.  1.
        -13    1    3    3    0    0  0.18390550883E+03 -0.34704055014E+03  0.35627626115E+03  0.53027460233E+03  0.00000000000E+00 0. -1.
         22    1    1    2    0    0 -0.45095378550E+03  0.65807795031E+03 -0.23130983137E+04  0.24468039795E+04  0.00000000000E+00 0.  1.
<mgrwt>
<rscale>  0 0.31074391E+04</rscale>
<asrwt>0</asrwt>
<pdfrwt beam="1">  1        2 0.39451941E+00 0.31074391E+04</pdfrwt>
<pdfrwt beam="2">  1       -2 0.14482721E+00 0.31074391E+04</pdfrwt>
<totfact> 0.89036122E-01</totfact>
</mgrwt>
</event>
<event>
 6    1  0.1588846E-005  0.2628741E+04  0.7818608E-02  0.8358504E-01
          1   -1    0    0  501    0  0.00000000000E+00  0.00000000000E+00  0.24274794415E+04  0.24274794415E+04  0.00000000000E+00 0. -1.
         -1   -1    0    0    0  501 -0.00000000000E+00 -0.00000000000E+00 -0.71167238011E+03  0.71167238011E+03  0.00000000000E+00 0.  1.
         23    2    1    2    0    0 -0.85579762572E+02  0.92663743363E+03 -0.24688684441E+03  0.96702194588E+03  0.90540050323E+02 0.  0.
         13    1    3    3    0    0 -0.55487162943E+02  0.19582575051E+03 -0.52002659819E+02  0.21007338347E+03  0.00000000000E+00 0. -1.
        -13    1    3    3    0    0 -0.30092599628E+02  0.73081168312E+03 -0.19488418459E+03  0.75694856241E+03  0.00000000000E+00 0.  1.
         22    1    1    2    0    0  0.85579762572E+02 -0.92663743363E+03  0.19626939058E+04  0.21721298758E+04  0.00000000000E+00 0.  1.
<mgrwt>
<rscale>  0 0.26287412E+04</rscale>
<asrwt>0</asrwt>
<pdfrwt beam="1">  1        1 0.37345837E+00 0.26287412E+04</pdfrwt>
<pdfrwt beam="2">  1       -1 0.10948806E+00 0.26287412E+04</pdfrwt>
<totfact> 0.10306116E+00</totfact>
</mgrwt>
</event>
<event>
 6    1  0.1588846E-005  0.6116170E+03  0.7818608E-02  0.9881593E-01
          2   -1    0    0  501    0  0.00000000000E+00  0.00000000000E+00  0.62144655677E+03  0.62144655677E+03  0.00000000000E+00 0. -1.
         -2   -1    0    0    0  501 -0.00000000000E+00 -0.00000000000E+00 -0.15048572696E+03  0.15048572696E+03  0.00000000000E+00 0.  1.
         23    2    1    2    0    0  0.25814773020E+03  0.14960700673E+03  0.26354713527E+03  0.40855514115E+03  0.91856974612E+02 0.  0.
         13    1    3    3    0    0  0.12668899304E+03  0.82581202867E+02  0.74054928594E+02  0.16838612910E+03  0.00000000000E+00 0.  1.
        -13    1    3    3    0    0  0.13145873715E+03  0.67025803858E+02  0.18949220668E+03  0.24016901205E+03  0.00000000000E+00 0. -1.
         22    1    1    2    0    0 -0.25814773020E+03 -0.14960700673E+03  0.20741369454E+03  0.36337714258E+03  0.00000000000E+00 0.  1.
<mgrwt>
<rscale>  0 0.61161699E+03</rscale>
<asrwt>0</asrwt>
<pdfrwt beam="1">  1        2 0.95607161E-01 0.61161699E+03</pdfrwt>
<pdfrwt beam="2">  1       -2 0.23151651E-01 0.61161699E+03</pdfrwt>
<totfact> 0.78613993E+02</totfact>
</mgrwt>
</event>
<event>
 6    1  0.1588846E-005  0.3476325E+04  0.7818608E-02  0.8119424E-01
          2   -1    0    0  501    0  0.00000000000E+00  0.00000000000E+00  0.28573344377E+04  0.28573344377E+04  0.00000000000E+00 0. -1.
         -2   -1    0    0    0  501 -0.00000000000E+00 -0.00000000000E+00 -0.10573520136E+04  0.10573520136E+04  0.00000000000E+00 0.  1.
         23    2    1    2    0    0 -0.14729170840E+04 -0.91075898568E+03  0.10477154836E+04  0.20265995317E+04  0.10213354312E+03 0.  0.
         13    1    3    3    0    0 -0.10288797949E+04 -0.58050637205E+03  0.70806522911E+03  0.13772935958E+04  0.00000000000E+00 0.  1.
        -13    1    3    3    0    0 -0.44403728919E+03 -0.33025261363E+03  0.33965025454E+03  0.64930593591E+03  0.00000000000E+00 0. -1.
         22    1    1    2    0    0  0.14729170840E+04  0.91075898568E+03  0.75226694045E+03  0.18880869197E+04  0.00000000000E+00 0.  1.
<mgrwt>
<rscale>  0 0.34763247E+04</rscale>
<asrwt>0</asrwt>
<pdfrwt beam="1">  1        2 0.43958991E+00 0.34763247E+04</pdfrwt>
<pdfrwt beam="2">  1       -2 0.16266954E+00 0.34763247E+04</pdfrwt>
<totfact> 0.42274885E-01</totfact>
</mgrwt>
</event>
<event>
 6    1  0.1588846E-005  0.2436886E+04  0.7818608E-02  0.8425822E-01
          1   -1    0    0  501    0  0.00000000000E+00  0.00000000000E+00  0.30875986234E+04  0.30875986234E+04  0.00000000000E+00 0. -1.
         -1   -1    0    0    0  501 -0.00000000000E+00 -0.00000000000E+00 -0.48082776582E+03  0.48082776582E+03  0.00000000000E+00 0.  1.
         23    2    1    2    0    0 -0.33733066030E+03 -0.84234129594E+03  0.24930619954E+04  0.26539535692E+04  0.69141891110E+02 0.  0.
         13    1    3    3    0    0 -0.31700464973E+03 -0.73549339901E+03  0.21706790423E+04  0.23137177859E+04  0.00000000000E+00 0.  1.
        -13    1    3    3    0    0 -0.20326010570E+02 -0.10684789693E+03  0.32238295308E+03  0.34023578328E+03  0.00000000000E+00 0. -1.
         22    1    1    2    0    0  0.33733066030E+03  0.84234129594E+03  0.11370886214E+03  0.91447282002E+03  0.00000000000E+00 0.  1.
<mgrwt>
<rscale>  0 0.24368858E+04</rscale>
<asrwt>0</asrwt>
<pdfrwt beam="1">  1        1 0.47501516E+00 0.24368858E+04</pdfrwt>
<pdfrwt beam="2">  1       -1 0.73973504E-01 0.24368858E+04</pdfrwt>
<totfact> 0.84749321E-01</totfact>
</mgrwt>
</event>
<event>
 6    1  0.1588846E-005  0.1610487E+04  0.7818608E-02  0.8814131E-01
         -2   -1    0    0    0  501 -0.00000000000E+00  0.00000000000E+00  0.54735145875E+03  0.54735145875E+03  0.00000000000E+00 0.  1.
          2   -1    0    0  501    0  0.00000000000E+00 -0.00000000000E+00 -0.11846450582E+04  0.11846450582E+04  0.00000000000E+00 0. -1.
         23    2    1    2    0    0 -0.29759372794E+03 -0.66420346996E+03 -0.68346825622E+03  0.10027089363E+04  0.92563908790E+02 0.  0.
         11    1    3    3    0    0 -0.23690260838E+03 -0.44897987304E+03 -0.51112504327E+03  0.72038502352E+03  0.00000000000E+00 0. -1.
        -11    1    3    3    0    0 -0.60691119557E+02 -0.21522359692E+03 -0.17234321295E+03  0.28232391276E+03  0.00000000000E+00 0.  1.
         22    1    1    2    0    0  0.29759372794E+03  0.66420346996E+03  0.46174656759E+02  0.72928758069E+03  0.00000000000E+00 0.  1.
<mgrwt>
<rscale>  0 0.16104871E+04</rscale>
<asrwt>0</asrwt>
<pdfrwt beam="1">  1        2 0.18225308E+00 0.16104871E+04</pdfrwt>
<pdfrwt beam="2">  1       -2 0.84207918E-01 0.16104871E+04</pdfrwt>
<totfact> 0.22820697E+01</totfact>
</mgrwt>
</event>
<event>
 6    1  0.1588846E-005  0.1187174E+04  0.7818608E-02  0.9124158E-01
          2   -1    0    0  501    0  0.00000000000E+00  0.00000000000E+00  0.22102425988E+04  0.22102425988E+04  0.00000000000E+00 0. -1.
         -2   -1    0    0    0  501 -0.00000000000E+00 -0.00000000000E+00 -0.15941487416E+03  0.15941487416E+03  0.00000000000E+00 0.  1.
         23    2    1    2    0    0  0.42177542196E+03  0.22347508279E+03  0.33933152790E+03  0.59284717058E+03  0.92120913094E+02 0.  0.
         11    1    3    3    0    0  0.20992446974E+03  0.15920766028E+03  0.20570545719E+03  0.33426052295E+03  0.00000000000E+00 0.  1.
        -11    1    3    3    0    0  0.21185095223E+03  0.64267422516E+02  0.13362607072E+03  0.25858664763E+03  0.00000000000E+00 0. -1.
         22    1    1    2    0    0 -0.42177542196E+03 -0.22347508279E+03  0.17114961967E+04  0.17768103024E+04  0.00000000000E+00 0. -1.
<mgrwt>
<rscale>  0 0.11871740E+04</rscale>
<asrwt>0</asrwt>
<pdfrwt beam="1">  1        2 0.34003730E+00 0.11871740E+04</pdfrwt>
<pdfrwt beam="2">  1       -2 0.24525367E-01 0.11871740E+04</pdfrwt>
<totfact> 0.74989363E+01</totfact>
</mgrwt>
</event>
<event>
 6    1  0.1588846E-005  0.1140501E+04  0.7818608E-02  0.9166592E-01
         -2   -1    0    0    0  501 -0.00000000000E+00  0.00000000000E+00  0.29397629228E+03  0.29397629228E+03  0.00000000000E+00 0.  1.
          2   -1    0    0  501    0  0.00000000000E+00 -0.00000000000E+00 -0.11061632772E+04  0.11061632772E+04  0.00000000000E+00 0. -1.
         23    2    1    2    0    0 -0.34392116141E+03  0.27184576525E+03 -0.84948930296E+03  0.96016985659E+03  0.90067709552E+02 0.  0.
         13    1    3    3    0    0 -0.22866086741E+03  0.22982743774E+03 -0.59243495704E+03  0.67534111510E+03  0.00000000000E+00 0.  1.
        -13    1    3    3    0    0 -0.11526029401E+03  0.42018327510E+02 -0.25705434592E+03  0.28482874149E+03  0.00000000000E+00 0. -1.
         22    1    1    2    0    0  0.34392116141E+03 -0.27184576525E+03  0.37302318017E+02  0.43996971291E+03  0.00000000000E+00 0.  1.
<mgrwt>
<rscale>  0 0.11405013E+04</rscale>
<asrwt>0</asrwt>
<pdfrwt beam="1">  1        2 0.17017897E+00 0.11405013E+04</pdfrwt>
<pdfrwt beam="2">  1       -2 0.45227121E-01 0.11405013E+04</pdfrwt>
<totfact> 0.99120475E+01</totfact>
</mgrwt>
</event>
<event>
 6    1  0.1588846E-005  0.1905605E+04  0.7818608E-02  0.8652071E-01
          1   -1    0    0  501    0  0.00000000000E+00  0.00000000000E+00  0.10716458298E+04  0.10716458298E+04  0.00000000000E+00 0. -1.
         -1   -1    0    0    0  501 -0.00000000000E+00 -0.00000000000E+00 -0.84713858957E+03  0.84713858957E+03  0.00000000000E+00 0.  1.
         23    2    1    2    0    0 -0.82316763995E+03 -0.34722046633E+03 -0.21470600997E+03  0.92325677293E+03  0.90207440718E+02 0.  0.
         13    1    3    3    0    0 -0.22153721945E+03 -0.11566492103E+03 -0.96267112055E+02  0.26781424611E+03  0.00000000000E+00 0.  1.
        -13    1    3    3    0    0 -0.60163042050E+03 -0.23155554530E+03 -0.11843889791E+03  0.65544252682E+03  0.00000000000E+00 0. -1.
         22    1    1    2    0    0  0.82316763995E+03  0.34722046633E+03  0.43921325020E+03  0.99552764645E+03  0.00000000000E+00 0. -1.
<mgrwt>
<rscale>  0 0.19056049E+04</rscale>
<asrwt>0</asrwt>
<pdfrwt beam="1">  1        1 0.16486859E+00 0.19056049E+04</pdfrwt>
<pdfrwt beam="2">  1       -1 0.13032901E+00 0.19056049E+04</pdfrwt>
<totfact> 0.62785710E+00</totfact>
</mgrwt>
</event>
<event>
 6    1  0.1588846E-005  0.2763715E+04  0.7818608E-02  0.8314623E-01
         -1   -1    0    0    0  501 -0.00000000000E+00  0.00000000000E+00  0.65734693560E+03  0.65734693560E+03  0.00000000000E+00 0.  1.
          1   -1    0    0  501    0  0.00000000000E+00 -0.00000000000E+00 -0.29049037088E+04  0.29049037088E+04  0.00000000000E+00 0. -1.
         23    2    1    2    0    0  0.73759218184E+03 -0.71458312075E+03 -0.23128816215E+04  0.25332032213E+04  0.11413107513E+03 0.  0.
         13    1    3    3    0    0  0.38691330913E+03 -0.33995532228E+03 -0.10328608838E+04  0.11541547276E+04  0.00000000000E+00 0. -1.
        -13    1    3    3    0    0  0.35067887271E+03 -0.37462779847E+03 -0.12800207377E+04  0.13790484937E+04  0.00000000000E+00 0.  1.
         22    1    1    2    0    0 -0.73759218184E+03  0.71458312075E+03  0.65324848275E+02  0.10290474231E+04  0.00000000000E+00 0.  1.
<mgrwt>
<rscale>  0 0.27637146E+04</rscale>
<asrwt>0</asrwt>
<pdfrwt beam="1">  1        1 0.44690826E+00 0.27637146E+04</pdfrwt>
<pdfrwt beam="2">  1       -1 0.10113030E+00 0.27637146E+04</pdfrwt>
<totfact> 0.56490572E-01</totfact>
</mgrwt>
</event>
<event>
 6    1  0.1588846E-005  0.1142257E+04  0.7818608E-02  0.9164956E-01
         -3   -1    0    0    0  501 -0.00000000000E+00  0.00000000000E+00  0.90496711795E+03  0.90496711795E+03  0.00000000000E+00 0. -1.
          3   -1    0    0  501    0  0.00000000000E+00 -0.00000000000E+00 -0.36044170171E+03  0.36044170171E+03  0.00000000000E+00 0.  1.
         23    2    1    2    0    0  0.31724296114E+03  0.34760017125E+03  0.62521116213E+03  0.78793718173E+03  0.92125076164E+02 0.  0.
         13    1    3    3    0    0  0.47698882397E+02  0.11103851540E+03  0.16290644076E+03  0.20283797407E+03  0.00000000000E+00 0. -1.
        -13    1    3    3    0    0  0.26954407875E+03  0.23656165585E+03  0.46230472136E+03  0.58509920766E+03  0.00000000000E+00 0.  1.
         22    1    1    2    0    0 -0.31724296114E+03 -0.34760017125E+03 -0.80685745887E+02  0.47747163794E+03  0.00000000000E+00 0. -1.
<mgrwt>
<rscale>  0 0.11422572E+04</rscale>
<asrwt>0</asrwt>
<pdfrwt beam="1">  1        3 0.55452570E-01 0.11422572E+04</pdfrwt>
<pdfrwt beam="2">  1       -3 0.13922571E+00 0.11422572E+04</pdfrwt>
<totfact> 0.32482254E+00</totfact>
</mgrwt>
</event>
<event>
 6    1  0.1588846E-005  0.1189052E+04  0.7818608E-02  0.9122494E-01
          2   -1    0    0  501    0  0.00000000000E+00  0.00000000000E+00  0.13044622997E+04  0.13044622997E+04  0.00000000000E+00 0. -1.
         -2   -1    0    0    0  501 -0.00000000000E+00 -0.00000000000E+00 -0.27096295193E+03  0.27096295193E+03  0.00000000000E+00 0.  1.
         23    2    1    2    0    0 -0.19298106679E+03 -0.47331440805E+03  0.12641322016E+03  0.53423676538E+03  0.90334922651E+02 0.  0.
         13    1    3    3    0    0 -0.82181743118E+02 -0.31099804410E+03  0.93374945362E+02  0.33495149314E+03  0.00000000000E+00 0.  1.
        -13    1    3    3    0    0 -0.11079932367E+03 -0.16231636395E+03  0.33038274794E+02  0.19928527224E+03  0.00000000000E+00 0. -1.
         22    1    1    2    0    0  0.19298106679E+03  0.47331440805E+03  0.90708612763E+03  0.10411884863E+04  0.00000000000E+00 0.  1.
<mgrwt>
<rscale>  0 0.11890516E+04</rscale>
<asrwt>0</asrwt>
<pdfrwt beam="1">  1        2 0.20068650E+00 0.11890516E+04</pdfrwt>
<pdfrwt beam="2">  1       -2 0.41686609E-01 0.11890516E+04</pdfrwt>
<totfact> 0.88422058E+01</totfact>
</mgrwt>
</event>
<event>
 6    1  0.1588846E-005  0.2064391E+04  0.7818608E-02  0.8577094E-01
          1   -1    0    0  501    0  0.00000000000E+00  0.00000000000E+00  0.39695200631E+04  0.39695200631E+04  0.00000000000E+00 0. -1.
         -1   -1    0    0    0  501 -0.00000000000E+00 -0.00000000000E+00 -0.26840201669E+03  0.26840201669E+03  0.00000000000E+00 0.  1.
         23    2    1    2    0    0  0.10060289378E+04 -0.21998156387E+03  0.17691363751E+04  0.20486209835E+04  0.80736039550E+02 0.  0.
         11    1    3    3    0    0  0.69400964508E+03 -0.11653666036E+03  0.11754649258E+04  0.13700175080E+04  0.00000000000E+00 0. -1.
        -11    1    3    3    0    0  0.31201929271E+03 -0.10344490350E+03  0.59367144935E+03  0.67860347543E+03  0.00000000000E+00 0.  1.
         22    1    1    2    0    0 -0.10060289378E+04  0.21998156387E+03  0.19319816713E+04  0.21893010963E+04  0.00000000000E+00 0.  1.
<mgrwt>
<rscale>  0 0.20643907E+04</rscale>
<asrwt>0</asrwt>
<pdfrwt beam="1">  1        1 0.61069535E+00 0.20643907E+04</pdfrwt>
<pdfrwt beam="2">  1       -1 0.41292621E-01 0.20643907E+04</pdfrwt>
<totfact> 0.54468093E-01</totfact>
</mgrwt>
</event>
<event>
 6    1  0.1588846E-005  0.2483805E+04  0.7818608E-02  0.8408778E-01
          1   -1    0    0  501    0  0.00000000000E+00  0.00000000000E+00  0.10742856924E+04  0.10742856924E+04  0.00000000000E+00 0. -1.
         -1   -1    0    0    0  501 -0.00000000000E+00 -0.00000000000E+00 -0.14356716603E+04  0.14356716603E+04  0.00000000000E+00 0.  1.
         23    2    1    2    0    0 -0.51658623873E+03  0.58752756021E+03 -0.11533994615E+04  0.13967029567E+04  0.91645269369E+02 0.  0.
         13    1    3    3    0    0 -0.44114298479E+03  0.44772358323E+03 -0.90539917688E+03  0.11021847438E+04  0.00000000000E+00 0. -1.
        -13    1    3    3    0    0 -0.75443253945E+02  0.13980397698E+03 -0.24800028461E+03  0.29451821288E+03  0.00000000000E+00 0.  1.
         22    1    1    2    0    0  0.51658623873E+03 -0.58752756021E+03  0.79201349358E+03  0.11132543959E+04  0.00000000000E+00 0. -1.
<mgrwt>
<rscale>  0 0.24838048E+04</rscale>
<asrwt>0</asrwt>
<pdfrwt beam="1">  1        1 0.16527472E+00 0.24838048E+04</pdfrwt>
<pdfrwt beam="2">  1       -1 0.22087256E+00 0.24838048E+04</pdfrwt>
<totfact> 0.12808712E+00</totfact>
</mgrwt>
</event>
<event>
 6    1  0.1588846E-005  0.9389502E+03  0.7818608E-02  0.9378160E-01
          1   -1    0    0  501    0  0.00000000000E+00  0.00000000000E+00  0.22930194934E+04  0.22930194934E+04  0.00000000000E+00 0. -1.
         -1   -1    0    0    0  501 -0.00000000000E+00 -0.00000000000E+00 -0.96120810668E+02  0.96120810668E+02  0.00000000000E+00 0.  1.
         23    2    1    2    0    0 -0.39909531627E+03 -0.17508118785E+03  0.69703161627E+03  0.82724027178E+03  0.92427806267E+02 0.  0.
         13    1    3    3    0    0 -0.24203590050E+03 -0.15356730518E+03  0.43332155866E+03  0.51954967765E+03  0.00000000000E+00 0. -1.
        -13    1    3    3    0    0 -0.15705941576E+03 -0.21513882663E+02  0.26371005761E+03  0.30769059413E+03  0.00000000000E+00 0.  1.
         22    1    1    2    0    0  0.39909531627E+03  0.17508118785E+03  0.14998670664E+04  0.15619000323E+04  0.00000000000E+00 0. -1.
<mgrwt>
<rscale>  0 0.93895025E+03</rscale>
<asrwt>0</asrwt>
<pdfrwt beam="1">  1        1 0.35277219E+00 0.93895025E+03</pdfrwt>
<pdfrwt beam="2">  1       -1 0.14787819E-01 0.93895025E+03</pdfrwt>
<totfact> 0.64495113E+01</totfact>
</mgrwt>
</event>
<event>
 6    1  0.1588846E-005  0.5028631E+04  0.7818608E-02  0.7824106E-01
         -2   -1    0    0    0  501 -0.00000000000E+00  0.00000000000E+00  0.56438187251E+04  0.56438187251E+04  0.00000000000E+00 0.  1.
          2   -1    0    0  501    0  0.00000000000E+00 -0.00000000000E+00 -0.11201249641E+04  0.11201249641E+04  0.00000000000E+00 0. -1.
         23    2    1    2    0    0  0.19221906326E+04  0.16123707013E+04  0.20585273252E+04  0.32466149212E+04  0.91747433627E+02 0.  0.
         13    1    3    3    0    0  0.17983853658E+03  0.18340007110E+03  0.22670329262E+03  0.34259577961E+03  0.00000000000E+00 0.  1.
        -13    1    3    3    0    0  0.17423520960E+04  0.14289706302E+04  0.18318240326E+04  0.29040191416E+04  0.00000000000E+00 0. -1.
         22    1    1    2    0    0 -0.19221906326E+04 -0.16123707013E+04  0.24651664357E+04  0.35173287680E+04  0.00000000000E+00 0. -1.
<mgrwt>
<rscale>  0 0.50286309E+04</rscale>
<asrwt>0</asrwt>
<pdfrwt beam="1">  1        2 0.17232692E+00 0.50286309E+04</pdfrwt>
<pdfrwt beam="2">  1       -2 0.86827979E+00 0.50286309E+04</pdfrwt>
<totfact> 0.33114278E-04</totfact>
</mgrwt>
</event>
<event>
 6    1  0.1588846E-005  0.4285625E+04  0.7818608E-02  0.7949281E-01
         -2   -1    0    0    0  501 -0.00000000000E+00  0.00000000000E+00  0.19262661146E+04  0.19262661146E+04  0.00000000000E+00 0.  1.
          2   -1    0    0  501    0  0.00000000000E+00 -0.00000000000E+00 -0.23837030182E+04  0.23837030182E+04  0.00000000000E+00 0. -1.
         23    2    1    2    0    0  0.12241688287E+04  0.12378798944E+04 -0.14835034232E+04  0.22891404769E+04  0.91900827431E+02 0.  0.
         11    1    3    3    0    0  0.10162448389E+03  0.12510961629E+03 -0.11010565289E+03  0.19520042678E+03  0.00000000000E+00 0. -1.
        -11    1    3    3    0    0  0.11225443448E+04  0.11127702781E+04 -0.13733977703E+04  0.20939400501E+04  0.00000000000E+00 0.  1.
         22    1    1    2    0    0 -0.12241688287E+04 -0.12378798944E+04  0.10260665196E+04  0.20208286560E+04  0.00000000000E+00 0.  1.
<mgrwt>
<rscale>  0 0.42856254E+04</rscale>
<asrwt>0</asrwt>
<pdfrwt beam="1">  1        2 0.36672354E+00 0.42856254E+04</pdfrwt>
<pdfrwt beam="2">  1       -2 0.29634863E+00 0.42856254E+04</pdfrwt>
<totfact> 0.10478636E-01</totfact>
</mgrwt>
</event>
<event>
 6    1  0.1588846E-005  0.3844458E+04  0.7818608E-02  0.8036681E-01
         -2   -1    0    0    0  501 -0.00000000000E+00  0.00000000000E+00  0.25139091709E+04  0.25139091709E+04  0.00000000000E+00 0.  1.
          2   -1    0    0  501    0  0.00000000000E+00 -0.00000000000E+00 -0.14698081744E+04  0.14698081744E+04  0.00000000000E+00 0. -1.
         23    2    1    2    0    0 -0.78381177552E+03 -0.21715932151E+03 -0.12812387175E+04  0.15202393454E+04  0.89643435670E+02 0.  0.
         13    1    3    3    0    0 -0.35576467070E+03 -0.12291034396E+03 -0.66304187895E+03  0.76243031604E+03  0.00000000000E+00 0.  1.
        -13    1    3    3    0    0 -0.42804710481E+03 -0.94248977560E+02 -0.61819683859E+03  0.75780902935E+03  0.00000000000E+00 0. -1.
         22    1    1    2    0    0  0.78381177552E+03  0.21715932151E+03  0.23253397140E+04  0.24634779999E+04  0.00000000000E+00 0.  1.
<mgrwt>
<rscale>  0 0.38444580E+04</rscale>
<asrwt>0</asrwt>
<pdfrwt beam="1">  1        2 0.22612433E+00 0.38444580E+04</pdfrwt>
<pdfrwt beam="2">  1       -2 0.38675526E+00 0.38444580E+04</pdfrwt>
<totfact> 0.95444933E-02</totfact>
</mgrwt>
</event>
<event>
 6    1  0.1588846E-005  0.1550410E+04  0.7818608E-02  0.8851606E-01
          2   -1    0    0  501    0  0.00000000000E+00  0.00000000000E+00  0.53666255321E+03  0.53666255321E+03  0.00000000000E+00 0. -1.
         -2   -1    0    0    0  501 -0.00000000000E+00 -0.00000000000E+00 -0.11197773611E+04  0.11197773611E+04  0.00000000000E+00 0.  1.
         23    2    1    2    0    0 -0.28404093782E+03 -0.70066346506E+03 -0.46213587911E+03  0.89077389912E+03  0.91104461826E+02 0.  0.
         11    1    3    3    0    0 -0.10813545609E+03 -0.38476223220E+03 -0.25454500491E+03  0.47384429058E+03  0.00000000000E+00 0. -1.
        -11    1    3    3    0    0 -0.17590548173E+03 -0.31590123286E+03 -0.20759087421E+03  0.41692960855E+03  0.00000000000E+00 0.  1.
         22    1    1    2    0    0  0.28404093782E+03  0.70066346506E+03 -0.12097892879E+03  0.76566601520E+03  0.00000000000E+00 0. -1.
<mgrwt>
<rscale>  0 0.15504097E+04</rscale>
<asrwt>0</asrwt>
<pdfrwt beam="1">  1        2 0.82563471E-01 0.15504097E+04</pdfrwt>
<pdfrwt beam="2">  1       -2 0.17227344E+00 0.15504097E+04</pdfrwt>
<totfact> 0.11191848E+01</totfact>
</mgrwt>
</event>
<event>
 6    1  0.1588846E-005  0.2158050E+04  0.7818608E-02  0.8536094E-01
          2   -1    0    0  501    0  0.00000000000E+00  0.00000000000E+00  0.25826698367E+04  0.25826698367E+04  0.00000000000E+00 0.  1.
         -2   -1    0    0    0  501 -0.00000000000E+00 -0.00000000000E+00 -0.45081073034E+03  0.45081073034E+03  0.00000000000E+00 0. -1.
         23    2    1    2    0    0 -0.16089177512E+03 -0.57647604960E+03 -0.19136688260E+03  0.63439953573E+03  0.87353809963E+02 0.  0.
         13    1    3    3    0    0 -0.13165116212E+03 -0.34457823793E+03 -0.14358281083E+03  0.39583104237E+03  0.00000000000E+00 0.  1.
        -13    1    3    3    0    0 -0.29240612998E+02 -0.23189781167E+03 -0.47784071767E+02  0.23856849335E+03  0.00000000000E+00 0. -1.
         22    1    1    2    0    0  0.16089177512E+03  0.57647604960E+03  0.23232259889E+04  0.23990810313E+04  0.00000000000E+00 0.  1.
<mgrwt>
<rscale>  0 0.21580503E+04</rscale>
<asrwt>0</asrwt>
<pdfrwt beam="1">  1        2 0.39733381E+00 0.21580503E+04</pdfrwt>
<pdfrwt beam="2">  1       -2 0.69355499E-01 0.21580503E+04</pdfrwt>
<totfact> 0.54217768E+00</totfact>
</mgrwt>
</event>
<event>
 6    1  0.1588846E-005  0.2977108E+04  0.7818608E-02  0.8250298E-01
         -2   -1    0    0    0  501 -0.00000000000E+00  0.00000000000E+00  0.13045994706E+04  0.13045994706E+04  0.00000000000E+00 0.  1.
          2   -1    0    0  501    0  0.00000000000E+00 -0.00000000000E+00 -0.16984474530E+04  0.16984474530E+04  0.00000000000E+00 0. -1.
         23    2    1    2    0    0 -0.12904545560E+04 -0.39126264504E+03 -0.82965716264E+03  0.15859057662E+04  0.91687912509E+02 0.  0.
         13    1    3    3    0    0 -0.97031234344E+03 -0.29471576013E+03 -0.57647085504E+03  0.11664827773E+04  0.00000000000E+00 0. -1.
        -13    1    3    3    0    0 -0.32014221253E+03 -0.96546884909E+02 -0.25318630761E+03  0.41942298887E+03  0.00000000000E+00 0.  1.
         22    1    1    2    0    0  0.12904545560E+04  0.39126264504E+03  0.43580918031E+03  0.14171411574E+04  0.00000000000E+00 0.  1.
<mgrwt>
<rscale>  0 0.29771084E+04</rscale>
<asrwt>0</asrwt>
<pdfrwt beam="1">  1        2 0.26129961E+00 0.29771084E+04</pdfrwt>
<pdfrwt beam="2">  1       -2 0.20070761E+00 0.29771084E+04</pdfrwt>
<totfact> 0.11090436E+00</totfact>
</mgrwt>
</event>
<event>
 6    1  0.1588846E-005  0.4285834E+04  0.7818608E-02  0.7949243E-01
          1   -1    0    0  501    0  0.00000000000E+00  0.00000000000E+00  0.16512541758E+04  0.16512541758E+04  0.00000000000E+00 0. -1.
         -1   -1    0    0    0  501 -0.00000000000E+00 -0.00000000000E+00 -0.27809729526E+04  0.27809729526E+04  0.00000000000E+00 0.  1.
         23    2    1    2    0    0 -0.12278967842E+04 -0.36709876543E+03  0.12098706335E+04  0.17646119717E+04  0.87042774912E+02 0.  0.
         13    1    3    3    0    0 -0.58980769778E+03 -0.13122402997E+03  0.57520491756E+03  0.83423831343E+03  0.00000000000E+00 0.  1.
        -13    1    3    3    0    0 -0.63808908637E+03 -0.23587473546E+03  0.63466571594E+03  0.93037365825E+03  0.00000000000E+00 0. -1.
         22    1    1    2    0    0  0.12278967842E+04  0.36709876543E+03 -0.23395894103E+04  0.26676151568E+04  0.00000000000E+00 0.  1.
<mgrwt>
<rscale>  0 0.42858340E+04</rscale>
<asrwt>0</asrwt>
<pdfrwt beam="1">  1        1 0.25403911E+00 0.42858340E+04</pdfrwt>
<pdfrwt beam="2">  1       -1 0.42784199E+00 0.42858340E+04</pdfrwt>
<totfact> 0.18110332E-02</totfact>
</mgrwt>
</event>
<event>
 6    1  0.1588846E-005  0.1316327E+04  0.7818608E-02  0.9016717E-01
         -2   -1    0    0    0  501 -0.00000000000E+00  0.00000000000E+00  0.18861491098E+04  0.18861491098E+04  0.00000000000E+00 0.  1.
          2   -1    0    0  501    0  0.00000000000E+00 -0.00000000000E+00 -0.22966336590E+03  0.22966336590E+03  0.00000000000E+00 0. -1.
         23    2    1    2    0    0 -0.33816251561E+03  0.23798412734E+03  0.15438508654E+02  0.42346902351E+03  0.89985190447E+02 0.  0.
         13    1    3    3    0    0 -0.28475483926E+03  0.18447101712E+03 -0.20198546669E+02  0.33988653390E+03  0.00000000000E+00 0. -1.
        -13    1    3    3    0    0 -0.53407676351E+02  0.53513110219E+02  0.35637055323E+02  0.83582489617E+02  0.00000000000E+00 0.  1.
         22    1    1    2    0    0  0.33816251561E+03 -0.23798412734E+03  0.16410472352E+04  0.16923434521E+04  0.00000000000E+00 0.  1.
<mgrwt>
<rscale>  0 0.13163272E+04</rscale>
<asrwt>0</asrwt>
<pdfrwt beam="1">  1        2 0.35332827E-01 0.13163272E+04</pdfrwt>
<pdfrwt beam="2">  1       -2 0.29017678E+00 0.13163272E+04</pdfrwt>
<totfact> 0.53172738E+00</totfact>
</mgrwt>
</event>
<event>
 6    1  0.2168342E-005  0.3193616E+04  0.7818608E-02  0.8190505E-01
         -1   -1    0    0    0  501 -0.00000000000E+00  0.00000000000E+00  0.12365897316E+04  0.12365897316E+04  0.00000000000E+00 0.  1.
          1   -1    0    0  501    0  0.00000000000E+00 -0.00000000000E+00 -0.20619583367E+04  0.20619583367E+04  0.00000000000E+00 0. -1.
         23    2    1    2    0    0  0.36626457007E+03 -0.15411690541E+04 -0.61543749633E+03  0.17006047468E+04  0.62780606197E+02 0.  0.
         11    1    3    3    0    0  0.13073967297E+03 -0.66494702132E+03 -0.24586115104E+03  0.72089882011E+03  0.00000000000E+00 0.  1.
        -11    1    3    3    0    0  0.23552489709E+03 -0.87622203274E+03 -0.36957634529E+03  0.97970592670E+03  0.00000000000E+00 0. -1.
         22    1    1    2    0    0 -0.36626457007E+03  0.15411690541E+04 -0.20993110877E+03  0.15979433216E+04  0.00000000000E+00 0.  1.
<mgrwt>
<rscale>  0 0.31936164E+04</rscale>
<asrwt>0</asrwt>
<pdfrwt beam="1">  1        1 0.31722435E+00 0.31936164E+04</pdfrwt>
<pdfrwt beam="2">  1       -1 0.19024458E+00 0.31936164E+04</pdfrwt>
<totfact> 0.39851027E-01</totfact>
</mgrwt>
</event>
<event>
 6    1  0.1588846E-005  0.7221386E+04  0.7818608E-02  0.7555025E-01
          1   -1    0    0  501    0  0.00000000000E+00  0.00000000000E+00  0.29779771619E+04  0.29779771619E+04  0.00000000000E+00 0. -1.
         -1   -1    0    0    0  501 -0.00000000000E+00 -0.00000000000E+00 -0.43778382841E+04  0.43778382841E+04  0.00000000000E+00 0.  1.
         23    2    1    2    0    0  0.19490565246E+04  0.15394215556E+04 -0.33687992639E+04  0.41863742544E+04  0.90999206769E+02 0.  0.
         11    1    3    3    0    0  0.10566443451E+04  0.81295128481E+03 -0.17370999645E+04  0.21897267753E+04  0.00000000000E+00 0.  1.
        -11    1    3    3    0    0  0.89241217948E+03  0.72647027081E+03 -0.16316992993E+04  0.19966474791E+04  0.00000000000E+00 0. -1.
         22    1    1    2    0    0 -0.19490565246E+04 -0.15394215556E+04  0.19689381416E+04  0.31694411916E+04  0.00000000000E+00 0. -1.
<mgrwt>
<rscale>  0 0.72213856E+04</rscale>
<asrwt>0</asrwt>
<pdfrwt beam="1">  1        1 0.45815034E+00 0.72213856E+04</pdfrwt>
<pdfrwt beam="2">  1       -1 0.67351358E+00 0.72213856E+04</pdfrwt>
<totfact> 0.95701881E-05</totfact>
</mgrwt>
</event>
<event>
 6    1  0.1588846E-005  0.4902215E+04  0.7818608E-02  0.7843771E-01
         -2   -1    0    0    0  501 -0.00000000000E+00  0.00000000000E+00  0.16341409120E+04  0.16341409120E+04  0.00000000000E+00 0. -1.
          2   -1    0    0  501    0  0.00000000000E+00 -0.00000000000E+00 -0.36765047083E+04  0.36765047083E+04  0.00000000000E+00 0.  1.
         23    2    1    2    0    0  0.83832027090E+03  0.10963493142E+04  0.11718588263E+04  0.18126476553E+04  0.87611176049E+02 0.  0.
         13    1    3    3    0    0  0.21688166316E+03  0.25410753817E+03  0.24124979582E+03  0.41207979901E+03  0.00000000000E+00 0. -1.
        -13    1    3    3    0    0  0.62143860774E+03  0.84224177604E+03  0.93060903052E+03  0.14005678563E+04  0.00000000000E+00 0.  1.
         22    1    1    2    0    0 -0.83832027090E+03 -0.10963493142E+04 -0.32142226227E+04  0.34979979650E+04  0.00000000000E+00 0.  1.
<mgrwt>
<rscale>  0 0.49022145E+04</rscale>
<asrwt>0</asrwt>
<pdfrwt beam="1">  1        2 0.56561611E+00 0.49022145E+04</pdfrwt>
<pdfrwt beam="2">  1       -2 0.25140629E+00 0.49022145E+04</pdfrwt>
<totfact> 0.27997739E-02</totfact>
</mgrwt>
</event>
<event>
 6    1  0.1588846E-005  0.1966240E+04  0.7818608E-02  0.8622569E-01
         -2   -1    0    0    0  501 -0.00000000000E+00  0.00000000000E+00  0.35875196258E+03  0.35875196258E+03  0.00000000000E+00 0.  1.
          2   -1    0    0  501    0  0.00000000000E+00 -0.00000000000E+00 -0.26941326279E+04  0.26941326279E+04  0.00000000000E+00 0. -1.
         23    2    1    2    0    0 -0.53723470740E+03  0.14370739489E+01  0.10313087841E+03  0.55589405287E+03  0.98787772119E+02 0.  0.
         13    1    3    3    0    0 -0.19132888370E+03  0.30822298056E+01 -0.10926023883E+02  0.19166538518E+03  0.00000000000E+00 0.  1.
        -13    1    3    3    0    0 -0.34590582370E+03 -0.16451558567E+01  0.11405690230E+03  0.36422866769E+03  0.00000000000E+00 0. -1.
         22    1    1    2    0    0  0.53723470740E+03 -0.14370739489E+01 -0.24385115437E+04  0.24969905376E+04  0.00000000000E+00 0. -1.
<mgrwt>
<rscale>  0 0.19662404E+04</rscale>
<asrwt>0</asrwt>
<pdfrwt beam="1">  1        2 0.41448194E+00 0.19662404E+04</pdfrwt>
<pdfrwt beam="2">  1       -2 0.55192609E-01 0.19662404E+04</pdfrwt>
<totfact> 0.77067620E+00</totfact>
</mgrwt>
</event>
<event>
 6    1  0.1588846E-005  0.1423936E+04  0.7818608E-02  0.8936672E-01
         -2   -1    0    0    0  501 -0.00000000000E+00  0.00000000000E+00  0.59032066554E+03  0.59032066554E+03  0.00000000000E+00 0. -1.
          2   -1    0    0  501    0  0.00000000000E+00 -0.00000000000E+00 -0.85868327527E+03  0.85868327527E+03  0.00000000000E+00 0.  1.
         23    2    1    2    0    0 -0.29420251876E+03 -0.33919313351E+03  0.42393842695E+03  0.62384466573E+03  0.88607410781E+02 0.  0.
         13    1    3    3    0    0 -0.11215618202E+03 -0.81802998571E+02  0.16683957380E+03  0.21703958885E+03  0.00000000000E+00 0. -1.
        -13    1    3    3    0    0 -0.18204633674E+03 -0.25739013494E+03  0.25709885315E+03  0.40680507688E+03  0.00000000000E+00 0.  1.
         22    1    1    2    0    0  0.29420251876E+03  0.33919313351E+03 -0.69230103668E+03  0.82515927509E+03  0.00000000000E+00 0.  1.
<mgrwt>
<rscale>  0 0.14239361E+04</rscale>
<asrwt>0</asrwt>
<pdfrwt beam="1">  1        2 0.13210512E+00 0.14239361E+04</pdfrwt>
<pdfrwt beam="2">  1       -2 0.90818565E-01 0.14239361E+04</pdfrwt>
<totfact> 0.31482684E+01</totfact>
</mgrwt>
</event>
<event>
 6    1  0.1588846E-005  0.1472828E+04  0.7818608E-02  0.8902726E-01
         -1   -1    0    0    0  501 -0.00000000000E+00  0.00000000000E+00  0.17130893180E+03  0.17130893180E+03  0.00000000000E+00 0.  1.
          1   -1    0    0  501    0  0.00000000000E+00 -0.00000000000E+00 -0.31656594924E+04  0.31656594924E+04  0.00000000000E+00 0. -1.
         23    2    1    2    0    0  0.58972651224E+03  0.42936661614E+03 -0.13220554281E+04  0.15124947849E+04  0.87617744123E+02 0.  0.
         13    1    3    3    0    0  0.33268150799E+03  0.23097591984E+03 -0.82045219299E+03  0.91496921385E+03  0.00000000000E+00 0.  1.
        -13    1    3    3    0    0  0.25704500425E+03  0.19839069630E+03 -0.50160323509E+03  0.59752557103E+03  0.00000000000E+00 0. -1.
         22    1    1    2    0    0 -0.58972651224E+03 -0.42936661614E+03 -0.16722951325E+04  0.18244736393E+04  0.00000000000E+00 0.  1.
<mgrwt>
<rscale>  0 0.14728282E+04</rscale>
<asrwt>0</asrwt>
<pdfrwt beam="1">  1        1 0.48702453E+00 0.14728282E+04</pdfrwt>
<pdfrwt beam="2">  1       -1 0.26355221E-01 0.14728282E+04</pdfrwt>
<totfact> 0.56386443E+00</totfact>
</mgrwt>
</event>
<event>
 6    1  0.1588846E-005  0.2281279E+04  0.7818608E-02  0.8485339E-01
          1   -1    0    0  501    0  0.00000000000E+00  0.00000000000E+00  0.10914353989E+04  0.10914353989E+04  0.00000000000E+00 0. -1.
         -1   -1    0    0    0  501 -0.00000000000E+00 -0.00000000000E+00 -0.11920616392E+04  0.11920616392E+04  0.00000000000E+00 0.  1.
         23    2    1    2    0    0  0.27432315267E+03  0.59954012263E+03  0.87884543579E+03  0.11027911835E+04  0.95276144349E+02 0.  0.
         11    1    3    3    0    0  0.25311085715E+02  0.13413794687E+02  0.28406855760E+02  0.40342662309E+02  0.00000000000E+00 0. -1.
        -11    1    3    3    0    0  0.24901206696E+03  0.58612632794E+03  0.85043858003E+03  0.10624485212E+04  0.00000000000E+00 0.  1.
         22    1    1    2    0    0 -0.27432315267E+03 -0.59954012263E+03 -0.97947167611E+03  0.11807058546E+04  0.00000000000E+00 0.  1.
<mgrwt>
<rscale>  0 0.22812788E+04</rscale>
<asrwt>0</asrwt>
<pdfrwt beam="1">  1        1 0.16791314E+00 0.22812788E+04</pdfrwt>
<pdfrwt beam="2">  1       -1 0.18339410E+00 0.22812788E+04</pdfrwt>
<totfact> 0.22927673E+00</totfact>
</mgrwt>
</event>
<event>
 6    1  0.1588846E-005  0.2654923E+04  0.7818608E-02  0.8349781E-01
          2   -1    0    0  501    0  0.00000000000E+00  0.00000000000E+00  0.34166871742E+04  0.34166871742E+04  0.00000000000E+00 0. -1.
         -2   -1    0    0    0  501 -0.00000000000E+00 -0.00000000000E+00 -0.51574947378E+03  0.51574947378E+03  0.00000000000E+00 0.  1.
         23    2    1    2    0    0 -0.58601224736E+03 -0.37561471621E+03  0.31237029934E+04  0.32016007260E+04  0.90719613570E+02 0.  0.
         11    1    3    3    0    0 -0.45658854786E+03 -0.28875837005E+03  0.22375054491E+04  0.23018004112E+04  0.00000000000E+00 0.  1.
        -11    1    3    3    0    0 -0.12942369950E+03 -0.86856346160E+02  0.88619754438E+03  0.89980031480E+03  0.00000000000E+00 0. -1.
         22    1    1    2    0    0  0.58601224736E+03  0.37561471621E+03 -0.22276529303E+03  0.73083592199E+03  0.00000000000E+00 0.  1.
<mgrwt>
<rscale>  0 0.26549234E+04</rscale>
<asrwt>0</asrwt>
<pdfrwt beam="1">  1        2 0.52564417E+00 0.26549234E+04</pdfrwt>
<pdfrwt beam="2">  1       -2 0.79346075E-01 0.26549234E+04</pdfrwt>
<totfact> 0.11516987E+00</totfact>
</mgrwt>
</event>
<event>
 6    1  0.1588846E-005  0.5421274E+04  0.7818608E-02  0.7766616E-01
          2   -1    0    0  501    0  0.00000000000E+00  0.00000000000E+00  0.29474144503E+04  0.29474144503E+04  0.00000000000E+00 0. -1.
         -2   -1    0    0    0  501 -0.00000000000E+00 -0.00000000000E+00 -0.24928806734E+04  0.24928806734E+04  0.00000000000E+00 0.  1.
         23    2    1    2    0    0  0.12657097660E+04  0.14735852638E+04 -0.16687310733E+04  0.25624959011E+04  0.90813583540E+02 0.  0.
         13    1    3    3    0    0  0.64412866780E+03  0.68663652628E+03 -0.78306084504E+03  0.12245634924E+04  0.00000000000E+00 0. -1.
        -13    1    3    3    0    0  0.62158109819E+03  0.78694873753E+03 -0.88567022824E+03  0.13379324087E+04  0.00000000000E+00 0.  1.
         22    1    1    2    0    0 -0.12657097660E+04 -0.14735852638E+04  0.21232648501E+04  0.28777992226E+04  0.00000000000E+00 0. -1.
<mgrwt>
<rscale>  0 0.54212738E+04</rscale>
<asrwt>0</asrwt>
<pdfrwt beam="1">  1        2 0.45344837E+00 0.54212738E+04</pdfrwt>
<pdfrwt beam="2">  1       -2 0.38352011E+00 0.54212738E+04</pdfrwt>
<totfact> 0.12566242E-02</totfact>
</mgrwt>
</event>
<event>
 6    1  0.1588846E-005  0.7951657E+03  0.7818608E-02  0.9567041E-01
         -1   -1    0    0    0  501 -0.00000000000E+00  0.00000000000E+00  0.22038599015E+03  0.22038599015E+03  0.00000000000E+00 0.  1.
          1   -1    0    0  501    0  0.00000000000E+00 -0.00000000000E+00 -0.71725128129E+03  0.71725128129E+03  0.00000000000E+00 0. -1.
         23    2    1    2    0    0  0.34910625133E+03  0.17525709497E+03 -0.20608636913E+03  0.45066437122E+03  0.89646862128E+02 0.  0.
         13    1    3    3    0    0  0.12001638164E+03  0.10493002507E+03 -0.62058337544E+02  0.17107156188E+03  0.00000000000E+00 0.  1.
        -13    1    3    3    0    0  0.22908986969E+03  0.70327069901E+02 -0.14402803158E+03  0.27959280934E+03  0.00000000000E+00 0. -1.
         22    1    1    2    0    0 -0.34910625133E+03 -0.17525709497E+03 -0.29077892202E+03  0.48697290022E+03  0.00000000000E+00 0.  1.
<mgrwt>
<rscale>  0 0.79516573E+03</rscale>
<asrwt>0</asrwt>
<pdfrwt beam="1">  1        1 0.11034635E+00 0.79516573E+03</pdfrwt>
<pdfrwt beam="2">  1       -1 0.33905537E-01 0.79516573E+03</pdfrwt>
<totfact> 0.21778767E+02</totfact>
</mgrwt>
</event>
<event>
 6    1  0.1588846E-005  0.1520080E+04  0.7818608E-02  0.8871209E-01
         -1   -1    0    0    0  501 -0.00000000000E+00  0.00000000000E+00  0.72864787825E+03  0.72864787825E+03  0.00000000000E+00 0. -1.
          1   -1    0    0  501    0  0.00000000000E+00 -0.00000000000E+00 -0.79278477159E+03  0.79278477159E+03  0.00000000000E+00 0.  1.
         23    2    1    2    0    0  0.60283641084E+03  0.30329053747E+03 -0.37692656583E+03  0.77763545465E+03  0.85125648014E+02 0.  0.
         11    1    3    3    0    0  0.45448484452E+03  0.18683064863E+03 -0.26415342220E+03  0.55788815691E+03  0.00000000000E+00 0. -1.
        -11    1    3    3    0    0  0.14835156632E+03  0.11645988884E+03 -0.11277314363E+03  0.21974729774E+03  0.00000000000E+00 0.  1.
         22    1    1    2    0    0 -0.60283641084E+03 -0.30329053747E+03  0.31278967249E+03  0.74379719518E+03  0.00000000000E+00 0. -1.
<mgrwt>
<rscale>  0 0.15200802E+04</rscale>
<asrwt>0</asrwt>
<pdfrwt beam="1">  1        1 0.12196689E+00 0.15200802E+04</pdfrwt>
<pdfrwt beam="2">  1       -1 0.11209967E+00 0.15200802E+04</pdfrwt>
<totfact> 0.15813986E+01</totfact>
</mgrwt>
</event>
<event>
 6    1  0.1588846E-005  0.9477337E+03  0.7818608E-02  0.9367803E-01
         -1   -1    0    0    0  501 -0.00000000000E+00  0.00000000000E+00  0.24854526697E+03  0.24854526697E+03  0.00000000000E+00 0. -1.
          1   -1    0    0  501    0  0.00000000000E+00 -0.00000000000E+00 -0.90345639555E+03  0.90345639555E+03  0.00000000000E+00 0.  1.
         23    2    1    2    0    0  0.43569311925E+03  0.12635213643E+03 -0.47815208421E+03  0.66513708556E+03  0.89356423454E+02 0.  0.
         11    1    3    3    0    0  0.23688077724E+03  0.53291801021E+02 -0.19433900967E+03  0.31099866456E+03  0.00000000000E+00 0.  1.
        -11    1    3    3    0    0  0.19881234201E+03  0.73060335411E+02 -0.28381307454E+03  0.35413842100E+03  0.00000000000E+00 0. -1.
         22    1    1    2    0    0 -0.43569311925E+03 -0.12635213643E+03 -0.17675904437E+03  0.48686457697E+03  0.00000000000E+00 0. -1.
<mgrwt>
<rscale>  0 0.94773374E+03</rscale>
<asrwt>0</asrwt>
<pdfrwt beam="1">  1        1 0.13899329E+00 0.94773374E+03</pdfrwt>
<pdfrwt beam="2">  1       -1 0.38237734E-01 0.94773374E+03</pdfrwt>
<totfact> 0.12007286E+02</totfact>
</mgrwt>
</event>
<event>
 6    1  0.1588846E-005  0.5765404E+04  0.7818608E-02  0.7720189E-01
         -2   -1    0    0    0  501 -0.00000000000E+00  0.00000000000E+00  0.15618320165E+04  0.15618320165E+04  0.00000000000E+00 0.  1.
          2   -1    0    0  501    0  0.00000000000E+00 -0.00000000000E+00 -0.53206562452E+04  0.53206562452E+04  0.00000000000E+00 0. -1.
         23    2    1    2    0    0 -0.12720619358E+03  0.23023543475E+04  0.18410251322E+03  0.23148096117E+04  0.86213954175E+02 0.  0.
         11    1    3    3    0    0 -0.11703333576E+03  0.14933911598E+04  0.97003340546E+02  0.15011074598E+04  0.00000000000E+00 0.  1.
        -11    1    3    3    0    0 -0.10172857818E+02  0.80896318771E+03  0.87099172676E+02  0.81370215188E+03  0.00000000000E+00 0. -1.
         22    1    1    2    0    0  0.12720619358E+03 -0.23023543475E+04 -0.39429267419E+04  0.45676786500E+04  0.00000000000E+00 0. -1.
<mgrwt>
<rscale>  0 0.57654042E+04</rscale>
<asrwt>0</asrwt>
<pdfrwt beam="1">  1        2 0.81856251E+00 0.57654042E+04</pdfrwt>
<pdfrwt beam="2">  1       -2 0.24028185E+00 0.57654042E+04</pdfrwt>
<totfact> 0.59460431E-04</totfact>
</mgrwt>
</event>
<event>
 6    1  0.1588846E-005  0.1275924E+04  0.7818608E-02  0.9048878E-01
          2   -1    0    0  501    0  0.00000000000E+00  0.00000000000E+00  0.34313561948E+04  0.34313561948E+04  0.00000000000E+00 0. -1.
         -2   -1    0    0    0  501 -0.00000000000E+00 -0.00000000000E+00 -0.11861074932E+03  0.11861074932E+03  0.00000000000E+00 0.  1.
         23    2    1    2    0    0  0.10709464920E+03 -0.32018333024E+03  0.31602673828E+04  0.31795129140E+04  0.89586887531E+02 0.  0.
         13    1    3    3    0    0  0.40847424726E+02 -0.23308533482E+03  0.19491798045E+04  0.19634915828E+04  0.00000000000E+00 0. -1.
        -13    1    3    3    0    0  0.66247224476E+02 -0.87097995423E+02  0.12110875783E+04  0.12160213312E+04  0.00000000000E+00 0.  1.
         22    1    1    2    0    0 -0.10709464920E+03  0.32018333024E+03  0.15247806265E+03  0.37045403013E+03  0.00000000000E+00 0.  1.
<mgrwt>
<rscale>  0 0.12759243E+04</rscale>
<asrwt>0</asrwt>
<pdfrwt beam="1">  1        2 0.52790088E+00 0.12759243E+04</pdfrwt>
<pdfrwt beam="2">  1       -2 0.18247810E-01 0.12759243E+04</pdfrwt>
<totfact> 0.22810883E+01</totfact>
</mgrwt>
</event>
<event>
 6    1  0.1588846E-005  0.3358941E+04  0.7818608E-02  0.8148058E-01
         -1   -1    0    0    0  501 -0.00000000000E+00  0.00000000000E+00  0.21972526839E+04  0.21972526839E+04  0.00000000000E+00 0.  1.
          1   -1    0    0  501    0  0.00000000000E+00 -0.00000000000E+00 -0.12837032395E+04  0.12837032395E+04  0.00000000000E+00 0. -1.
         23    2    1    2    0    0  0.15126044781E+04  0.41966338058E+03 -0.15811028876E+03  0.15802865034E+04  0.90647168944E+02 0.  0.
         11    1    3    3    0    0  0.91857120864E+03  0.20905888002E+03 -0.99859184157E+02  0.94733866031E+03  0.00000000000E+00 0.  1.
        -11    1    3    3    0    0  0.59403326951E+03  0.21060450056E+03 -0.58251104603E+02  0.63294784313E+03  0.00000000000E+00 0. -1.
         22    1    1    2    0    0 -0.15126044781E+04 -0.41966338058E+03  0.10716597331E+04  0.19006694199E+04  0.00000000000E+00 0.  1.
<mgrwt>
<rscale>  0 0.33589405E+04</rscale>
<asrwt>0</asrwt>
<pdfrwt beam="1">  1        1 0.19749281E+00 0.33589405E+04</pdfrwt>
<pdfrwt beam="2">  1       -1 0.33803887E+00 0.33589405E+04</pdfrwt>
<totfact> 0.14294109E-01</totfact>
</mgrwt>
</event>
<event>
 6    1  0.1588846E-005  0.1849294E+04  0.7818608E-02  0.8680516E-01
          1   -1    0    0  501    0  0.00000000000E+00  0.00000000000E+00  0.25132098916E+04  0.25132098916E+04  0.00000000000E+00 0. -1.
         -1   -1    0    0    0  501 -0.00000000000E+00 -0.00000000000E+00 -0.34019119694E+03  0.34019119694E+03  0.00000000000E+00 0.  1.
         23    2    1    2    0    0 -0.82419394213E+03 -0.27966877727E+03  0.61832589320E+03  0.10716659830E+04  0.92902044012E+02 0.  0.
         11    1    3    3    0    0 -0.37097513318E+03 -0.13352941511E+03  0.33631026950E+03  0.51822509734E+03  0.00000000000E+00 0.  1.
        -11    1    3    3    0    0 -0.45321880895E+03 -0.14613936216E+03  0.28201562370E+03  0.55344088571E+03  0.00000000000E+00 0. -1.
         22    1    1    2    0    0  0.82419394213E+03  0.27966877727E+03  0.15546928015E+04  0.17817351055E+04  0.00000000000E+00 0. -1.
<mgrwt>
<rscale>  0 0.18492938E+04</rscale>
<asrwt>0</asrwt>
<pdfrwt beam="1">  1        1 0.38664766E+00 0.18492938E+04</pdfrwt>
<pdfrwt beam="2">  1       -1 0.52337109E-01 0.18492938E+04</pdfrwt>
<totfact> 0.45879429E+00</totfact>
</mgrwt>
</event>
<event>
 6    1  0.1588846E-005  0.2159641E+04  0.7818608E-02  0.8535417E-01
         -2   -1    0    0    0  501 -0.00000000000E+00  0.00000000000E+00  0.96102566797E+03  0.96102566797E+03  0.00000000000E+00 0.  1.
          2   -1    0    0  501    0  0.00000000000E+00 -0.00000000000E+00 -0.12133000599E+04  0.12133000599E+04  0.00000000000E+00 0. -1.
         23    2    1    2    0    0 -0.76825554209E+03  0.25572268354E+03 -0.84274302083E+03  0.11721960604E+04  0.90648419856E+02 0.  0.
         11    1    3    3    0    0 -0.13449538772E+03  0.59862836639E+02 -0.20184386594E+03  0.24982696961E+03  0.00000000000E+00 0.  1.
        -11    1    3    3    0    0 -0.63376015437E+03  0.19585984690E+03 -0.64089915490E+03  0.92236909079E+03  0.00000000000E+00 0. -1.
         22    1    1    2    0    0  0.76825554209E+03 -0.25572268354E+03  0.59046862886E+03  0.10021296675E+04  0.00000000000E+00 0.  1.
<mgrwt>
<rscale>  0 0.21596412E+04</rscale>
<asrwt>0</asrwt>
<pdfrwt beam="1">  1        2 0.18666155E+00 0.21596412E+04</pdfrwt>
<pdfrwt beam="2">  1       -2 0.14785010E+00 0.21596412E+04</pdfrwt>
<totfact> 0.53096815E+00</totfact>
</mgrwt>
</event>
<event>
 6    1  0.1588846E-005  0.1752645E+04  0.7818608E-02  0.8731896E-01
          2   -1    0    0  501    0  0.00000000000E+00  0.00000000000E+00  0.48089191862E+03  0.48089191862E+03  0.00000000000E+00 0. -1.
         -2   -1    0    0    0  501 -0.00000000000E+00 -0.00000000000E+00 -0.15969103695E+04  0.15969103695E+04  0.00000000000E+00 0.  1.
         23    2    1    2    0    0 -0.10926960838E+03 -0.78166611680E+03 -0.10041970652E+04  0.12806537525E+04  0.93383738717E+02 0.  0.
         11    1    3    3    0    0 -0.16279224702E+02 -0.42229604574E+03 -0.56586405281E+03  0.70625851476E+03  0.00000000000E+00 0.  1.
        -11    1    3    3    0    0 -0.92990383680E+02 -0.35937007106E+03 -0.43833301238E+03  0.57439523777E+03  0.00000000000E+00 0. -1.
         22    1    1    2    0    0  0.10926960838E+03  0.78166611680E+03 -0.11182138567E+03  0.79714853557E+03  0.00000000000E+00 0. -1.
<mgrwt>
<rscale>  0 0.17526452E+04</rscale>
<asrwt>0</asrwt>
<pdfrwt beam="1">  1        2 0.73983373E-01 0.17526452E+04</pdfrwt>
<pdfrwt beam="2">  1       -2 0.24567852E+00 0.17526452E+04</pdfrwt>
<totfact> 0.41710296E+00</totfact>
</mgrwt>
</event>
<event>
 6    1  0.1588846E-005  0.3216730E+04  0.7818608E-02  0.8184413E-01
          2   -1    0    0  501    0  0.00000000000E+00  0.00000000000E+00  0.25679760239E+04  0.25679760239E+04  0.00000000000E+00 0. -1.
         -2   -1    0    0    0  501 -0.00000000000E+00 -0.00000000000E+00 -0.10073453345E+04  0.10073453345E+04  0.00000000000E+00 0.  1.
         23    2    1    2    0    0  0.35161200014E+03 -0.66433891433E+03  0.23597385573E+04  0.24782568314E+04  0.91726071891E+02 0.  0.
         13    1    3    3    0    0  0.33129664425E+03 -0.56028915796E+03  0.20528998482E+04  0.21536200207E+04  0.00000000000E+00 0.  1.
        -13    1    3    3    0    0  0.20315355891E+02 -0.10404975637E+03  0.30683870910E+03  0.32463681074E+03  0.00000000000E+00 0. -1.
         22    1    1    2    0    0 -0.35161200014E+03  0.66433891433E+03 -0.79910786786E+03  0.10970645269E+04  0.00000000000E+00 0.  1.
<mgrwt>
<rscale>  0 0.32167304E+04</rscale>
<asrwt>0</asrwt>
<pdfrwt beam="1">  1        2 0.39507323E+00 0.32167304E+04</pdfrwt>
<pdfrwt beam="2">  1       -2 0.15497621E+00 0.32167304E+04</pdfrwt>
<totfact> 0.73368958E-01</totfact>
</mgrwt>
</event>
<event>
 6    1  0.1588846E-005  0.3530636E+04  0.7818608E-02  0.8106568E-01
         -1   -1    0    0    0  501 -0.00000000000E+00  0.00000000000E+00  0.14829691919E+04  0.14829691919E+04  0.00000000000E+00 0.  1.
          1   -1    0    0  501    0  0.00000000000E+00 -0.00000000000E+00 -0.21014241318E+04  0.21014241318E+04  0.00000000000E+00 0. -1.
         23    2    1    2    0    0 -0.15254166383E+03 -0.16813917348E+04 -0.82869393194E+03  0.18830563322E+04  0.93916945203E+02 0.  0.
         11    1    3    3    0    0 -0.27981800712E+02 -0.53539039293E+03 -0.30643068894E+03  0.61751568494E+03  0.00000000000E+00 0. -1.
        -11    1    3    3    0    0 -0.12455986312E+03 -0.11460013418E+04 -0.52226324300E+03  0.12655406473E+04  0.00000000000E+00 0.  1.
         22    1    1    2    0    0  0.15254166383E+03  0.16813917348E+04  0.21023899199E+03  0.17013369915E+04  0.00000000000E+00 0.  1.
<mgrwt>
<rscale>  0 0.35306358E+04</rscale>
<asrwt>0</asrwt>
<pdfrwt beam="1">  1        1 0.32329602E+00 0.35306358E+04</pdfrwt>
<pdfrwt beam="2">  1       -1 0.22814911E+00 0.35306358E+04</pdfrwt>
<totfact> 0.20093839E-01</totfact>
</mgrwt>
</event>
<event>
 6    1  0.1588846E-005  0.6817821E+04  0.7818608E-02  0.7596521E-01
         -2   -1    0    0    0  501 -0.00000000000E+00  0.00000000000E+00  0.25603705073E+04  0.25603705073E+04  0.00000000000E+00 0.  1.
          2   -1    0    0  501    0  0.00000000000E+00 -0.00000000000E+00 -0.45386683067E+04  0.45386683067E+04  0.00000000000E+00 0. -1.
         23    2    1    2    0    0  0.27339430930E+04  0.56135115441E+03 -0.30262603146E+04  0.41177999126E+04  0.92003664452E+02 0.  0.
         11    1    3    3    0    0  0.25118222355E+04  0.54067690870E+03 -0.27916991446E+04  0.37940962792E+04  0.00000000000E+00 0. -1.
        -11    1    3    3    0    0  0.22212085749E+03  0.20674245710E+02 -0.23456116996E+03  0.32370363331E+03  0.00000000000E+00 0.  1.
         22    1    1    2    0    0 -0.27339430930E+04 -0.56135115441E+03  0.10479625152E+04  0.29812389014E+04  0.00000000000E+00 0.  1.
<mgrwt>
<rscale>  0 0.68178215E+04</rscale>
<asrwt>0</asrwt>
<pdfrwt beam="1">  1        2 0.69825665E+00 0.68178215E+04</pdfrwt>
<pdfrwt beam="2">  1       -2 0.39390316E+00 0.68178215E+04</pdfrwt>
<totfact> 0.57253851E-04</totfact>
</mgrwt>
</event>
<event>
 6    1  0.1588846E-005  0.1069088E+04  0.7818608E-02  0.9235856E-01
          1   -1    0    0  501    0  0.00000000000E+00  0.00000000000E+00  0.66877329894E+03  0.66877329894E+03  0.00000000000E+00 0. -1.
         -1   -1    0    0    0  501 -0.00000000000E+00 -0.00000000000E+00 -0.42725557200E+03  0.42725557200E+03  0.00000000000E+00 0.  1.
         23    2    1    2    0    0 -0.14300688082E+03  0.29723656931E+03  0.54732299869E+03  0.64623179411E+03  0.96190024085E+02 0.  0.
         11    1    3    3    0    0 -0.16140478633E+02  0.14018855053E+03  0.20679031595E+03  0.25035091276E+03  0.00000000000E+00 0. -1.
        -11    1    3    3    0    0 -0.12686640218E+03  0.15704801878E+03  0.34053268274E+03  0.39588088135E+03  0.00000000000E+00 0.  1.
         22    1    1    2    0    0  0.14300688082E+03 -0.29723656931E+03 -0.30580527175E+03  0.44979707683E+03  0.00000000000E+00 0.  1.
<mgrwt>
<rscale>  0 0.10690877E+04</rscale>
<asrwt>0</asrwt>
<pdfrwt beam="1">  1        1 0.10288820E+00 0.10690877E+04</pdfrwt>
<pdfrwt beam="2">  1       -1 0.65731626E-01 0.10690877E+04</pdfrwt>
<totfact> 0.68392333E+01</totfact>
</mgrwt>
</event>
<event>
 6    1  0.1588846E-005  0.1112444E+04  0.7818608E-02  0.9193147E-01
         -2   -1    0    0    0  501 -0.00000000000E+00  0.00000000000E+00  0.45411590947E+03  0.45411590947E+03  0.00000000000E+00 0. -1.
          2   -1    0    0  501    0  0.00000000000E+00 -0.00000000000E+00 -0.68128641270E+03  0.68128641270E+03  0.00000000000E+00 0.  1.
         23    2    1    2    0    0 -0.39580609130E+03 -0.33330796823E+03  0.83058079205E+02  0.53207949237E+03  0.91941710224E+02 0.  0.
         11    1    3    3    0    0 -0.32866235149E+03 -0.28895070577E+03  0.10212593546E+03  0.44937863583E+03  0.00000000000E+00 0.  1.
        -11    1    3    3    0    0 -0.67143739817E+02 -0.44357262464E+02 -0.19067856254E+02  0.82700856537E+02  0.00000000000E+00 0. -1.
         22    1    1    2    0    0  0.39580609130E+03  0.33330796823E+03 -0.31022858244E+03  0.60332282980E+03  0.00000000000E+00 0.  1.
<mgrwt>
<rscale>  0 0.11124442E+04</rscale>
<asrwt>0</asrwt>
<pdfrwt beam="1">  1        2 0.10481329E+00 0.11124442E+04</pdfrwt>
<pdfrwt beam="2">  1       -2 0.69863986E-01 0.11124442E+04</pdfrwt>
<totfact> 0.78577188E+01</totfact>
</mgrwt>
</event>
<event>
 6    1  0.1588846E-005  0.8195322E+03  0.7818608E-02  0.9532168E-01
          2   -1    0    0  501    0  0.00000000000E+00  0.00000000000E+00  0.45543361951E+03  0.45543361951E+03  0.00000000000E+00 0. -1.
         -2   -1    0    0    0  501 -0.00000000000E+00 -0.00000000000E+00 -0.36867776050E+03  0.36867776050E+03  0.00000000000E+00 0.  1.
         23    2    1    2    0    0 -0.52873764994E+02 -0.63263589482E+02 -0.35453305880E+03  0.37518619052E+03  0.90956423598E+02 0.  0.
         11    1    3    3    0    0 -0.60354679495E+02 -0.12309812271E+02 -0.26341606711E+03  0.27052216772E+03  0.00000000000E+00 0. -1.
        -11    1    3    3    0    0  0.74809145005E+01 -0.50953777212E+02 -0.91116991692E+02  0.10466402280E+03  0.00000000000E+00 0.  1.
         22    1    1    2    0    0  0.52873764994E+02  0.63263589482E+02  0.44128891781E+03  0.44892518949E+03  0.00000000000E+00 0. -1.
<mgrwt>
<rscale>  0 0.81953218E+03</rscale>
<asrwt>0</asrwt>
<pdfrwt beam="1">  1        2 0.70066711E-01 0.81953218E+03</pdfrwt>
<pdfrwt beam="2">  1       -2 0.56719655E-01 0.81953218E+03</pdfrwt>
<totfact> 0.20136658E+02</totfact>
</mgrwt>
</event>
<event>
 6    1  0.1588846E-005  0.6371341E+04  0.7818608E-02  0.7645991E-01
         -2   -1    0    0    0  501 -0.00000000000E+00  0.00000000000E+00  0.22008215194E+04  0.22008215194E+04  0.00000000000E+00 0.  1.
          2   -1    0    0  501    0  0.00000000000E+00 -0.00000000000E+00 -0.46112315820E+04  0.46112315820E+04  0.00000000000E+00 0. -1.
         23    2    1    2    0    0  0.55242930501E+03 -0.30310937013E+04 -0.20684912355E+04  0.37121150943E+04  0.91843989529E+02 0.  0.
         11    1    3    3    0    0  0.16818250771E+03 -0.10329302352E+04 -0.74944857469E+03  0.12872075951E+04  0.00000000000E+00 0. -1.
        -11    1    3    3    0    0  0.38424679730E+03 -0.19981634661E+04 -0.13190426609E+04  0.24249074992E+04  0.00000000000E+00 0.  1.
         22    1    1    2    0    0 -0.55242930501E+03  0.30310937013E+04 -0.34191882707E+03  0.30999380071E+04  0.00000000000E+00 0.  1.
<mgrwt>
<rscale>  0 0.63713414E+04</rscale>
<asrwt>0</asrwt>
<pdfrwt beam="1">  1        2 0.70942025E+00 0.63713414E+04</pdfrwt>
<pdfrwt beam="2">  1       -2 0.33858792E+00 0.63713414E+04</pdfrwt>
<totfact> 0.11261318E-03</totfact>
</mgrwt>
</event>
<event>
 6    1  0.1588846E-005  0.8627864E+03  0.7818608E-02  0.9473334E-01
          2   -1    0    0  501    0  0.00000000000E+00  0.00000000000E+00  0.76820498275E+03  0.76820498275E+03  0.00000000000E+00 0. -1.
         -2   -1    0    0    0  501 -0.00000000000E+00 -0.00000000000E+00 -0.24225319636E+03  0.24225319636E+03  0.00000000000E+00 0.  1.
         23    2    1    2    0    0 -0.11918571419E+03  0.34585402614E+03  0.52297365748E+03  0.64463156565E+03  0.90709245109E+02 0.  0.
         11    1    3    3    0    0 -0.47206269720E+02  0.17352040868E+03  0.33164762806E+03  0.37726371854E+03  0.00000000000E+00 0.  1.
        -11    1    3    3    0    0 -0.71979444473E+02  0.17233361747E+03  0.19132602942E+03  0.26736784711E+03  0.00000000000E+00 0. -1.
         22    1    1    2    0    0  0.11918571419E+03 -0.34585402614E+03  0.29781289088E+01  0.36582661346E+03  0.00000000000E+00 0.  1.
<mgrwt>
<rscale>  0 0.86278645E+03</rscale>
<asrwt>0</asrwt>
<pdfrwt beam="1">  1        2 0.11818538E+00 0.86278645E+03</pdfrwt>
<pdfrwt beam="2">  1       -2 0.37269723E-01 0.86278645E+03</pdfrwt>
<totfact> 0.24753109E+02</totfact>
</mgrwt>
</event>
<event>
 6    1  0.1588846E-005  0.1795120E+04  0.7818608E-02  0.8708899E-01
         -1   -1    0    0    0  501 -0.00000000000E+00  0.00000000000E+00  0.95568415395E+03  0.95568415395E+03  0.00000000000E+00 0.  1.
          1   -1    0    0  501    0  0.00000000000E+00 -0.00000000000E+00 -0.84297057939E+03  0.84297057939E+03  0.00000000000E+00 0. -1.
         23    2    1    2    0    0  0.33688556742E+03 -0.64253973288E+03  0.58205915824E+03  0.93457460349E+03  0.91036431902E+02 0.  0.
         11    1    3    3    0    0  0.18687298357E+03 -0.44028312224E+03  0.35698843346E+03  0.59683455106E+03  0.00000000000E+00 0. -1.
        -11    1    3    3    0    0  0.15001258385E+03 -0.20225661064E+03  0.22507072478E+03  0.33774005243E+03  0.00000000000E+00 0.  1.
         22    1    1    2    0    0 -0.33688556742E+03  0.64253973288E+03 -0.46934558368E+03  0.86408012984E+03  0.00000000000E+00 0. -1.
<mgrwt>
<rscale>  0 0.17951196E+04</rscale>
<asrwt>0</asrwt>
<pdfrwt beam="1">  1        1 0.12968778E+00 0.17951196E+04</pdfrwt>
<pdfrwt beam="2">  1       -1 0.14702833E+00 0.17951196E+04</pdfrwt>
<totfact> 0.70576847E+00</totfact>
</mgrwt>
</event>
<event>
 6    1  0.1588846E-005  0.2189667E+04  0.7818608E-02  0.8522741E-01
          1   -1    0    0  501    0  0.00000000000E+00  0.00000000000E+00  0.81469953078E+03  0.81469953078E+03  0.00000000000E+00 0. -1.
         -1   -1    0    0    0  501 -0.00000000000E+00 -0.00000000000E+00 -0.14712908355E+04  0.14712908355E+04  0.00000000000E+00 0.  1.
         23    2    1    2    0    0 -0.66147960317E+03  0.59309955147E+03  0.33570538304E+03  0.95408381555E+03  0.90859669485E+02 0.  0.
         13    1    3    3    0    0 -0.33829221553E+03  0.29614062301E+03  0.12166062313E+03  0.46577054320E+03  0.00000000000E+00 0.  1.
        -13    1    3    3    0    0 -0.32318738763E+03  0.29695892846E+03  0.21404475991E+03  0.48831327236E+03  0.00000000000E+00 0. -1.
         22    1    1    2    0    0  0.66147960317E+03 -0.59309955147E+03 -0.99229668781E+03  0.13319065508E+04  0.00000000000E+00 0.  1.
<mgrwt>
<rscale>  0 0.21896666E+04</rscale>
<asrwt>0</asrwt>
<pdfrwt beam="1">  1        1 0.12533839E+00 0.21896666E+04</pdfrwt>
<pdfrwt beam="2">  1       -1 0.22635244E+00 0.21896666E+04</pdfrwt>
<totfact> 0.19551792E+00</totfact>
</mgrwt>
</event>
<event>
 6    1  0.1588846E-005  0.1927463E+04  0.7818608E-02  0.8641306E-01
          2   -1    0    0  501    0  0.00000000000E+00  0.00000000000E+00  0.24546331475E+04  0.24546331475E+04  0.00000000000E+00 0. -1.
         -2   -1    0    0    0  501 -0.00000000000E+00 -0.00000000000E+00 -0.37837772601E+03  0.37837772601E+03  0.00000000000E+00 0.  1.
         23    2    1    2    0    0  0.18945061868E+01  0.66294349362E+03  0.16552030406E+02  0.66924662478E+03  0.90107769850E+02 0.  0.
         13    1    3    3    0    0 -0.16264306294E+02  0.56450165148E+02 -0.18160319709E+02  0.61489397593E+02  0.00000000000E+00 0. -1.
        -13    1    3    3    0    0  0.18158812481E+02  0.60649332847E+03  0.34712350115E+02  0.60775722719E+03  0.00000000000E+00 0.  1.
         22    1    1    2    0    0 -0.18945061868E+01 -0.66294349362E+03  0.20597033911E+04  0.21637642487E+04  0.00000000000E+00 0. -1.
<mgrwt>
<rscale>  0 0.19274631E+04</rscale>
<asrwt>0</asrwt>
<pdfrwt beam="1">  1        2 0.37763586E+00 0.19274631E+04</pdfrwt>
<pdfrwt beam="2">  1       -2 0.58211959E-01 0.19274631E+04</pdfrwt>
<totfact> 0.95464094E+00</totfact>
</mgrwt>
</event>
<event>
 6    1  0.1588846E-005  0.1523991E+04  0.7818608E-02  0.8868654E-01
         -2   -1    0    0    0  501 -0.00000000000E+00  0.00000000000E+00  0.12414154538E+04  0.12414154538E+04  0.00000000000E+00 0. -1.
          2   -1    0    0  501    0  0.00000000000E+00 -0.00000000000E+00 -0.46772183526E+03  0.46772183526E+03  0.00000000000E+00 0.  1.
         23    2    1    2    0    0  0.13442899036E+03 -0.73271931568E+03  0.22378857758E+03  0.78320840245E+03  0.91571421240E+02 0.  0.
         11    1    3    3    0    0  0.56229541101E+02 -0.33611159794E+03  0.14978157370E+03  0.37224627249E+03  0.00000000000E+00 0.  1.
        -11    1    3    3    0    0  0.78199449264E+02 -0.39660771774E+03  0.74007003880E+02  0.41096212996E+03  0.00000000000E+00 0. -1.
         22    1    1    2    0    0 -0.13442899036E+03  0.73271931568E+03  0.54990504096E+03  0.92592888663E+03  0.00000000000E+00 0.  1.
<mgrwt>
<rscale>  0 0.15239910E+04</rscale>
<asrwt>0</asrwt>
<pdfrwt beam="1">  1        2 0.71957206E-01 0.15239910E+04</pdfrwt>
<pdfrwt beam="2">  1       -2 0.19098699E+00 0.15239910E+04</pdfrwt>
<totfact> 0.97844387E+00</totfact>
</mgrwt>
</event>
<event>
 6    1  0.1588846E-005  0.1841482E+04  0.7818608E-02  0.8684545E-01
          2   -1    0    0  501    0  0.00000000000E+00  0.00000000000E+00  0.22872450410E+04  0.22872450410E+04  0.00000000000E+00 0.  1.
         -2   -1    0    0    0  501 -0.00000000000E+00 -0.00000000000E+00 -0.37064870094E+03  0.37064870094E+03  0.00000000000E+00 0. -1.
         23    2    1    2    0    0  0.79416569404E+03 -0.41275821362E+03  0.12581997602E+04  0.15467886394E+04  0.91760372354E+02 0.  0.
         13    1    3    3    0    0  0.42561860430E+03 -0.19851546228E+03  0.73005027921E+03  0.86806278302E+03  0.00000000000E+00 0.  1.
        -13    1    3    3    0    0  0.36854708974E+03 -0.21424275135E+03  0.52814948096E+03  0.67872585637E+03  0.00000000000E+00 0. -1.
         22    1    1    2    0    0 -0.79416569404E+03  0.41275821362E+03  0.65839657988E+03  0.11111051025E+04  0.00000000000E+00 0. -1.
<mgrwt>
<rscale>  0 0.18414824E+04</rscale>
<asrwt>0</asrwt>
<pdfrwt beam="1">  1        2 0.35188384E+00 0.18414824E+04</pdfrwt>
<pdfrwt beam="2">  1       -2 0.57022879E-01 0.18414824E+04</pdfrwt>
<totfact> 0.12510068E+01</totfact>
</mgrwt>
</event>
<event>
 6    1  0.1588846E-005  0.3642982E+04  0.7818608E-02  0.8080717E-01
          2   -1    0    0  501    0  0.00000000000E+00  0.00000000000E+00  0.31674806972E+04  0.31674806972E+04  0.00000000000E+00 0. -1.
         -2   -1    0    0    0  501 -0.00000000000E+00 -0.00000000000E+00 -0.10474661607E+04  0.10474661607E+04  0.00000000000E+00 0.  1.
         23    2    1    2    0    0  0.73123798691E+03  0.61964571646E+03  0.28512711069E+04  0.30093739737E+04  0.88966179195E+02 0.  0.
         11    1    3    3    0    0  0.27605183361E+03  0.27752920864E+03  0.12511695263E+04  0.13109737832E+04  0.00000000000E+00 0. -1.
        -11    1    3    3    0    0  0.45518615330E+03  0.34211650782E+03  0.16001015805E+04  0.16984001905E+04  0.00000000000E+00 0.  1.
         22    1    1    2    0    0 -0.73123798691E+03 -0.61964571646E+03 -0.73125657034E+03  0.12055728842E+04  0.00000000000E+00 0.  1.
<mgrwt>
<rscale>  0 0.36429817E+04</rscale>
<asrwt>0</asrwt>
<pdfrwt beam="1">  1        2 0.48730472E+00 0.36429817E+04</pdfrwt>
<pdfrwt beam="2">  1       -2 0.16114864E+00 0.36429817E+04</pdfrwt>
<totfact> 0.27288777E-01</totfact>
</mgrwt>
</event>
<event>
 6    1  0.1588846E-005  0.1842785E+04  0.7818608E-02  0.8683872E-01
          1   -1    0    0  501    0  0.00000000000E+00  0.00000000000E+00  0.11668715770E+04  0.11668715770E+04  0.00000000000E+00 0. -1.
         -1   -1    0    0    0  501 -0.00000000000E+00 -0.00000000000E+00 -0.72755546182E+03  0.72755546182E+03  0.00000000000E+00 0.  1.
         23    2    1    2    0    0  0.39143669786E+03 -0.40491411661E+03  0.96699072939E+03  0.11226637144E+04  0.90136644711E+02 0.  0.
         11    1    3    3    0    0  0.42409724477E+02 -0.11239248305E+02  0.85625117791E+02  0.96211050453E+02  0.00000000000E+00 0. -1.
        -11    1    3    3    0    0  0.34902697339E+03 -0.39367486831E+03  0.88136561160E+03  0.10264526640E+04  0.00000000000E+00 0.  1.
         22    1    1    2    0    0 -0.39143669786E+03  0.40491411661E+03 -0.52767461425E+03  0.77176332434E+03  0.00000000000E+00 0.  1.
<mgrwt>
<rscale>  0 0.18427846E+04</rscale>
<asrwt>0</asrwt>
<pdfrwt beam="1">  1        1 0.17951870E+00 0.18427846E+04</pdfrwt>
<pdfrwt beam="2">  1       -1 0.11193161E+00 0.18427846E+04</pdfrwt>
<totfact> 0.77821763E+00</totfact>
</mgrwt>
</event>
<event>
 6    1  0.1588846E-005  0.3724520E+04  0.7818608E-02  0.8062550E-01
         -2   -1    0    0    0  501 -0.00000000000E+00  0.00000000000E+00  0.12869390585E+04  0.12869390585E+04  0.00000000000E+00 0.  1.
          2   -1    0    0  501    0  0.00000000000E+00 -0.00000000000E+00 -0.26947758159E+04  0.26947758159E+04  0.00000000000E+00 0. -1.
         23    2    1    2    0    0  0.74436893546E+03 -0.89035600823E+03  0.85113490613E+03  0.14420747601E+04  0.91269117190E+02 0.  0.
         11    1    3    3    0    0  0.28248915384E+03 -0.27077792950E+03  0.28871581200E+03  0.48628965570E+03  0.00000000000E+00 0. -1.
        -11    1    3    3    0    0  0.46187978163E+03 -0.61957807872E+03  0.56241909414E+03  0.95578510438E+03  0.00000000000E+00 0.  1.
         22    1    1    2    0    0 -0.74436893546E+03  0.89035600823E+03 -0.22589716636E+04  0.25396401143E+04  0.00000000000E+00 0. -1.
<mgrwt>
<rscale>  0 0.37245200E+04</rscale>
<asrwt>0</asrwt>
<pdfrwt beam="1">  1        2 0.41458090E+00 0.37245200E+04</pdfrwt>
<pdfrwt beam="2">  1       -2 0.19799062E+00 0.37245200E+04</pdfrwt>
<totfact> 0.29580491E-01</totfact>
</mgrwt>
</event>
<event>
 6    1  0.1588846E-005  0.1208719E+04  0.7818608E-02  0.9105259E-01
         -1   -1    0    0    0  501 -0.00000000000E+00  0.00000000000E+00  0.13561930519E+03  0.13561930519E+03  0.00000000000E+00 0.  1.
          1   -1    0    0  501    0  0.00000000000E+00 -0.00000000000E+00 -0.26932035554E+04  0.26932035554E+04  0.00000000000E+00 0. -1.
         23    2    1    2    0    0  0.29226757716E+03  0.48183852401E+03 -0.17747297533E+04  0.18642245695E+04  0.89882413645E+02 0.  0.
         13    1    3    3    0    0  0.26145046610E+03  0.36761142775E+03 -0.14539504013E+04  0.15223226588E+04  0.00000000000E+00 0.  1.
        -13    1    3    3    0    0  0.30817111063E+02  0.11422709626E+03 -0.32077935204E+03  0.34190191071E+03  0.00000000000E+00 0. -1.
         22    1    1    2    0    0 -0.29226757716E+03 -0.48183852401E+03 -0.78285449687E+03  0.96459829108E+03  0.00000000000E+00 0.  1.
<mgrwt>
<rscale>  0 0.12087190E+04</rscale>
<asrwt>0</asrwt>
<pdfrwt beam="1">  1        1 0.41433896E+00 0.12087190E+04</pdfrwt>
<pdfrwt beam="2">  1       -1 0.20864511E-01 0.12087190E+04</pdfrwt>
<totfact> 0.18857118E+01</totfact>
</mgrwt>
</event>
<event>
 6    1  0.1588846E-005  0.2598931E+04  0.7818608E-02  0.8368564E-01
          2   -1    0    0  501    0  0.00000000000E+00  0.00000000000E+00  0.17237133601E+04  0.17237133601E+04  0.00000000000E+00 0. -1.
         -2   -1    0    0    0  501 -0.00000000000E+00 -0.00000000000E+00 -0.97963533414E+03  0.97963533414E+03  0.00000000000E+00 0.  1.
         23    2    1    2    0    0  0.10760488016E+04 -0.62732897541E+03  0.75162857148E+03  0.14577646234E+04  0.93324813931E+02 0.  0.
         13    1    3    3    0    0  0.93615193299E+03 -0.51281004255E+03  0.66138915267E+03  0.12557030671E+04  0.00000000000E+00 0.  1.
        -13    1    3    3    0    0  0.13989686860E+03 -0.11451893286E+03  0.90239418812E+02  0.20206155630E+03  0.00000000000E+00 0. -1.
         22    1    1    2    0    0 -0.10760488016E+04  0.62732897541E+03 -0.75505455401E+01  0.12455840708E+04  0.00000000000E+00 0.  1.
<mgrwt>
<rscale>  0 0.25989309E+04</rscale>
<asrwt>0</asrwt>
<pdfrwt beam="1">  1        2 0.26518667E+00 0.25989309E+04</pdfrwt>
<pdfrwt beam="2">  1       -2 0.15071313E+00 0.25989309E+04</pdfrwt>
<totfact> 0.24903919E+00</totfact>
</mgrwt>
</event>
<event>
 6    1  0.1588846E-005  0.1650444E+04  0.7818608E-02  0.8790144E-01
          3   -1    0    0  501    0  0.00000000000E+00  0.00000000000E+00  0.60151384990E+03  0.60151384990E+03  0.00000000000E+00 0. -1.
         -3   -1    0    0    0  501 -0.00000000000E+00 -0.00000000000E+00 -0.11321297004E+04  0.11321297004E+04  0.00000000000E+00 0.  1.
         23    2    1    2    0    0  0.23581834588E+03  0.40372707371E+03 -0.97705804845E+03  0.10871789508E+04  0.93326302414E+02 0.  0.
         13    1    3    3    0    0  0.17857444140E+03  0.34858126703E+03 -0.74166341525E+03  0.83872662552E+03  0.00000000000E+00 0.  1.
        -13    1    3    3    0    0  0.57243904477E+02  0.55145806677E+02 -0.23539463321E+03  0.24845232528E+03  0.00000000000E+00 0. -1.
         22    1    1    2    0    0 -0.23581834588E+03 -0.40372707371E+03  0.44644219795E+03  0.64646459950E+03  0.00000000000E+00 0. -1.
<mgrwt>
<rscale>  0 0.16504444E+04</rscale>
<asrwt>0</asrwt>
<pdfrwt beam="1">  1        3 0.92540593E-01 0.16504444E+04</pdfrwt>
<pdfrwt beam="2">  1       -3 0.17417380E+00 0.16504444E+04</pdfrwt>
<totfact> 0.56662613E-01</totfact>
</mgrwt>
</event>
<event>
 6    1  0.1588846E-005  0.1693728E+04  0.7818608E-02  0.8764950E-01
         -2   -1    0    0    0  501 -0.00000000000E+00  0.00000000000E+00  0.66703741990E+03  0.66703741990E+03  0.00000000000E+00 0.  1.
          2   -1    0    0  501    0  0.00000000000E+00 -0.00000000000E+00 -0.10751701833E+04  0.10751701833E+04  0.00000000000E+00 0. -1.
         23    2    1    2    0    0 -0.25600851834E+03 -0.77751704670E+03  0.86361128719E+01  0.82363838117E+03  0.90733021115E+02 0.  0.
         13    1    3    3    0    0 -0.57904385479E+02 -0.25680717306E+03 -0.31189712430E+02  0.26509553024E+03  0.00000000000E+00 0. -1.
        -13    1    3    3    0    0 -0.19810413286E+03 -0.52070987364E+03  0.39825825302E+02  0.55854285093E+03  0.00000000000E+00 0.  1.
         22    1    1    2    0    0  0.25600851834E+03  0.77751704670E+03 -0.41676887622E+03  0.91856922198E+03  0.00000000000E+00 0. -1.
<mgrwt>
<rscale>  0 0.16937281E+04</rscale>
<asrwt>0</asrwt>
<pdfrwt beam="1">  1        2 0.16541080E+00 0.16937281E+04</pdfrwt>
<pdfrwt beam="2">  1       -2 0.10262114E+00 0.16937281E+04</pdfrwt>
<totfact> 0.16692085E+01</totfact>
</mgrwt>
</event>
<event>
 6    1  0.1588846E-005  0.1748273E+04  0.7818608E-02  0.8734302E-01
          2   -1    0    0  501    0  0.00000000000E+00  0.00000000000E+00  0.91484528870E+03  0.91484528870E+03  0.00000000000E+00 0. -1.
         -2   -1    0    0    0  501 -0.00000000000E+00 -0.00000000000E+00 -0.83523879611E+03  0.83523879611E+03  0.00000000000E+00 0.  1.
         23    2    1    2    0    0  0.51094021098E+03  0.27356930478E+03 -0.61191514460E+03  0.84780794169E+03  0.91859120893E+02 0.  0.
         13    1    3    3    0    0  0.20345263000E+03  0.14413878107E+03 -0.31026863184E+03  0.39803967738E+03  0.00000000000E+00 0. -1.
        -13    1    3    3    0    0  0.30748758098E+03  0.12943052371E+03 -0.30164651276E+03  0.44976826432E+03  0.00000000000E+00 0.  1.
         22    1    1    2    0    0 -0.51094021098E+03 -0.27356930478E+03  0.69152163719E+03  0.90227614311E+03  0.00000000000E+00 0. -1.
<mgrwt>
<rscale>  0 0.17482726E+04</rscale>
<asrwt>0</asrwt>
<pdfrwt beam="1">  1        2 0.14074543E+00 0.17482726E+04</pdfrwt>
<pdfrwt beam="2">  1       -2 0.12849828E+00 0.17482726E+04</pdfrwt>
<totfact> 0.12147630E+01</totfact>
</mgrwt>
</event>
<event>
 6    1  0.1588846E-005  0.2839461E+04  0.7818608E-02  0.8291121E-01
          1   -1    0    0  501    0  0.00000000000E+00  0.00000000000E+00  0.36018298227E+04  0.36018298227E+04  0.00000000000E+00 0. -1.
         -1   -1    0    0    0  501 -0.00000000000E+00 -0.00000000000E+00 -0.55961426227E+03  0.55961426227E+03  0.00000000000E+00 0.  1.
         23    2    1    2    0    0 -0.11207182705E+04 -0.86562855437E+03  0.16318701594E+04  0.21628454794E+04  0.97867843381E+02 0.  0.
         11    1    3    3    0    0 -0.53820797493E+03 -0.35978763036E+03  0.71348926262E+03  0.96342196939E+03  0.00000000000E+00 0.  1.
        -11    1    3    3    0    0 -0.58251029554E+03 -0.50584092400E+03  0.91838089678E+03  0.11994235100E+04  0.00000000000E+00 0. -1.
         22    1    1    2    0    0  0.11207182705E+04  0.86562855437E+03  0.14103454010E+04  0.19985986055E+04  0.00000000000E+00 0.  1.
<mgrwt>
<rscale>  0 0.28394615E+04</rscale>
<asrwt>0</asrwt>
<pdfrwt beam="1">  1        1 0.55412765E+00 0.28394615E+04</pdfrwt>
<pdfrwt beam="2">  1       -1 0.86094504E-01 0.28394615E+04</pdfrwt>
<totfact> 0.23808630E-01</totfact>
</mgrwt>
</event>
<event>
 6    1  0.1588846E-005  0.2591588E+04  0.7818608E-02  0.8371064E-01
         -2   -1    0    0    0  501 -0.00000000000E+00  0.00000000000E+00  0.13620957764E+04  0.13620957764E+04  0.00000000000E+00 0.  1.
          2   -1    0    0  501    0  0.00000000000E+00 -0.00000000000E+00 -0.12327199083E+04  0.12327199083E+04  0.00000000000E+00 0. -1.
         23    2    1    2    0    0  0.79173273219E+03 -0.99018760513E+03  0.32513052440E+03  0.13119937571E+04  0.91134779912E+02 0.  0.
         13    1    3    3    0    0  0.73362996028E+03 -0.88623111632E+03  0.31288917718E+03  0.11922743591E+04  0.00000000000E+00 0. -1.
        -13    1    3    3    0    0  0.58102771916E+02 -0.10395648881E+03  0.12241347220E+02  0.11971939798E+03  0.00000000000E+00 0.  1.
         22    1    1    2    0    0 -0.79173273219E+03  0.99018760513E+03 -0.19575465631E+03  0.12828219276E+04  0.00000000000E+00 0. -1.
<mgrwt>
<rscale>  0 0.25915884E+04</rscale>
<asrwt>0</asrwt>
<pdfrwt beam="1">  1        2 0.18964922E+00 0.25915884E+04</pdfrwt>
<pdfrwt beam="2">  1       -2 0.20955320E+00 0.25915884E+04</pdfrwt>
<totfact> 0.18477542E+00</totfact>
</mgrwt>
</event>
<event>
 6    1  0.1588846E-005  0.1986869E+04  0.7818608E-02  0.8612785E-01
          2   -1    0    0  501    0  0.00000000000E+00  0.00000000000E+00  0.34872128749E+04  0.34872128749E+04  0.00000000000E+00 0. -1.
         -2   -1    0    0    0  501 -0.00000000000E+00 -0.00000000000E+00 -0.28300872889E+03  0.28300872889E+03  0.00000000000E+00 0.  1.
         23    2    1    2    0    0  0.86068882748E+03 -0.39232470776E+03  0.10430404167E+04  0.14111258874E+04  0.92946356484E+02 0.  0.
         13    1    3    3    0    0  0.77513085218E+03 -0.35554394602E+03  0.89500807450E+03  0.12362357336E+04  0.00000000000E+00 0.  1.
        -13    1    3    3    0    0  0.85557975299E+02 -0.36780761743E+02  0.14803234218E+03  0.17489015382E+03  0.00000000000E+00 0. -1.
         22    1    1    2    0    0 -0.86068882748E+03  0.39232470776E+03  0.21611637293E+04  0.23590957164E+04  0.00000000000E+00 0. -1.
<mgrwt>
<rscale>  0 0.19868686E+04</rscale>
<asrwt>0</asrwt>
<pdfrwt beam="1">  1        2 0.53649426E+00 0.19868686E+04</pdfrwt>
<pdfrwt beam="2">  1       -2 0.43539807E-01 0.19868686E+04</pdfrwt>
<totfact> 0.38828199E+00</totfact>
</mgrwt>
</event>
<event>
 6    1  0.1588846E-005  0.9996399E+03  0.7818608E-02  0.9308940E-01
          2   -1    0    0  501    0  0.00000000000E+00  0.00000000000E+00  0.87029241409E+03  0.87029241409E+03  0.00000000000E+00 0. -1.
         -2   -1    0    0    0  501 -0.00000000000E+00 -0.00000000000E+00 -0.28705295177E+03  0.28705295177E+03  0.00000000000E+00 0.  1.
         23    2    1    2    0    0  0.40536179093E+03  0.25350469922E+03  0.44555998120E+03  0.65981300149E+03  0.90811265929E+02 0.  0.
         13    1    3    3    0    0  0.37999584113E+03  0.20478174608E+03  0.39845717125E+03  0.58745256840E+03  0.00000000000E+00 0. -1.
        -13    1    3    3    0    0  0.25365949804E+02  0.48722953137E+02  0.47102809946E+02  0.72360433088E+02  0.00000000000E+00 0.  1.
         22    1    1    2    0    0 -0.40536179093E+03 -0.25350469922E+03  0.13767948111E+03  0.49753236437E+03  0.00000000000E+00 0. -1.
<mgrwt>
<rscale>  0 0.99963995E+03</rscale>
<asrwt>0</asrwt>
<pdfrwt beam="1">  1        2 0.13389114E+00 0.99963995E+03</pdfrwt>
<pdfrwt beam="2">  1       -2 0.44161993E-01 0.99963995E+03</pdfrwt>
<totfact> 0.14909640E+02</totfact>
</mgrwt>
</event>
<event>
 6    1  0.1588846E-005  0.1097550E+04  0.7818608E-02  0.9207583E-01
         -1   -1    0    0    0  501 -0.00000000000E+00  0.00000000000E+00  0.16698457086E+03  0.16698457086E+03  0.00000000000E+00 0.  1.
          1   -1    0    0  501    0  0.00000000000E+00 -0.00000000000E+00 -0.18034843863E+04  0.18034843863E+04  0.00000000000E+00 0. -1.
         23    2    1    2    0    0  0.90350937341E+02  0.51072520771E+03 -0.11244140699E+04  0.12416100267E+04  0.91021581269E+02 0.  0.
         11    1    3    3    0    0  0.91414922852E+02  0.30498325065E+03 -0.74032343832E+03  0.80588477131E+03  0.00000000000E+00 0. -1.
        -11    1    3    3    0    0 -0.10639855114E+01  0.20574195705E+03 -0.38409063155E+03  0.43572525541E+03  0.00000000000E+00 0.  1.
         22    1    1    2    0    0 -0.90350937341E+02 -0.51072520771E+03 -0.51208574558E+03  0.72885893045E+03  0.00000000000E+00 0.  1.
<mgrwt>
<rscale>  0 0.10975501E+04</rscale>
<asrwt>0</asrwt>
<pdfrwt beam="1">  1        1 0.27745913E+00 0.10975501E+04</pdfrwt>
<pdfrwt beam="2">  1       -1 0.25689934E-01 0.10975501E+04</pdfrwt>
<totfact> 0.54048634E+01</totfact>
</mgrwt>
</event>
<event>
 6    1  0.1588846E-005  0.2649307E+04  0.7818608E-02  0.8351643E-01
          3   -1    0    0  501    0  0.00000000000E+00  0.00000000000E+00  0.11967531978E+04  0.11967531978E+04  0.00000000000E+00 0. -1.
         -3   -1    0    0    0  501 -0.00000000000E+00 -0.00000000000E+00 -0.14662233819E+04  0.14662233819E+04  0.00000000000E+00 0.  1.
         23    2    1    2    0    0  0.86998068774E+03  0.19906464715E+03  0.84694741468E+03  0.12336825632E+04  0.90330574300E+02 0.  0.
         13    1    3    3    0    0  0.78641608707E+03  0.15252097804E+03  0.74648918600E+03  0.10949698697E+04  0.00000000000E+00 0. -1.
        -13    1    3    3    0    0  0.83564600670E+02  0.46543669110E+02  0.10045822868E+03  0.13871269346E+03  0.00000000000E+00 0.  1.
         22    1    1    2    0    0 -0.86998068774E+03 -0.19906464715E+03 -0.11164175988E+04  0.14292940166E+04  0.00000000000E+00 0.  1.
<mgrwt>
<rscale>  0 0.26493075E+04</rscale>
<asrwt>0</asrwt>
<pdfrwt beam="1">  1        3 0.18411588E+00 0.26493075E+04</pdfrwt>
<pdfrwt beam="2">  1       -3 0.22557283E+00 0.26493075E+04</pdfrwt>
<totfact> 0.43532565E-02</totfact>
</mgrwt>
</event>
<event>
 6    1  0.1588846E-005  0.1377099E+04  0.7818608E-02  0.8970564E-01
          2   -1    0    0  501    0  0.00000000000E+00  0.00000000000E+00  0.16734335733E+04  0.16734335733E+04  0.00000000000E+00 0. -1.
         -2   -1    0    0    0  501 -0.00000000000E+00 -0.00000000000E+00 -0.28330997728E+03  0.28330997728E+03  0.00000000000E+00 0.  1.
         23    2    1    2    0    0 -0.61091489408E+03  0.30626102611E+03  0.62245552167E+03  0.92896580404E+03  0.92270063933E+02 0.  0.
         11    1    3    3    0    0 -0.21552760321E+03  0.78003372851E+02  0.16303419623E+03  0.28127712858E+03  0.00000000000E+00 0.  1.
        -11    1    3    3    0    0 -0.39538729087E+03  0.22825765325E+03  0.45942132544E+03  0.64768867546E+03  0.00000000000E+00 0. -1.
         22    1    1    2    0    0  0.61091489408E+03 -0.30626102611E+03  0.76766807439E+03  0.10277777466E+04  0.00000000000E+00 0. -1.
<mgrwt>
<rscale>  0 0.13770990E+04</rscale>
<asrwt>0</asrwt>
<pdfrwt beam="1">  1        2 0.25745131E+00 0.13770990E+04</pdfrwt>
<pdfrwt beam="2">  1       -2 0.43586151E-01 0.13770990E+04</pdfrwt>
<totfact> 0.49368381E+01</totfact>
</mgrwt>
</event>
<event>
 6    1  0.1588846E-005  0.1094052E+04  0.7818608E-02  0.9211009E-01
          1   -1    0    0  501    0  0.00000000000E+00  0.00000000000E+00  0.38566157399E+03  0.38566157399E+03  0.00000000000E+00 0. -1.
         -1   -1    0    0    0  501 -0.00000000000E+00 -0.00000000000E+00 -0.77590697734E+03  0.77590697734E+03  0.00000000000E+00 0.  1.
         23    2    1    2    0    0 -0.22401053095E+03 -0.36955083171E+03  0.15129213606E+03  0.46873997095E+03  0.10039579046E+03 0.  0.
         11    1    3    3    0    0 -0.15038135916E+03 -0.22015148383E+03  0.42956163924E+02  0.27004899747E+03  0.00000000000E+00 0. -1.
        -11    1    3    3    0    0 -0.73629171788E+02 -0.14939934787E+03  0.10833597214E+03  0.19869097348E+03  0.00000000000E+00 0.  1.
         22    1    1    2    0    0  0.22401053095E+03  0.36955083171E+03 -0.54153753942E+03  0.69282858038E+03  0.00000000000E+00 0.  1.
<mgrwt>
<rscale>  0 0.10940521E+04</rscale>
<asrwt>0</asrwt>
<pdfrwt beam="1">  1        1 0.59332550E-01 0.10940521E+04</pdfrwt>
<pdfrwt beam="2">  1       -1 0.11937030E+00 0.10940521E+04</pdfrwt>
<totfact> 0.39391205E+01</totfact>
</mgrwt>
</event>
<event>
 6    1  0.1588846E-005  0.1597291E+04  0.7818608E-02  0.8822214E-01
          1   -1    0    0  501    0  0.00000000000E+00  0.00000000000E+00  0.12086933330E+04  0.12086933330E+04  0.00000000000E+00 0. -1.
         -1   -1    0    0    0  501 -0.00000000000E+00 -0.00000000000E+00 -0.52770569236E+03  0.52770569236E+03  0.00000000000E+00 0.  1.
         23    2    1    2    0    0 -0.71119523362E+03 -0.21779848662E+03  0.65122689148E+03  0.99200629080E+03  0.82129018636E+02 0.  0.
         11    1    3    3    0    0 -0.28724162483E+03 -0.13037392257E+03  0.27465544382E+03  0.41825915834E+03  0.00000000000E+00 0. -1.
        -11    1    3    3    0    0 -0.42395360879E+03 -0.87424564055E+02  0.37657144766E+03  0.57374713246E+03  0.00000000000E+00 0.  1.
         22    1    1    2    0    0  0.71119523362E+03  0.21779848662E+03  0.29760749183E+02  0.74439273458E+03  0.00000000000E+00 0.  1.
<mgrwt>
<rscale>  0 0.15972906E+04</rscale>
<asrwt>0</asrwt>
<pdfrwt beam="1">  1        1 0.18595282E+00 0.15972906E+04</pdfrwt>
<pdfrwt beam="2">  1       -1 0.81185492E-01 0.15972906E+04</pdfrwt>
<totfact> 0.15278380E+01</totfact>
</mgrwt>
</event>
<event>
 6    1  0.1588846E-005  0.3655658E+04  0.7818608E-02  0.8077860E-01
         -2   -1    0    0    0  501 -0.00000000000E+00  0.00000000000E+00  0.23422102836E+04  0.23422102836E+04  0.00000000000E+00 0. -1.
          2   -1    0    0  501    0  0.00000000000E+00 -0.00000000000E+00 -0.14264125841E+04  0.14264125841E+04  0.00000000000E+00 0.  1.
         23    2    1    2    0    0  0.75225664000E+03 -0.91683321056E+03  0.18904942708E+04  0.22335311459E+04  0.90662027355E+02 0.  0.
         13    1    3    3    0    0  0.27440198002E+03 -0.35319454626E+03  0.79351004942E+03  0.91087926350E+03  0.00000000000E+00 0.  1.
        -13    1    3    3    0    0  0.47785465998E+03 -0.56363866430E+03  0.10969842214E+04  0.13226518824E+04  0.00000000000E+00 0. -1.
         22    1    1    2    0    0 -0.75225664000E+03  0.91683321056E+03 -0.97469657134E+03  0.15350917219E+04  0.00000000000E+00 0.  1.
<mgrwt>
<rscale>  0 0.36556577E+04</rscale>
<asrwt>0</asrwt>
<pdfrwt beam="1">  1        2 0.21944809E+00 0.36556577E+04</pdfrwt>
<pdfrwt beam="2">  1       -2 0.36034004E+00 0.36556577E+04</pdfrwt>
<totfact> 0.15165398E-01</totfact>
</mgrwt>
</event>
<event>
 6    1  0.1588846E-005  0.1451303E+04  0.7818608E-02  0.8917497E-01
          2   -1    0    0  501    0  0.00000000000E+00  0.00000000000E+00  0.73403144675E+03  0.73403144675E+03  0.00000000000E+00 0.  1.
         -2   -1    0    0    0  501 -0.00000000000E+00 -0.00000000000E+00 -0.71736764217E+03  0.71736764217E+03  0.00000000000E+00 0. -1.
         23    2    1    2    0    0  0.52863853474E+03 -0.67389099772E+02 -0.47995731406E+03  0.72295380844E+03  0.91121866946E+02 0.  0.
         11    1    3    3    0    0  0.49731408534E+03 -0.46283882168E+02 -0.46472697162E+03  0.68222771519E+03  0.00000000000E+00 0. -1.
        -11    1    3    3    0    0  0.31324449398E+02 -0.21105217604E+02 -0.15230342445E+02  0.40726093247E+02  0.00000000000E+00 0.  1.
         22    1    1    2    0    0 -0.52863853474E+03  0.67389099772E+02  0.49662111864E+03  0.72844528048E+03  0.00000000000E+00 0.  1.
<mgrwt>
<rscale>  0 0.14513034E+04</rscale>
<asrwt>0</asrwt>
<pdfrwt beam="1">  1        2 0.11292792E+00 0.14513034E+04</pdfrwt>
<pdfrwt beam="2">  1       -2 0.11036425E+00 0.14513034E+04</pdfrwt>
<totfact> 0.24371749E+01</totfact>
</mgrwt>
</event>
<event>
 6    1  0.1588846E-005  0.4404819E+04  0.7818608E-02  0.7927515E-01
          1   -1    0    0  501    0  0.00000000000E+00  0.00000000000E+00  0.27694140246E+04  0.27694140246E+04  0.00000000000E+00 0. -1.
         -1   -1    0    0    0  501 -0.00000000000E+00 -0.00000000000E+00 -0.17514926926E+04  0.17514926926E+04  0.00000000000E+00 0.  1.
         23    2    1    2    0    0  0.64235870220E+03  0.19735076569E+04 -0.24438786889E+03  0.20917542534E+04  0.91396127146E+02 0.  0.
         13    1    3    3    0    0  0.57423811720E+03  0.18403158074E+04 -0.22755487433E+03  0.19412091353E+04  0.00000000000E+00 0. -1.
        -13    1    3    3    0    0  0.68120585002E+02  0.13319184945E+03 -0.16832994567E+02  0.15054511804E+03  0.00000000000E+00 0.  1.
         22    1    1    2    0    0 -0.64235870220E+03 -0.19735076569E+04  0.12623092008E+04  0.24291524638E+04  0.00000000000E+00 0.  1.
<mgrwt>
<rscale>  0 0.44048194E+04</rscale>
<asrwt>0</asrwt>
<pdfrwt beam="1">  1        1 0.42606369E+00 0.44048194E+04</pdfrwt>
<pdfrwt beam="2">  1       -1 0.26946042E+00 0.44048194E+04</pdfrwt>
<totfact> 0.34561651E-02</totfact>
</mgrwt>
</event>
<event>
 6    1  0.1588846E-005  0.4921339E+04  0.7818608E-02  0.7840757E-01
          1   -1    0    0  501    0  0.00000000000E+00  0.00000000000E+00  0.24630805885E+04  0.24630805885E+04  0.00000000000E+00 0. -1.
         -1   -1    0    0    0  501 -0.00000000000E+00 -0.00000000000E+00 -0.24582605041E+04  0.24582605041E+04  0.00000000000E+00 0.  1.
         23    2    1    2    0    0  0.78896002363E+03 -0.15710597276E+04 -0.17178702869E+04  0.24599697874E+04  0.98419742586E+02 0.  0.
         13    1    3    3    0    0  0.27289473692E+03 -0.65029371465E+03 -0.68108116376E+03  0.98042083025E+03  0.00000000000E+00 0.  1.
        -13    1    3    3    0    0  0.51606528671E+03 -0.92076601294E+03 -0.10367891232E+04  0.14795489572E+04  0.00000000000E+00 0. -1.
         22    1    1    2    0    0 -0.78896002363E+03  0.15710597276E+04  0.17226903713E+04  0.24613713051E+04  0.00000000000E+00 0. -1.
<mgrwt>
<rscale>  0 0.49213387E+04</rscale>
<asrwt>0</asrwt>
<pdfrwt beam="1">  1        1 0.37893548E+00 0.49213387E+04</pdfrwt>
<pdfrwt beam="2">  1       -1 0.37819392E+00 0.49213387E+04</pdfrwt>
<totfact> 0.10506926E-02</totfact>
</mgrwt>
</event>
<event>
 6    1  0.1588846E-005  0.5146406E+03  0.7818608E-02  0.1010027E+00
         -2   -1    0    0    0  501 -0.00000000000E+00  0.00000000000E+00  0.42024641891E+02  0.42024641891E+02  0.00000000000E+00 0.  1.
          2   -1    0    0  501    0  0.00000000000E+00 -0.00000000000E+00 -0.15755930973E+04  0.15755930973E+04  0.00000000000E+00 0. -1.
         23    2    1    2    0    0 -0.86102718342E+02  0.23021710608E+03 -0.91328593768E+03  0.95041162723E+03  0.93688116489E+02 0.  0.
         13    1    3    3    0    0 -0.10584358225E+03  0.17905945837E+03 -0.70709550629E+03  0.73705441356E+03  0.00000000000E+00 0.  1.
        -13    1    3    3    0    0  0.19740863910E+02  0.51157647714E+02 -0.20619043139E+03  0.21335721367E+03  0.00000000000E+00 0. -1.
         22    1    1    2    0    0  0.86102718342E+02 -0.23021710608E+03 -0.62028251775E+03  0.66720611198E+03  0.00000000000E+00 0.  1.
<mgrwt>
<rscale>  0 0.51464060E+03</rscale>
<asrwt>0</asrwt>
<pdfrwt beam="1">  1        2 0.24239896E+00 0.51464060E+03</pdfrwt>
<pdfrwt beam="2">  1       -2 0.64653288E-02 0.51464060E+03</pdfrwt>
<totfact> 0.16233587E+03</totfact>
</mgrwt>
</event>
<event>
 6    1  0.1588846E-005  0.2252882E+04  0.7818608E-02  0.8496734E-01
          1   -1    0    0  501    0  0.00000000000E+00  0.00000000000E+00  0.13614418683E+04  0.13614418683E+04  0.00000000000E+00 0. -1.
         -1   -1    0    0    0  501 -0.00000000000E+00 -0.00000000000E+00 -0.93200413869E+03  0.93200413869E+03  0.00000000000E+00 0.  1.
         23    2    1    2    0    0 -0.57323460680E+02  0.11194766199E+04  0.12392122293E+03  0.11316137397E+04  0.93162786543E+02 0.  0.
         11    1    3    3    0    0 -0.46358715365E+02  0.30662353473E+03  0.59014428839E+01  0.31016439120E+03  0.00000000000E+00 0. -1.
        -11    1    3    3    0    0 -0.10964745315E+02  0.81285308513E+03  0.11801978005E+03  0.82144934849E+03  0.00000000000E+00 0.  1.
         22    1    1    2    0    0  0.57323460680E+02 -0.11194766199E+04  0.30551650672E+03  0.11618322673E+04  0.00000000000E+00 0.  1.
<mgrwt>
<rscale>  0 0.22528821E+04</rscale>
<asrwt>0</asrwt>
<pdfrwt beam="1">  1        1 0.20945259E+00 0.22528821E+04</pdfrwt>
<pdfrwt beam="2">  1       -1 0.14338525E+00 0.22528821E+04</pdfrwt>
<totfact> 0.29220130E+00</totfact>
</mgrwt>
</event>
<event>
 6    1  0.1588846E-005  0.2123472E+04  0.7818608E-02  0.8550974E-01
          2   -1    0    0  501    0  0.00000000000E+00  0.00000000000E+00  0.19206770009E+04  0.19206770009E+04  0.00000000000E+00 0. -1.
         -2   -1    0    0    0  501 -0.00000000000E+00 -0.00000000000E+00 -0.58691997156E+03  0.58691997156E+03  0.00000000000E+00 0.  1.
         23    2    1    2    0    0 -0.10278902481E+04  0.20703932407E+03  0.84953462185E+03  0.13526532579E+04  0.92401940790E+02 0.  0.
         13    1    3    3    0    0 -0.92382020703E+03  0.21382931924E+03  0.76971421393E+03  0.12213217118E+04  0.00000000000E+00 0.  1.
        -13    1    3    3    0    0 -0.10407004104E+03 -0.67899951715E+01  0.79820407924E+02  0.13133154609E+03  0.00000000000E+00 0. -1.
         22    1    1    2    0    0  0.10278902481E+04 -0.20703932407E+03  0.48422240746E+03  0.11549437145E+04  0.00000000000E+00 0.  1.
<mgrwt>
<rscale>  0 0.21234723E+04</rscale>
<asrwt>0</asrwt>
<pdfrwt beam="1">  1        2 0.29548877E+00 0.21234723E+04</pdfrwt>
<pdfrwt beam="2">  1       -2 0.90295381E-01 0.21234723E+04</pdfrwt>
<totfact> 0.71338380E+00</totfact>
</mgrwt>
</event>
<event>
 6    1  0.1588846E-005  0.1862682E+04  0.7818608E-02  0.8673658E-01
         -1   -1    0    0    0  501 -0.00000000000E+00  0.00000000000E+00  0.11967800938E+04  0.11967800938E+04  0.00000000000E+00 0.  1.
          1   -1    0    0  501    0  0.00000000000E+00 -0.00000000000E+00 -0.72477471924E+03  0.72477471924E+03  0.00000000000E+00 0. -1.
         23    2    1    2    0    0  0.52046303836E+03 -0.39019139039E+03  0.92101738851E+03  0.11311480291E+04  0.89954090661E+02 0.  0.
         13    1    3    3    0    0  0.43570746329E+03 -0.30915231329E+03  0.69591586625E+03  0.87733405227E+03  0.00000000000E+00 0.  1.
        -13    1    3    3    0    0  0.84755575071E+02 -0.81039077105E+02  0.22510152226E+03  0.25381397686E+03  0.00000000000E+00 0. -1.
         22    1    1    2    0    0 -0.52046303836E+03  0.39019139039E+03 -0.44901201393E+03  0.79040678393E+03  0.00000000000E+00 0. -1.
<mgrwt>
<rscale>  0 0.18626819E+04</rscale>
<asrwt>0</asrwt>
<pdfrwt beam="1">  1        1 0.11150380E+00 0.18626819E+04</pdfrwt>
<pdfrwt beam="2">  1       -1 0.18412001E+00 0.18626819E+04</pdfrwt>
<totfact> 0.47136858E+00</totfact>
</mgrwt>
</event>
<event>
 6    1  0.1588846E-005  0.2328903E+04  0.7818608E-02  0.8466612E-01
         -2   -1    0    0    0  501 -0.00000000000E+00  0.00000000000E+00  0.52675319685E+03  0.52675319685E+03  0.00000000000E+00 0.  1.
          2   -1    0    0  501    0  0.00000000000E+00 -0.00000000000E+00 -0.25741598209E+04  0.25741598209E+04  0.00000000000E+00 0. -1.
         23    2    1    2    0    0 -0.43932220483E+03 -0.89593664933E+03 -0.18197992892E+04  0.20774328870E+04  0.91386363978E+02 0.  0.
         11    1    3    3    0    0 -0.29929317783E+03 -0.63460131944E+03 -0.11926003357E+04  0.13836873931E+04  0.00000000000E+00 0.  1.
        -11    1    3    3    0    0 -0.14002902700E+03 -0.26133532989E+03 -0.62719895349E+03  0.69374549390E+03  0.00000000000E+00 0. -1.
         22    1    1    2    0    0  0.43932220483E+03  0.89593664933E+03 -0.22760733483E+03  0.10234801308E+04  0.00000000000E+00 0.  1.
<mgrwt>
<rscale>  0 0.23289027E+04</rscale>
<asrwt>0</asrwt>
<pdfrwt beam="1">  1        2 0.39602459E+00 0.23289027E+04</pdfrwt>
<pdfrwt beam="2">  1       -2 0.81038954E-01 0.23289027E+04</pdfrwt>
<totfact> 0.38270443E+00</totfact>
</mgrwt>
</event>
<event>
 6    1  0.1588846E-005  0.2081953E+04  0.7818608E-02  0.8569235E-01
          2   -1    0    0  501    0  0.00000000000E+00  0.00000000000E+00  0.78831333915E+03  0.78831333915E+03  0.00000000000E+00 0. -1.
         -2   -1    0    0    0  501 -0.00000000000E+00 -0.00000000000E+00 -0.13746207617E+04  0.13746207617E+04  0.00000000000E+00 0.  1.
         23    2    1    2    0    0 -0.16248091757E+03  0.47112739013E+02 -0.13586905958E+04  0.13722410979E+04  0.91574215072E+02 0.  0.
         11    1    3    3    0    0 -0.87091042933E+02  0.71549114564E+02 -0.75348576018E+03  0.76186935648E+03  0.00000000000E+00 0. -1.
        -11    1    3    3    0    0 -0.75389874637E+02 -0.24436375551E+02 -0.60520483563E+03  0.61037174141E+03  0.00000000000E+00 0.  1.
         22    1    1    2    0    0  0.16248091757E+03 -0.47112739013E+02  0.77238317320E+03  0.79069300300E+03  0.00000000000E+00 0. -1.
<mgrwt>
<rscale>  0 0.20819528E+04</rscale>
<asrwt>0</asrwt>
<pdfrwt beam="1">  1        2 0.12127898E+00 0.20819528E+04</pdfrwt>
<pdfrwt beam="2">  1       -2 0.21148011E+00 0.20819528E+04</pdfrwt>
<totfact> 0.36299171E+00</totfact>
</mgrwt>
</event>
<event>
 6    1  0.1588846E-005  0.1801392E+04  0.7818608E-02  0.8705559E-01
         -1   -1    0    0    0  501 -0.00000000000E+00  0.00000000000E+00  0.24602676231E+03  0.24602676231E+03  0.00000000000E+00 0.  1.
          1   -1    0    0  501    0  0.00000000000E+00 -0.00000000000E+00 -0.32974201886E+04  0.32974201886E+04  0.00000000000E+00 0. -1.
         23    2    1    2    0    0  0.42020592689E+02  0.70591123255E+03 -0.26194348570E+04  0.27147946691E+04  0.92707752387E+02 0.  0.
         13    1    3    3    0    0  0.63686595580E+01  0.62039657925E+03 -0.22610570768E+04  0.23446346368E+04  0.00000000000E+00 0.  1.
        -13    1    3    3    0    0  0.35651933131E+02  0.85514653299E+02 -0.35837778016E+03  0.37016003238E+03  0.00000000000E+00 0. -1.
         22    1    1    2    0    0 -0.42020592689E+02 -0.70591123255E+03 -0.43195856934E+03  0.82865228177E+03  0.00000000000E+00 0.  1.
<mgrwt>
<rscale>  0 0.18013924E+04</rscale>
<asrwt>0</asrwt>
<pdfrwt beam="1">  1        1 0.50729537E+00 0.18013924E+04</pdfrwt>
<pdfrwt beam="2">  1       -1 0.37850274E-01 0.18013924E+04</pdfrwt>
<totfact> 0.22916599E+00</totfact>
</mgrwt>
</event>
<event>
 6    1  0.1588846E-005  0.6360532E+03  0.7818608E-02  0.9833307E-01
         -1   -1    0    0    0  501 -0.00000000000E+00  0.00000000000E+00  0.68052875770E+02  0.68052875770E+02  0.00000000000E+00 0.  1.
          1   -1    0    0  501    0  0.00000000000E+00 -0.00000000000E+00 -0.14862109216E+04  0.14862109216E+04  0.00000000000E+00 0. -1.
         23    2    1    2    0    0  0.27972744279E+03  0.12909158677E+03 -0.83382337356E+03  0.89368898007E+03  0.92230660729E+02 0.  0.
         11    1    3    3    0    0  0.12624029120E+03  0.10586375825E+03 -0.47367873295E+03  0.50151299932E+03  0.00000000000E+00 0. -1.
        -11    1    3    3    0    0  0.15348715159E+03  0.23227828527E+02 -0.36014464061E+03  0.39217598075E+03  0.00000000000E+00 0.  1.
         22    1    1    2    0    0 -0.27972744279E+03 -0.12909158677E+03 -0.58433467222E+03  0.66057481725E+03  0.00000000000E+00 0.  1.
<mgrwt>
<rscale>  0 0.63605323E+03</rscale>
<asrwt>0</asrwt>
<pdfrwt beam="1">  1        1 0.22864783E+00 0.63605323E+03</pdfrwt>
<pdfrwt beam="2">  1       -1 0.10469673E-01 0.63605323E+03</pdfrwt>
<totfact> 0.40195852E+02</totfact>
</mgrwt>
</event>
<event>
 6    1  0.1588846E-005  0.3391290E+04  0.7818608E-02  0.8140047E-01
          2   -1    0    0  501    0  0.00000000000E+00  0.00000000000E+00  0.24025279343E+04  0.24025279343E+04  0.00000000000E+00 0. -1.
         -2   -1    0    0    0  501 -0.00000000000E+00 -0.00000000000E+00 -0.11967447584E+04  0.11967447584E+04  0.00000000000E+00 0.  1.
         23    2    1    2    0    0 -0.18289683807E+03 -0.16034799023E+04  0.55184916876E+02  0.16172344983E+04  0.88334573714E+02 0.  0.
         11    1    3    3    0    0 -0.16441096648E+03 -0.12608675202E+04  0.13612260598E+02  0.12716143924E+04  0.00000000000E+00 0.  1.
        -11    1    3    3    0    0 -0.18485871585E+02 -0.34261238214E+03  0.41572656277E+02  0.34562010589E+03  0.00000000000E+00 0. -1.
         22    1    1    2    0    0  0.18289683807E+03  0.16034799023E+04  0.11505982590E+04  0.19820381945E+04  0.00000000000E+00 0. -1.
<mgrwt>
<rscale>  0 0.33912904E+04</rscale>
<asrwt>0</asrwt>
<pdfrwt beam="1">  1        2 0.36961968E+00 0.33912904E+04</pdfrwt>
<pdfrwt beam="2">  1       -2 0.18411458E+00 0.33912904E+04</pdfrwt>
<totfact> 0.55803836E-01</totfact>
</mgrwt>
</event>
<event>
 6    1  0.1588846E-005  0.1626455E+04  0.7818608E-02  0.8804458E-01
         -1   -1    0    0    0  501 -0.00000000000E+00  0.00000000000E+00  0.71294062749E+03  0.71294062749E+03  0.00000000000E+00 0.  1.
          1   -1    0    0  501    0  0.00000000000E+00 -0.00000000000E+00 -0.92762180866E+03  0.92762180866E+03  0.00000000000E+00 0. -1.
         23    2    1    2    0    0 -0.49404959392E+03  0.63825257682E+03 -0.27776007433E+02  0.81207894383E+03  0.85143122792E+02 0.  0.
         11    1    3    3    0    0 -0.16893154872E+03  0.26674212122E+03 -0.39907459369E+02  0.31824806786E+03  0.00000000000E+00 0.  1.
        -11    1    3    3    0    0 -0.32511804520E+03  0.37151045560E+03  0.12131451935E+02  0.49383087597E+03  0.00000000000E+00 0. -1.
         22    1    1    2    0    0  0.49404959392E+03 -0.63825257682E+03 -0.18690517374E+03  0.82848349231E+03  0.00000000000E+00 0. -1.
<mgrwt>
<rscale>  0 0.16264554E+04</rscale>
<asrwt>0</asrwt>
<pdfrwt beam="1">  1        1 0.14271105E+00 0.16264554E+04</pdfrwt>
<pdfrwt beam="2">  1       -1 0.10968317E+00 0.16264554E+04</pdfrwt>
<totfact> 0.12714027E+01</totfact>
</mgrwt>
</event>
<event>
 6    1  0.1588846E-005  0.1667081E+04  0.7818608E-02  0.8780365E-01
          2   -1    0    0  501    0  0.00000000000E+00  0.00000000000E+00  0.14550687576E+04  0.14550687576E+04  0.00000000000E+00 0. -1.
         -2   -1    0    0    0  501 -0.00000000000E+00 -0.00000000000E+00 -0.47749598426E+03  0.47749598426E+03  0.00000000000E+00 0.  1.
         23    2    1    2    0    0  0.10272193893E+03  0.79656822883E+03  0.73610717317E+03  0.10938881797E+04  0.98309914480E+02 0.  0.
         11    1    3    3    0    0 -0.12188850934E+02  0.15761341157E+03  0.11565073111E+03  0.19587150686E+03  0.00000000000E+00 0.  1.
        -11    1    3    3    0    0  0.11491078987E+03  0.63895481726E+03  0.62045644206E+03  0.89801667280E+03  0.00000000000E+00 0. -1.
         22    1    1    2    0    0 -0.10272193893E+03 -0.79656822883E+03  0.24146560017E+03  0.83867656220E+03  0.00000000000E+00 0. -1.
<mgrwt>
<rscale>  0 0.16670807E+04</rscale>
<asrwt>0</asrwt>
<pdfrwt beam="1">  1        2 0.22385673E+00 0.16670807E+04</pdfrwt>
<pdfrwt beam="2">  1       -2 0.73460921E-01 0.16670807E+04</pdfrwt>
<totfact> 0.21467740E+01</totfact>
</mgrwt>
</event>
<event>
 6    1  0.1588846E-005  0.3805614E+04  0.7818608E-02  0.8044951E-01
         -3   -1    0    0    0  501 -0.00000000000E+00  0.00000000000E+00  0.16835070112E+04  0.16835070112E+04  0.00000000000E+00 0.  1.
          3   -1    0    0  501    0  0.00000000000E+00 -0.00000000000E+00 -0.21506733437E+04  0.21506733437E+04  0.00000000000E+00 0. -1.
         23    2    1    2    0    0  0.45747179556E+02  0.18197225021E+04  0.31967985292E+03  0.18510994922E+04  0.10436154762E+03 0.  0.
         13    1    3    3    0    0  0.36089243271E+02  0.27135722666E+03  0.24720122651E+02  0.27486044168E+03  0.00000000000E+00 0.  1.
        -13    1    3    3    0    0  0.96579362850E+01  0.15483652754E+04  0.29495973027E+03  0.15762390505E+04  0.00000000000E+00 0. -1.
         22    1    1    2    0    0 -0.45747179556E+02 -0.18197225021E+04 -0.78684618541E+03  0.19830808628E+04  0.00000000000E+00 0.  1.
<mgrwt>
<rscale>  0 0.38056136E+04</rscale>
<asrwt>0</asrwt>
<pdfrwt beam="1">  1        3 0.33087282E+00 0.38056136E+04</pdfrwt>
<pdfrwt beam="2">  1       -3 0.25900108E+00 0.38056136E+04</pdfrwt>
<totfact> 0.35102928E-03</totfact>
</mgrwt>
</event>
<event>
 6    1  0.1588846E-005  0.3220780E+04  0.7818608E-02  0.8183351E-01
         -2   -1    0    0    0  501 -0.00000000000E+00  0.00000000000E+00  0.15479206822E+04  0.15479206822E+04  0.00000000000E+00 0.  1.
          2   -1    0    0  501    0  0.00000000000E+00 -0.00000000000E+00 -0.16753807181E+04  0.16753807181E+04  0.00000000000E+00 0. -1.
         23    2    1    2    0    0 -0.11220045572E+04 -0.45772872777E+03 -0.11233418315E+04  0.16548020012E+04  0.89794087543E+02 0.  0.
         11    1    3    3    0    0 -0.11998110146E+03 -0.45394679657E+02 -0.15881763577E+03  0.20415480176E+03  0.00000000000E+00 0. -1.
        -11    1    3    3    0    0 -0.10020234557E+04 -0.41233404812E+03 -0.96452419569E+03  0.14506471994E+04  0.00000000000E+00 0.  1.
         22    1    1    2    0    0  0.11220045572E+04  0.45772872777E+03  0.99588179553E+03  0.15684993992E+04  0.00000000000E+00 0.  1.
<mgrwt>
<rscale>  0 0.32207803E+04</rscale>
<asrwt>0</asrwt>
<pdfrwt beam="1">  1        2 0.25775088E+00 0.32207803E+04</pdfrwt>
<pdfrwt beam="2">  1       -2 0.23814164E+00 0.32207803E+04</pdfrwt>
<totfact> 0.64724777E-01</totfact>
</mgrwt>
</event>
<event>
 6    1  0.1852483E-005  0.2222441E+04  0.7818608E-02  0.8509145E-01
          1   -1    0    0  501    0  0.00000000000E+00  0.00000000000E+00  0.18537097555E+04  0.18537097555E+04  0.00000000000E+00 0. -1.
         -1   -1    0    0    0  501 -0.00000000000E+00 -0.00000000000E+00 -0.66612986508E+03  0.66612986508E+03  0.00000000000E+00 0.  1.
         23    2    1    2    0    0 -0.66753020277E+03 -0.76090637279E+03  0.11094326138E+04  0.15046144846E+04  0.91918132765E+02 0.  0.
         11    1    3    3    0    0 -0.49426077469E+03 -0.52429048861E+03  0.73883582954E+03  0.10320138627E+04  0.00000000000E+00 0.  1.
        -11    1    3    3    0    0 -0.17326942808E+03 -0.23661588418E+03  0.37059678423E+03  0.47260062192E+03  0.00000000000E+00 0. -1.
         22    1    1    2    0    0  0.66753020277E+03  0.76090637279E+03  0.78147276619E+02  0.10152251359E+04  0.00000000000E+00 0. -1.
<mgrwt>
<rscale>  0 0.22224414E+04</rscale>
<asrwt>0</asrwt>
<pdfrwt beam="1">  1        1 0.28518611E+00 0.22224414E+04</pdfrwt>
<pdfrwt beam="2">  1       -1 0.10248152E+00 0.22224414E+04</pdfrwt>
<totfact> 0.30696084E+00</totfact>
</mgrwt>
</event>
<event>
 6    1  0.1702704E-005  0.3819532E+04  0.7818608E-02  0.8041976E-01
         -1   -1    0    0    0  501 -0.00000000000E+00  0.00000000000E+00  0.12031905100E+04  0.12031905100E+04  0.00000000000E+00 0.  1.
          1   -1    0    0  501    0  0.00000000000E+00 -0.00000000000E+00 -0.30312792364E+04  0.30312792364E+04  0.00000000000E+00 0. -1.
         23    2    1    2    0    0 -0.85855253966E+03 -0.26051970027E+03 -0.27823164155E+04  0.29246860007E+04  0.86721330472E+02 0.  0.
         11    1    3    3    0    0 -0.62401707875E+03 -0.18043529760E+03 -0.18856043991E+04  0.19943565782E+04  0.00000000000E+00 0. -1.
        -11    1    3    3    0    0 -0.23453546090E+03 -0.80084402670E+02 -0.89671201643E+03  0.93032942251E+03  0.00000000000E+00 0.  1.
         22    1    1    2    0    0  0.85855253966E+03  0.26051970027E+03  0.95422768917E+03  0.13097837456E+04  0.00000000000E+00 0.  1.
<mgrwt>
<rscale>  0 0.38195321E+04</rscale>
<asrwt>0</asrwt>
<pdfrwt beam="1">  1        1 0.46635064E+00 0.38195321E+04</pdfrwt>
<pdfrwt beam="2">  1       -1 0.18510624E+00 0.38195321E+04</pdfrwt>
<totfact> 0.86132286E-02</totfact>
</mgrwt>
</event>
<event>
 6    1  0.1588846E-005  0.3601864E+04  0.7818608E-02  0.8090065E-01
         -2   -1    0    0    0  501 -0.00000000000E+00  0.00000000000E+00  0.29830859465E+04  0.29830859465E+04  0.00000000000E+00 0.  1.
          2   -1    0    0  501    0  0.00000000000E+00 -0.00000000000E+00 -0.10872486996E+04  0.10872486996E+04  0.00000000000E+00 0. -1.
         23    2    1    2    0    0 -0.98143956404E+03 -0.12077917044E+04 -0.73160222600E+02  0.15605666382E+04  0.89618050900E+02 0.  0.
         11    1    3    3    0    0 -0.29252661922E+03 -0.34160635542E+03 -0.60173273752E+02  0.45374833100E+03  0.00000000000E+00 0.  1.
        -11    1    3    3    0    0 -0.68891294482E+03 -0.86618534894E+03 -0.12986948848E+02  0.11068183072E+04  0.00000000000E+00 0. -1.
         22    1    1    2    0    0  0.98143956404E+03  0.12077917044E+04  0.19689974694E+04  0.25097680079E+04  0.00000000000E+00 0.  1.
<mgrwt>
<rscale>  0 0.36018641E+04</rscale>
<asrwt>0</asrwt>
<pdfrwt beam="1">  1        2 0.16726903E+00 0.36018641E+04</pdfrwt>
<pdfrwt beam="2">  1       -2 0.45893630E+00 0.36018641E+04</pdfrwt>
<totfact> 0.54734485E-02</totfact>
</mgrwt>
</event>
<event>
 6    1  0.1588846E-005  0.2925327E+04  0.7818608E-02  0.8265382E-01
         -2   -1    0    0    0  501 -0.00000000000E+00  0.00000000000E+00  0.11862055392E+04  0.11862055392E+04  0.00000000000E+00 0. -1.
          2   -1    0    0  501    0  0.00000000000E+00 -0.00000000000E+00 -0.18035533805E+04  0.18035533805E+04  0.00000000000E+00 0.  1.
         23    2    1    2    0    0  0.39125710597E+03 -0.10665594160E+04  0.63026215623E+03  0.13024054248E+04  0.91642752963E+02 0.  0.
         13    1    3    3    0    0  0.55820216242E+02 -0.13226929999E+03  0.11511093447E+03  0.18401519366E+03  0.00000000000E+00 0.  1.
        -13    1    3    3    0    0  0.33543688973E+03 -0.93429011597E+03  0.51515122175E+03  0.11183902311E+04  0.00000000000E+00 0. -1.
         22    1    1    2    0    0 -0.39125710597E+03  0.10665594160E+04 -0.12476099976E+04  0.16873534949E+04  0.00000000000E+00 0.  1.
<mgrwt>
<rscale>  0 0.29253273E+04</rscale>
<asrwt>0</asrwt>
<pdfrwt beam="1">  1        2 0.27746975E+00 0.29253273E+04</pdfrwt>
<pdfrwt beam="2">  1       -2 0.18249316E+00 0.29253273E+04</pdfrwt>
<totfact> 0.12896268E+00</totfact>
</mgrwt>
</event>
<event>
 6    1  0.1588846E-005  0.1433719E+04  0.7818608E-02  0.8929766E-01
         -1   -1    0    0    0  501 -0.00000000000E+00  0.00000000000E+00  0.59721698772E+03  0.59721698772E+03  0.00000000000E+00 0.  1.
          1   -1    0    0  501    0  0.00000000000E+00 -0.00000000000E+00 -0.86047037550E+03  0.86047037550E+03  0.00000000000E+00 0. -1.
         23    2    1    2    0    0  0.15339960143E+03  0.12777269474E+03  0.56487708314E+03  0.60583210784E+03  0.89939560837E+02 0.  0.
         13    1    3    3    0    0  0.94024740793E+02  0.12616548820E+03  0.36900221439E+03  0.40114961862E+03  0.00000000000E+00 0. -1.
        -13    1    3    3    0    0  0.59374860638E+02  0.16072065339E+01  0.19587486875E+03  0.20468248923E+03  0.00000000000E+00 0.  1.
         22    1    1    2    0    0 -0.15339960143E+03 -0.12777269474E+03 -0.82813047092E+03  0.85185525537E+03  0.00000000000E+00 0. -1.
<mgrwt>
<rscale>  0 0.14337190E+04</rscale>
<asrwt>0</asrwt>
<pdfrwt beam="1">  1        1 0.13238006E+00 0.14337190E+04</pdfrwt>
<pdfrwt beam="2">  1       -1 0.91879537E-01 0.14337190E+04</pdfrwt>
<totfact> 0.22028941E+01</totfact>
</mgrwt>
</event>
<event>
 6    1  0.1588846E-005  0.5825583E+03  0.7818608E-02  0.9942268E-01
         -2   -1    0    0    0  501 -0.00000000000E+00  0.00000000000E+00  0.93085443497E+02  0.93085443497E+02  0.00000000000E+00 0.  1.
          2   -1    0    0  501    0  0.00000000000E+00 -0.00000000000E+00 -0.91145886839E+03  0.91145886839E+03  0.00000000000E+00 0. -1.
         23    2    1    2    0    0 -0.68864254164E+02 -0.26973161084E+03 -0.51905557545E+03  0.59577958447E+03  0.89650406996E+02 0.  0.
         11    1    3    3    0    0 -0.67352155232E+02 -0.13501784609E+03 -0.33755950343E+03  0.36974660232E+03  0.00000000000E+00 0. -1.
        -11    1    3    3    0    0 -0.15120989327E+01 -0.13471376475E+03 -0.18149607203E+03  0.22603298215E+03  0.00000000000E+00 0.  1.
         22    1    1    2    0    0  0.68864254164E+02  0.26973161084E+03 -0.29931784944E+03  0.40876472742E+03  0.00000000000E+00 0.  1.
<mgrwt>
<rscale>  0 0.58255833E+03</rscale>
<asrwt>0</asrwt>
<pdfrwt beam="1">  1        2 0.14022444E+00 0.58255833E+03</pdfrwt>
<pdfrwt beam="2">  1       -2 0.14320838E-01 0.58255833E+03</pdfrwt>
<totfact> 0.10984375E+03</totfact>
</mgrwt>
</event>
<event>
 6    1  0.1588846E-005  0.1368975E+04  0.7818608E-02  0.8976588E-01
          2   -1    0    0  501    0  0.00000000000E+00  0.00000000000E+00  0.71564040021E+03  0.71564040021E+03  0.00000000000E+00 0. -1.
         -2   -1    0    0    0  501 -0.00000000000E+00 -0.00000000000E+00 -0.65469046156E+03  0.65469046156E+03  0.00000000000E+00 0.  1.
         23    2    1    2    0    0 -0.30865155093E+03 -0.53079443583E+03  0.32653740601E+03  0.70134265872E+03  0.90809329940E+02 0.  0.
         13    1    3    3    0    0 -0.18487283761E+03 -0.35647887773E+03  0.16852489110E+03  0.43549488548E+03  0.00000000000E+00 0.  1.
        -13    1    3    3    0    0 -0.12377871332E+03 -0.17431555810E+03  0.15801251491E+03  0.26584777324E+03  0.00000000000E+00 0. -1.
         22    1    1    2    0    0  0.30865155093E+03  0.53079443583E+03 -0.26558746736E+03  0.66898820305E+03  0.00000000000E+00 0.  1.
<mgrwt>
<rscale>  0 0.13689747E+04</rscale>
<asrwt>0</asrwt>
<pdfrwt beam="1">  1        2 0.11009852E+00 0.13689747E+04</pdfrwt>
<pdfrwt beam="2">  1       -2 0.10072161E+00 0.13689747E+04</pdfrwt>
<totfact> 0.31560620E+01</totfact>
</mgrwt>
</event>
<event>
 6    1  0.1588846E-005  0.2034767E+04  0.7818608E-02  0.8590536E-01
          1   -1    0    0  501    0  0.00000000000E+00  0.00000000000E+00  0.27008447542E+04  0.27008447542E+04  0.00000000000E+00 0. -1.
         -1   -1    0    0    0  501 -0.00000000000E+00 -0.00000000000E+00 -0.38323921593E+03  0.38323921593E+03  0.00000000000E+00 0.  1.
         23    2    1    2    0    0  0.83244256140E+03  0.44532667685E+02  0.28253167709E+03  0.88488652628E+03  0.90863850464E+02 0.  0.
         11    1    3    3    0    0  0.65519255966E+03  0.62586441639E+02  0.24834233784E+03  0.70346874107E+03  0.00000000000E+00 0. -1.
        -11    1    3    3    0    0  0.17725000174E+03 -0.18053773954E+02  0.34189339246E+02  0.18141778521E+03  0.00000000000E+00 0.  1.
         22    1    1    2    0    0 -0.83244256140E+03 -0.44532667685E+02  0.20350738612E+04  0.21991974439E+04  0.00000000000E+00 0. -1.
<mgrwt>
<rscale>  0 0.20347674E+04</rscale>
<asrwt>0</asrwt>
<pdfrwt beam="1">  1        1 0.41551457E+00 0.20347674E+04</pdfrwt>
<pdfrwt beam="2">  1       -1 0.58959881E-01 0.20347674E+04</pdfrwt>
<totfact> 0.26449697E+00</totfact>
</mgrwt>
</event>
<event>
 6    1  0.1588846E-005  0.8520794E+03  0.7818608E-02  0.9487550E-01
         -2   -1    0    0    0  501 -0.00000000000E+00  0.00000000000E+00  0.64557040808E+02  0.64557040808E+02  0.00000000000E+00 0.  1.
          2   -1    0    0  501    0  0.00000000000E+00 -0.00000000000E+00 -0.28116191692E+04  0.28116191692E+04  0.00000000000E+00 0. -1.
         23    2    1    2    0    0 -0.12787460811E+03 -0.37828994152E+03 -0.92970887483E+03  0.10154698808E+04  0.85821277409E+02 0.  0.
         11    1    3    3    0    0 -0.47106428684E+02 -0.46795870764E+02 -0.12859353380E+03  0.14472444879E+03  0.00000000000E+00 0. -1.
        -11    1    3    3    0    0 -0.80768179421E+02 -0.33149407076E+03 -0.80111534103E+03  0.87074543202E+03  0.00000000000E+00 0.  1.
         22    1    1    2    0    0  0.12787460811E+03  0.37828994152E+03 -0.18173532536E+04  0.18607063292E+04  0.00000000000E+00 0.  1.
<mgrwt>
<rscale>  0 0.85207937E+03</rscale>
<asrwt>0</asrwt>
<pdfrwt beam="1">  1        2 0.43255666E+00 0.85207937E+03</pdfrwt>
<pdfrwt beam="2">  1       -2 0.99318555E-02 0.85207937E+03</pdfrwt>
<totfact> 0.16375858E+02</totfact>
</mgrwt>
</event>
<event>
 6    1  0.1588846E-005  0.2557575E+04  0.7818608E-02  0.8382756E-01
         -2   -1    0    0    0  501 -0.00000000000E+00  0.00000000000E+00  0.93336948518E+03  0.93336948518E+03  0.00000000000E+00 0.  1.
          2   -1    0    0  501    0  0.00000000000E+00 -0.00000000000E+00 -0.17520370799E+04  0.17520370799E+04  0.00000000000E+00 0. -1.
         23    2    1    2    0    0 -0.41171626439E+03 -0.34004593308E+03 -0.16282262231E+04  0.17155990111E+04  0.83772397067E+02 0.  0.
         13    1    3    3    0    0 -0.31177964899E+03 -0.26197560363E+03 -0.11182887369E+04  0.11901291801E+04  0.00000000000E+00 0. -1.
        -13    1    3    3    0    0 -0.99936615405E+02 -0.78070329447E+02 -0.50993748619E+03  0.52546983097E+03  0.00000000000E+00 0.  1.
         22    1    1    2    0    0  0.41171626439E+03  0.34004593308E+03  0.80955862835E+03  0.96980755395E+03  0.00000000000E+00 0.  1.
<mgrwt>
<rscale>  0 0.25575754E+04</rscale>
<asrwt>0</asrwt>
<pdfrwt beam="1">  1        2 0.26954416E+00 0.25575754E+04</pdfrwt>
<pdfrwt beam="2">  1       -2 0.14359531E+00 0.25575754E+04</pdfrwt>
<totfact> 0.27380371E+00</totfact>
</mgrwt>
</event>
<event>
 6    1  0.1588846E-005  0.2676057E+04  0.7818608E-02  0.8342816E-01
          2   -1    0    0  501    0  0.00000000000E+00  0.00000000000E+00  0.70841041835E+03  0.70841041835E+03  0.00000000000E+00 0. -1.
         -2   -1    0    0    0  501 -0.00000000000E+00 -0.00000000000E+00 -0.25272368280E+04  0.25272368280E+04  0.00000000000E+00 0.  1.
         23    2    1    2    0    0  0.11226641780E+04  0.33036537783E+03 -0.16909582428E+04  0.20584189730E+04  0.90734503986E+02 0.  0.
         13    1    3    3    0    0  0.19722447707E+03  0.58950068996E+02 -0.36140010762E+03  0.41591182092E+03  0.00000000000E+00 0. -1.
        -13    1    3    3    0    0  0.92543970096E+03  0.27141530883E+03 -0.13295581351E+04  0.16425071521E+04  0.00000000000E+00 0.  1.
         22    1    1    2    0    0 -0.11226641780E+04 -0.33036537783E+03 -0.12786816692E+03  0.11772282734E+04  0.00000000000E+00 0. -1.
<mgrwt>
<rscale>  0 0.26760575E+04</rscale>
<asrwt>0</asrwt>
<pdfrwt beam="1">  1        2 0.10898622E+00 0.26760575E+04</pdfrwt>
<pdfrwt beam="2">  1       -2 0.38880566E+00 0.26760575E+04</pdfrwt>
<totfact> 0.31144879E-01</totfact>
</mgrwt>
</event>
<event>
 6    1  0.1588846E-005  0.1824268E+03  0.7818608E-02  0.1165475E+00
         -3   -1    0    0    0  501 -0.00000000000E+00  0.00000000000E+00  0.31089150745E+03  0.31089150745E+03  0.00000000000E+00 0.  1.
          3   -1    0    0  501    0  0.00000000000E+00 -0.00000000000E+00 -0.26761383449E+02  0.26761383449E+02  0.00000000000E+00 0. -1.
         23    2    1    2    0    0  0.46005428899E+02  0.46097694472E+02  0.18139013439E+03  0.21600996102E+03  0.97552168007E+02 0.  0.
         11    1    3    3    0    0  0.38294271938E+02 -0.66198510490E+01  0.15612272904E+02  0.41880983231E+02  0.00000000000E+00 0. -1.
        -11    1    3    3    0    0  0.77111569605E+01  0.52717545521E+02  0.16577786149E+03  0.17412897779E+03  0.00000000000E+00 0.  1.
         22    1    1    2    0    0 -0.46005428899E+02 -0.46097694472E+02  0.10273998961E+03  0.12164292988E+03  0.00000000000E+00 0.  1.
<mgrwt>
<rscale>  0 0.18242683E+03</rscale>
<asrwt>0</asrwt>
<pdfrwt beam="1">  1        3 0.41171361E-02 0.18242683E+03</pdfrwt>
<pdfrwt beam="2">  1       -3 0.47829460E-01 0.18242683E+03</pdfrwt>
<totfact> 0.32611539E+03</totfact>
</mgrwt>
</event>
<event>
 6    1  0.1588846E-005  0.1567804E+04  0.7818608E-02  0.8840575E-01
         -1   -1    0    0    0  501 -0.00000000000E+00  0.00000000000E+00  0.60856084981E+03  0.60856084981E+03  0.00000000000E+00 0. -1.
          1   -1    0    0  501    0  0.00000000000E+00 -0.00000000000E+00 -0.10097625508E+04  0.10097625508E+04  0.00000000000E+00 0.  1.
         23    2    1    2    0    0 -0.49663946056E+03 -0.42709910235E+03 -0.64059685025E+03  0.92091789837E+03  0.93064783768E+02 0.  0.
         13    1    3    3    0    0 -0.40423865512E+03 -0.35385735049E+03 -0.47166009475E+03  0.71490360173E+03  0.00000000000E+00 0. -1.
        -13    1    3    3    0    0 -0.92400805440E+02 -0.73241751860E+02 -0.16893675550E+03  0.20601429664E+03  0.00000000000E+00 0.  1.
         22    1    1    2    0    0  0.49663946056E+03  0.42709910235E+03  0.23939514928E+03  0.69740550221E+03  0.00000000000E+00 0. -1.
<mgrwt>
<rscale>  0 0.15678035E+04</rscale>
<asrwt>0</asrwt>
<pdfrwt beam="1">  1        1 0.15534809E+00 0.15678035E+04</pdfrwt>
<pdfrwt beam="2">  1       -1 0.93624746E-01 0.15678035E+04</pdfrwt>
<totfact> 0.15828722E+01</totfact>
</mgrwt>
</event>
<event>
 6    1  0.1588846E-005  0.1955831E+04  0.7818608E-02  0.8627554E-01
          2   -1    0    0  501    0  0.00000000000E+00  0.00000000000E+00  0.10552872952E+04  0.10552872952E+04  0.00000000000E+00 0.  1.
         -2   -1    0    0    0  501 -0.00000000000E+00 -0.00000000000E+00 -0.90621681370E+03  0.90621681370E+03  0.00000000000E+00 0. -1.
         23    2    1    2    0    0 -0.23100435630E+03 -0.67997970645E+03 -0.58781875697E+03  0.93255262140E+03  0.91586499174E+02 0.  0.
         11    1    3    3    0    0 -0.13541207416E+03 -0.28271036320E+03 -0.22202183970E+03  0.38412924465E+03  0.00000000000E+00 0. -1.
        -11    1    3    3    0    0 -0.95592282137E+02 -0.39726934325E+03 -0.36579691727E+03  0.54842337676E+03  0.00000000000E+00 0.  1.
         22    1    1    2    0    0  0.23100435630E+03  0.67997970645E+03  0.73688923842E+03  0.10289514874E+04  0.00000000000E+00 0.  1.
<mgrwt>
<rscale>  0 0.19558314E+04</rscale>
<asrwt>0</asrwt>
<pdfrwt beam="1">  1        2 0.16235189E+00 0.19558314E+04</pdfrwt>
<pdfrwt beam="2">  1       -2 0.13941797E+00 0.19558314E+04</pdfrwt>
<totfact> 0.78637377E+00</totfact>
</mgrwt>
</event>
<event>
 6    1  0.1588846E-005  0.2672557E+04  0.7818608E-02  0.8343964E-01
         -1   -1    0    0    0  501 -0.00000000000E+00  0.00000000000E+00  0.70298941155E+03  0.70298941155E+03  0.00000000000E+00 0.  1.
          1   -1    0    0  501    0  0.00000000000E+00 -0.00000000000E+00 -0.25400673660E+04  0.25400673660E+04  0.00000000000E+00 0. -1.
         23    2    1    2    0    0  0.34539559530E+03  0.23538289595E+03 -0.24578075756E+04  0.24947196293E+04  0.90026246559E+02 0.  0.
         11    1    3    3    0    0  0.13548622034E+03  0.78794442211E+02 -0.11790452232E+04  0.11894169657E+04  0.00000000000E+00 0. -1.
        -11    1    3    3    0    0  0.20990937496E+03  0.15658845373E+03 -0.12787623524E+04  0.13053026636E+04  0.00000000000E+00 0.  1.
         22    1    1    2    0    0 -0.34539559530E+03 -0.23538289595E+03  0.62072962113E+03  0.74833714829E+03  0.00000000000E+00 0.  1.
<mgrwt>
<rscale>  0 0.26725572E+04</rscale>
<asrwt>0</asrwt>
<pdfrwt beam="1">  1        1 0.39077959E+00 0.26725572E+04</pdfrwt>
<pdfrwt beam="2">  1       -1 0.10815222E+00 0.26725572E+04</pdfrwt>
<totfact> 0.88290819E-01</totfact>
</mgrwt>
</event>
<event>
 6    1  0.1588846E-005  0.1897232E+04  0.7818608E-02  0.8656236E-01
          1   -1    0    0  501    0  0.00000000000E+00  0.00000000000E+00  0.68222421281E+03  0.68222421281E+03  0.00000000000E+00 0. -1.
         -1   -1    0    0    0  501 -0.00000000000E+00 -0.00000000000E+00 -0.13190266526E+04  0.13190266526E+04  0.00000000000E+00 0.  1.
         23    2    1    2    0    0 -0.14717313735E+03 -0.26998872663E+03 -0.12632606040E+04  0.13033943784E+04  0.91954918539E+02 0.  0.
         11    1    3    3    0    0 -0.91224488188E+02 -0.79975498091E+02 -0.41909526297E+03  0.43630130299E+03  0.00000000000E+00 0. -1.
        -11    1    3    3    0    0 -0.55948649166E+02 -0.19001322854E+03 -0.84416534106E+03  0.86709307540E+03  0.00000000000E+00 0.  1.
         22    1    1    2    0    0  0.14717313735E+03  0.26998872663E+03  0.62645816426E+03  0.69785648699E+03  0.00000000000E+00 0. -1.
<mgrwt>
<rscale>  0 0.18972316E+04</rscale>
<asrwt>0</asrwt>
<pdfrwt beam="1">  1        1 0.10495757E+00 0.18972316E+04</pdfrwt>
<pdfrwt beam="2">  1       -1 0.20292718E+00 0.18972316E+04</pdfrwt>
<totfact> 0.38083459E+00</totfact>
</mgrwt>
</event>
<event>
 6    1  0.1588846E-005  0.5316488E+04  0.7818608E-02  0.7781458E-01
         -1   -1    0    0    0  501 -0.00000000000E+00  0.00000000000E+00  0.13738736624E+04  0.13738736624E+04  0.00000000000E+00 0.  1.
          1   -1    0    0  501    0  0.00000000000E+00 -0.00000000000E+00 -0.51433127506E+04  0.51433127506E+04  0.00000000000E+00 0. -1.
         23    2    1    2    0    0 -0.12210304191E+04 -0.69434839143E+03 -0.46506524013E+04  0.48590031070E+04  0.91150769686E+02 0.  0.
         13    1    3    3    0    0 -0.69709008837E+03 -0.35945203648E+03 -0.27035741990E+04  0.28150406404E+04  0.00000000000E+00 0. -1.
        -13    1    3    3    0    0 -0.52394033075E+03 -0.33489635495E+03 -0.19470782023E+04  0.20439624665E+04  0.00000000000E+00 0.  1.
         22    1    1    2    0    0  0.12210304191E+04  0.69434839143E+03  0.88121331317E+03  0.16581833060E+04  0.00000000000E+00 0.  1.
<mgrwt>
<rscale>  0 0.53164883E+04</rscale>
<asrwt>0</asrwt>
<pdfrwt beam="1">  1        1 0.79127888E+00 0.53164883E+04</pdfrwt>
<pdfrwt beam="2">  1       -1 0.21136518E+00 0.53164883E+04</pdfrwt>
<totfact> 0.48427454E-04</totfact>
</mgrwt>
</event>
<event>
 6    1  0.1686926E-005  0.3160755E+04  0.7818608E-02  0.8199259E-01
          2   -1    0    0  501    0  0.00000000000E+00  0.00000000000E+00  0.22026426413E+04  0.22026426413E+04  0.00000000000E+00 0. -1.
         -2   -1    0    0    0  501 -0.00000000000E+00 -0.00000000000E+00 -0.11339076566E+04  0.11339076566E+04  0.00000000000E+00 0.  1.
         23    2    1    2    0    0 -0.14917159915E+04  0.43742000833E+03  0.24227238316E+03  0.15759841121E+04  0.92071445397E+02 0.  0.
         13    1    3    3    0    0 -0.11450716111E+04  0.33276544539E+03  0.14630978465E+03  0.12013860284E+04  0.00000000000E+00 0.  1.
        -13    1    3    3    0    0 -0.34664438037E+03  0.10465456294E+03  0.95962598509E+02  0.37459808368E+03  0.00000000000E+00 0. -1.
         22    1    1    2    0    0  0.14917159915E+04 -0.43742000833E+03  0.82646260153E+03  0.17605661858E+04  0.00000000000E+00 0. -1.
<mgrwt>
<rscale>  0 0.31607552E+04</rscale>
<asrwt>0</asrwt>
<pdfrwt beam="1">  1        2 0.33886810E+00 0.31607552E+04</pdfrwt>
<pdfrwt beam="2">  1       -2 0.17444733E+00 0.31607552E+04</pdfrwt>
<totfact> 0.86184854E-01</totfact>
</mgrwt>
</event>
<event>
 6    1  0.1588846E-005  0.6241750E+04  0.7818608E-02  0.7661130E-01
         -1   -1    0    0    0  501 -0.00000000000E+00  0.00000000000E+00  0.22986891381E+04  0.22986891381E+04  0.00000000000E+00 0.  1.
          1   -1    0    0  501    0  0.00000000000E+00 -0.00000000000E+00 -0.42371364665E+04  0.42371364665E+04  0.00000000000E+00 0. -1.
         23    2    1    2    0    0 -0.77177865316E+03 -0.23467818969E+04 -0.29651957999E+04  0.38605237553E+04  0.90719197653E+02 0.  0.
         11    1    3    3    0    0 -0.46902737084E+03 -0.13794241927E+04 -0.18141786343E+04  0.23268093809E+04  0.00000000000E+00 0. -1.
        -11    1    3    3    0    0 -0.30275128232E+03 -0.96735770422E+03 -0.11510171655E+04  0.15337143744E+04  0.00000000000E+00 0.  1.
         22    1    1    2    0    0  0.77177865316E+03  0.23467818969E+04  0.10267484715E+04  0.26753018493E+04  0.00000000000E+00 0.  1.
<mgrwt>
<rscale>  0 0.62417496E+04</rscale>
<asrwt>0</asrwt>
<pdfrwt beam="1">  1        1 0.65186714E+00 0.62417496E+04</pdfrwt>
<pdfrwt beam="2">  1       -1 0.35364449E+00 0.62417496E+04</pdfrwt>
<totfact> 0.55951021E-04</totfact>
</mgrwt>
</event>
<event>
 6    1  0.1588846E-005  0.4637387E+04  0.7818608E-02  0.7887016E-01
          2   -1    0    0  501    0  0.00000000000E+00  0.00000000000E+00  0.26043511596E+04  0.26043511596E+04  0.00000000000E+00 0. -1.
         -2   -1    0    0    0  501 -0.00000000000E+00 -0.00000000000E+00 -0.20643677334E+04  0.20643677334E+04  0.00000000000E+00 0.  1.
         23    2    1    2    0    0  0.24246872794E+03 -0.74372940052E+03  0.24667027587E+04  0.25892545649E+04  0.87705168734E+02 0.  0.
         13    1    3    3    0    0  0.23004414543E+01 -0.22284358033E+02  0.13098738829E+03  0.13288935448E+03  0.00000000000E+00 0. -1.
        -13    1    3    3    0    0  0.24016828648E+03 -0.72144504248E+03  0.23357153704E+04  0.24563652104E+04  0.00000000000E+00 0.  1.
         22    1    1    2    0    0 -0.24246872794E+03  0.74372940052E+03 -0.19267193326E+04  0.20794643281E+04  0.00000000000E+00 0.  1.
<mgrwt>
<rscale>  0 0.46373865E+04</rscale>
<asrwt>0</asrwt>
<pdfrwt beam="1">  1        2 0.40066941E+00 0.46373865E+04</pdfrwt>
<pdfrwt beam="2">  1       -2 0.31759504E+00 0.46373865E+04</pdfrwt>
<totfact> 0.56169084E-02</totfact>
</mgrwt>
</event>
<event>
 6    1  0.1588846E-005  0.1373403E+04  0.7818608E-02  0.8973299E-01
         -2   -1    0    0    0  501 -0.00000000000E+00  0.00000000000E+00  0.51201416161E+03  0.51201416161E+03  0.00000000000E+00 0. -1.
          2   -1    0    0  501    0  0.00000000000E+00 -0.00000000000E+00 -0.92098748858E+03  0.92098748858E+03  0.00000000000E+00 0.  1.
         23    2    1    2    0    0  0.24252520275E+03  0.20499508188E+03  0.42654806068E+03  0.53916864186E+03  0.88983811663E+02 0.  0.
         13    1    3    3    0    0  0.63830010951E+02  0.92699378269E+01  0.92168088557E+02  0.11249514920E+03  0.00000000000E+00 0. -1.
        -13    1    3    3    0    0  0.17869519180E+03  0.19572514406E+03  0.33437997212E+03  0.42667349266E+03  0.00000000000E+00 0.  1.
         22    1    1    2    0    0 -0.24252520275E+03 -0.20499508188E+03 -0.83552138764E+03  0.89383300833E+03  0.00000000000E+00 0.  1.
<mgrwt>
<rscale>  0 0.13734025E+04</rscale>
<asrwt>0</asrwt>
<pdfrwt beam="1">  1        2 0.14169038E+00 0.13734025E+04</pdfrwt>
<pdfrwt beam="2">  1       -2 0.78771410E-01 0.13734025E+04</pdfrwt>
<totfact> 0.39624991E+01</totfact>
</mgrwt>
</event>
<event>
 6    1  0.1588846E-005  0.7683370E+03  0.7818608E-02  0.9607014E-01
          4   -1    0    0  501    0  0.00000000000E+00  0.00000000000E+00  0.10572925310E+03  0.10572925310E+03  0.00000000000E+00 0. -1.
         -4   -1    0    0    0  501 -0.00000000000E+00 -0.00000000000E+00 -0.13958807597E+04  0.13958807597E+04  0.00000000000E+00 0.  1.
         23    2    1    2    0    0 -0.14116558561E+02  0.29393026457E+03 -0.18831426234E+03  0.36115414321E+03  0.91519266300E+02 0.  0.
         11    1    3    3    0    0  0.32021915825E+02  0.93664897794E+02 -0.35914462545E+02  0.10530130480E+03  0.00000000000E+00 0. -1.
        -11    1    3    3    0    0 -0.46138474386E+02  0.20026536677E+03 -0.15239979980E+03  0.25585283842E+03  0.00000000000E+00 0.  1.
         22    1    1    2    0    0  0.14116558561E+02 -0.29393026457E+03 -0.11018372443E+04  0.11404558696E+04  0.00000000000E+00 0. -1.
<mgrwt>
<rscale>  0 0.76833698E+03</rscale>
<asrwt>0</asrwt>
<pdfrwt beam="1">  1        4 0.16266039E-01 0.76833698E+03</pdfrwt>
<pdfrwt beam="2">  1       -4 0.21475088E+00 0.76833698E+03</pdfrwt>
<totfact> 0.71489501E+00</totfact>
</mgrwt>
</event>
<event>
 6    1  0.1588846E-005  0.2844740E+04  0.7818608E-02  0.8289511E-01
         -2   -1    0    0    0  501 -0.00000000000E+00  0.00000000000E+00  0.25322729386E+04  0.25322729386E+04  0.00000000000E+00 0. -1.
          2   -1    0    0  501    0  0.00000000000E+00 -0.00000000000E+00 -0.79894090799E+03  0.79894090799E+03  0.00000000000E+00 0.  1.
         23    2    1    2    0    0 -0.13726327939E+04 -0.27409536002E+03  0.11517002729E+04  0.18154485102E+04  0.10094910245E+03 0.  0.
         13    1    3    3    0    0 -0.83472709781E+03 -0.19491620764E+03  0.65164595178E+03  0.10767562873E+04  0.00000000000E+00 0.  1.
        -13    1    3    3    0    0 -0.53790569613E+03 -0.79179152383E+02  0.50005432112E+03  0.73869222290E+03  0.00000000000E+00 0. -1.
         22    1    1    2    0    0  0.13726327939E+04  0.27409536002E+03  0.58163175774E+03  0.15157653364E+04  0.00000000000E+00 0.  1.
<mgrwt>
<rscale>  0 0.28447400E+04</rscale>
<asrwt>0</asrwt>
<pdfrwt beam="1">  1        2 0.12291399E+00 0.28447400E+04</pdfrwt>
<pdfrwt beam="2">  1       -2 0.38958045E+00 0.28447400E+04</pdfrwt>
<totfact> 0.25955799E-01</totfact>
</mgrwt>
</event>
<event>
 6    1  0.2331372E-005  0.3592928E+04  0.7818608E-02  0.8092114E-01
          2   -1    0    0  501    0  0.00000000000E+00  0.00000000000E+00  0.17483331087E+04  0.17483331087E+04  0.00000000000E+00 0. -1.
         -2   -1    0    0    0  501 -0.00000000000E+00 -0.00000000000E+00 -0.18459196611E+04  0.18459196611E+04  0.00000000000E+00 0.  1.
         23    2    1    2    0    0 -0.23352484231E+03 -0.11498505070E+04 -0.14081796540E+04  0.18351779225E+04  0.90653343859E+02 0.  0.
         13    1    3    3    0    0 -0.14274584145E+03 -0.73151614937E+03 -0.96082491410E+03  0.12160085393E+04  0.00000000000E+00 0. -1.
        -13    1    3    3    0    0 -0.90779000859E+02 -0.41833435763E+03 -0.44735473991E+03  0.61916938320E+03  0.00000000000E+00 0.  1.
         22    1    1    2    0    0  0.23352484231E+03  0.11498505070E+04  0.13105931016E+04  0.17590748473E+04  0.00000000000E+00 0. -1.
<mgrwt>
<rscale>  0 0.35929278E+04</rscale>
<asrwt>0</asrwt>
<pdfrwt beam="1">  1        2 0.26897432E+00 0.35929278E+04</pdfrwt>
<pdfrwt beam="2">  1       -2 0.28398764E+00 0.35929278E+04</pdfrwt>
<totfact> 0.29933342E-01</totfact>
</mgrwt>
</event>
<event>
 6    1  0.1588846E-005  0.2243333E+04  0.7818608E-02  0.8500606E-01
         -1   -1    0    0    0  501 -0.00000000000E+00  0.00000000000E+00  0.83671339743E+03  0.83671339743E+03  0.00000000000E+00 0.  1.
          1   -1    0    0  501    0  0.00000000000E+00 -0.00000000000E+00 -0.15036634763E+04  0.15036634763E+04  0.00000000000E+00 0. -1.
         23    2    1    2    0    0  0.27673468887E+03 -0.34732537429E+03 -0.14064710640E+04  0.14777597564E+04  0.91629908345E+02 0.  0.
         11    1    3    3    0    0  0.90108944393E+02 -0.18151774581E+03 -0.68285573802E+03  0.71229226646E+03  0.00000000000E+00 0. -1.
        -11    1    3    3    0    0  0.18662574448E+03 -0.16580762847E+03 -0.72361532600E+03  0.76546748996E+03  0.00000000000E+00 0.  1.
         22    1    1    2    0    0 -0.27673468887E+03  0.34732537429E+03  0.73952098514E+03  0.86261711733E+03  0.00000000000E+00 0.  1.
<mgrwt>
<rscale>  0 0.22433327E+04</rscale>
<asrwt>0</asrwt>
<pdfrwt beam="1">  1        1 0.23133284E+00 0.22433327E+04</pdfrwt>
<pdfrwt beam="2">  1       -1 0.12872514E+00 0.22433327E+04</pdfrwt>
<totfact> 0.30712865E+00</totfact>
</mgrwt>
</event>
<event>
 6    1  0.1588846E-005  0.3423078E+04  0.7818608E-02  0.8132265E-01
          2   -1    0    0  501    0  0.00000000000E+00  0.00000000000E+00  0.17268848971E+04  0.17268848971E+04  0.00000000000E+00 0. -1.
         -2   -1    0    0    0  501 -0.00000000000E+00 -0.00000000000E+00 -0.16963295245E+04  0.16963295245E+04  0.00000000000E+00 0.  1.
         23    2    1    2    0    0 -0.36366125530E+03 -0.16436791713E+04 -0.28597169988E+03  0.17102870692E+04  0.96805572894E+02 0.  0.
         13    1    3    3    0    0 -0.36538872205E+03 -0.15952560072E+04 -0.28834866592E+03  0.16617748343E+04  0.00000000000E+00 0. -1.
        -13    1    3    3    0    0  0.17274667549E+01 -0.48423164139E+02  0.23769660345E+01  0.48512234891E+02  0.00000000000E+00 0.  1.
         22    1    1    2    0    0  0.36366125530E+03  0.16436791713E+04  0.31652707253E+03  0.17129273524E+04  0.00000000000E+00 0. -1.
<mgrwt>
<rscale>  0 0.34230781E+04</rscale>
<asrwt>0</asrwt>
<pdfrwt beam="1">  1        2 0.26567460E+00 0.34230781E+04</pdfrwt>
<pdfrwt beam="2">  1       -2 0.26097377E+00 0.34230781E+04</pdfrwt>
<totfact> 0.43116875E-01</totfact>
</mgrwt>
</event>
<event>
 6    1  0.2492576E-005  0.2610310E+04  0.7818608E-02  0.8364707E-01
          2   -1    0    0  501    0  0.00000000000E+00  0.00000000000E+00  0.19566857314E+04  0.19566857314E+04  0.00000000000E+00 0. -1.
         -2   -1    0    0    0  501 -0.00000000000E+00 -0.00000000000E+00 -0.87056895379E+03  0.87056895379E+03  0.00000000000E+00 0.  1.
         23    2    1    2    0    0  0.98287464527E+03 -0.85074849434E+03  0.43821519920E+03  0.13748112184E+04  0.90872198892E+02 0.  0.
         11    1    3    3    0    0  0.42281993557E+03 -0.36113327479E+03  0.14032109210E+03  0.57348404421E+03  0.00000000000E+00 0.  1.
        -11    1    3    3    0    0  0.56005470970E+03 -0.48961521956E+03  0.29789410710E+03  0.80132717420E+03  0.00000000000E+00 0. -1.
         22    1    1    2    0    0 -0.98287464527E+03  0.85074849434E+03  0.64790157845E+03  0.14524434668E+04  0.00000000000E+00 0.  1.
<mgrwt>
<rscale>  0 0.26103102E+04</rscale>
<asrwt>0</asrwt>
<pdfrwt beam="1">  1        2 0.30102857E+00 0.26103102E+04</pdfrwt>
<pdfrwt beam="2">  1       -2 0.13393369E+00 0.26103102E+04</pdfrwt>
<totfact> 0.25130124E+00</totfact>
</mgrwt>
</event>
<event>
 6    1  0.1588846E-005  0.2055414E+04  0.7818608E-02  0.8581142E-01
         -2   -1    0    0    0  501 -0.00000000000E+00  0.00000000000E+00  0.34430376377E+03  0.34430376377E+03  0.00000000000E+00 0.  1.
          2   -1    0    0  501    0  0.00000000000E+00 -0.00000000000E+00 -0.30675880031E+04  0.30675880031E+04  0.00000000000E+00 0. -1.
         23    2    1    2    0    0  0.36720267255E+02  0.81950379020E+03 -0.34193203917E+03  0.89320696298E+03  0.89254238674E+02 0.  0.
         13    1    3    3    0    0  0.43628436596E+02  0.46544478954E+03 -0.23537523159E+03  0.52339640067E+03  0.00000000000E+00 0.  1.
        -13    1    3    3    0    0 -0.69081693405E+01  0.35405900066E+03 -0.10655680758E+03  0.36981056231E+03  0.00000000000E+00 0. -1.
         22    1    1    2    0    0 -0.36720267255E+02 -0.81950379020E+03 -0.23813522001E+04  0.25186848039E+04  0.00000000000E+00 0. -1.
<mgrwt>
<rscale>  0 0.20554144E+04</rscale>
<asrwt>0</asrwt>
<pdfrwt beam="1">  1        2 0.47193663E+00 0.20554144E+04</pdfrwt>
<pdfrwt beam="2">  1       -2 0.52969809E-01 0.20554144E+04</pdfrwt>
<totfact> 0.49178772E+00</totfact>
</mgrwt>
</event>
<event>
 6    1  0.1588846E-005  0.2420698E+04  0.7818608E-02  0.8431795E-01
         -2   -1    0    0    0  501 -0.00000000000E+00  0.00000000000E+00  0.53752976274E+03  0.53752976274E+03  0.00000000000E+00 0.  1.
          2   -1    0    0  501    0  0.00000000000E+00 -0.00000000000E+00 -0.27253271146E+04  0.27253271146E+04  0.00000000000E+00 0. -1.
         23    2    1    2    0    0  0.40883406061E+03 -0.96515924064E+03 -0.19064542808E+04  0.21775773868E+04  0.92723793526E+02 0.  0.
         11    1    3    3    0    0  0.23225085052E+03 -0.52135862521E+03 -0.11303215384E+04  0.12662472325E+04  0.00000000000E+00 0.  1.
        -11    1    3    3    0    0  0.17658321010E+03 -0.44380061542E+03 -0.77613274246E+03  0.91133015437E+03  0.00000000000E+00 0. -1.
         22    1    1    2    0    0 -0.40883406061E+03  0.96515924064E+03 -0.28134307104E+03  0.10852794905E+04  0.00000000000E+00 0.  1.
<mgrwt>
<rscale>  0 0.24206978E+04</rscale>
<asrwt>0</asrwt>
<pdfrwt beam="1">  1        2 0.41928110E+00 0.24206978E+04</pdfrwt>
<pdfrwt beam="2">  1       -2 0.82696886E-01 0.24206978E+04</pdfrwt>
<totfact> 0.29527740E+00</totfact>
</mgrwt>
</event>
<event>
 6    1  0.1588846E-005  0.1537362E+04  0.7818608E-02  0.8859981E-01
         -2   -1    0    0    0  501 -0.00000000000E+00  0.00000000000E+00  0.94946354449E+03  0.94946354449E+03  0.00000000000E+00 0. -1.
          2   -1    0    0  501    0  0.00000000000E+00 -0.00000000000E+00 -0.62232024184E+03  0.62232024184E+03  0.00000000000E+00 0.  1.
         23    2    1    2    0    0 -0.21532791939E+03  0.72827842431E+03  0.26590354735E+03  0.80987441914E+03  0.91849344543E+02 0.  0.
         13    1    3    3    0    0 -0.10444130212E+03  0.49806028614E+03  0.16241335511E+03  0.53418174074E+03  0.00000000000E+00 0.  1.
        -13    1    3    3    0    0 -0.11088661728E+03  0.23021813816E+03  0.10349019224E+03  0.27569267840E+03  0.00000000000E+00 0. -1.
         22    1    1    2    0    0  0.21532791939E+03 -0.72827842431E+03  0.61239755294E+02  0.76190936719E+03  0.00000000000E+00 0.  1.
<mgrwt>
<rscale>  0 0.15373619E+04</rscale>
<asrwt>0</asrwt>
<pdfrwt beam="1">  1        2 0.95741575E-01 0.15373619E+04</pdfrwt>
<pdfrwt beam="2">  1       -2 0.14607131E+00 0.15373619E+04</pdfrwt>
<totfact> 0.14680284E+01</totfact>
</mgrwt>
</event>
<event>
 6    1  0.1588846E-005  0.2306104E+04  0.7818608E-02  0.8475518E-01
          1   -1    0    0  501    0  0.00000000000E+00  0.00000000000E+00  0.71479517174E+03  0.71479517174E+03  0.00000000000E+00 0. -1.
         -1   -1    0    0    0  501 -0.00000000000E+00 -0.00000000000E+00 -0.18600136308E+04  0.18600136308E+04  0.00000000000E+00 0.  1.
         23    2    1    2    0    0  0.38272754966E+03  0.10069223895E+04 -0.10267472331E+04  0.14911075027E+04  0.93907550859E+02 0.  0.
         11    1    3    3    0    0  0.91930039613E+02  0.33244340109E+03 -0.36967447397E+03  0.50559763036E+03  0.00000000000E+00 0. -1.
        -11    1    3    3    0    0  0.29079751005E+03  0.67447898844E+03 -0.65707275915E+03  0.98550987236E+03  0.00000000000E+00 0.  1.
         22    1    1    2    0    0 -0.38272754966E+03 -0.10069223895E+04 -0.11847122592E+03  0.10837012998E+04  0.00000000000E+00 0. -1.
<mgrwt>
<rscale>  0 0.23061039E+04</rscale>
<asrwt>0</asrwt>
<pdfrwt beam="1">  1        1 0.10996849E+00 0.23061039E+04</pdfrwt>
<pdfrwt beam="2">  1       -1 0.28615594E+00 0.23061039E+04</pdfrwt>
<totfact> 0.96803654E-01</totfact>
</mgrwt>
</event>
<event>
 6    1  0.1588846E-005  0.2361888E+04  0.7818608E-02  0.8453912E-01
         -1   -1    0    0    0  501 -0.00000000000E+00  0.00000000000E+00  0.82914351608E+03  0.82914351608E+03  0.00000000000E+00 0.  1.
          1   -1    0    0  501    0  0.00000000000E+00 -0.00000000000E+00 -0.16820110011E+04  0.16820110011E+04  0.00000000000E+00 0. -1.
         23    2    1    2    0    0 -0.23110795941E+02  0.91558592336E+03 -0.12166410826E+04  0.15256785296E+04  0.92993332060E+02 0.  0.
         13    1    3    3    0    0  0.30473355710E+02  0.21934027077E+03 -0.32128430387E+03  0.39020812870E+03  0.00000000000E+00 0.  1.
        -13    1    3    3    0    0 -0.53584151651E+02  0.69624565259E+03 -0.89535677872E+03  0.11354704009E+04  0.00000000000E+00 0. -1.
         22    1    1    2    0    0  0.23110795941E+02 -0.91558592336E+03  0.36377359754E+03  0.98547598764E+03  0.00000000000E+00 0.  1.
<mgrwt>
<rscale>  0 0.23618878E+04</rscale>
<asrwt>0</asrwt>
<pdfrwt beam="1">  1        1 0.25877092E+00 0.23618878E+04</pdfrwt>
<pdfrwt beam="2">  1       -1 0.12756054E+00 0.23618878E+04</pdfrwt>
<totfact> 0.23446848E+00</totfact>
</mgrwt>
</event>
<event>
 6    1  0.1588846E-005  0.2429792E+04  0.7818608E-02  0.8428433E-01
          1   -1    0    0  501    0  0.00000000000E+00  0.00000000000E+00  0.93815837262E+03  0.93815837262E+03  0.00000000000E+00 0. -1.
         -1   -1    0    0    0  501 -0.00000000000E+00 -0.00000000000E+00 -0.15732656067E+04  0.15732656067E+04  0.00000000000E+00 0.  1.
         23    2    1    2    0    0 -0.59605974777E+03 -0.52932477559E+02 -0.14087963479E+04  0.15333217788E+04  0.90991523574E+02 0.  0.
         11    1    3    3    0    0 -0.50961648578E+03 -0.50831723348E+02 -0.11136303570E+04  0.12257509530E+04  0.00000000000E+00 0. -1.
        -11    1    3    3    0    0 -0.86443261991E+02 -0.21007542118E+01 -0.29516599087E+03  0.30757082579E+03  0.00000000000E+00 0.  1.
         22    1    1    2    0    0  0.59605974777E+03  0.52932477559E+02  0.77368911374E+03  0.97810220060E+03  0.00000000000E+00 0. -1.
<mgrwt>
<rscale>  0 0.24297920E+04</rscale>
<asrwt>0</asrwt>
<pdfrwt beam="1">  1        1 0.14433206E+00 0.24297920E+04</pdfrwt>
<pdfrwt beam="2">  1       -1 0.24204086E+00 0.24297920E+04</pdfrwt>
<totfact> 0.11902948E+00</totfact>
</mgrwt>
</event>
<event>
 6    1  0.1588846E-005  0.4522364E+04  0.7818608E-02  0.7906733E-01
         -2   -1    0    0    0  501 -0.00000000000E+00  0.00000000000E+00  0.23716408236E+04  0.23716408236E+04  0.00000000000E+00 0.  1.
          2   -1    0    0  501    0  0.00000000000E+00 -0.00000000000E+00 -0.21558676069E+04  0.21558676069E+04  0.00000000000E+00 0. -1.
         23    2    1    2    0    0 -0.37947242732E+03  0.55959658228E+03 -0.20511300799E+04  0.21619222000E+04  0.98108798855E+02 0.  0.
         13    1    3    3    0    0 -0.17167241475E+03  0.27297431011E+03 -0.11296778431E+04  0.11748014391E+04  0.00000000000E+00 0. -1.
        -13    1    3    3    0    0 -0.20780001257E+03  0.28662227216E+03 -0.92145223675E+03  0.98712076097E+03  0.00000000000E+00 0.  1.
         22    1    1    2    0    0  0.37947242732E+03 -0.55959658228E+03  0.22669032966E+04  0.23655862305E+04  0.00000000000E+00 0.  1.
<mgrwt>
<rscale>  0 0.45223638E+04</rscale>
<asrwt>0</asrwt>
<pdfrwt beam="1">  1        2 0.33167194E+00 0.45223638E+04</pdfrwt>
<pdfrwt beam="2">  1       -2 0.36486782E+00 0.45223638E+04</pdfrwt>
<totfact> 0.51775901E-02</totfact>
</mgrwt>
</event>
<event>
 6    1  0.1588846E-005  0.1494020E+04  0.7818608E-02  0.8888439E-01
         -1   -1    0    0    0  501 -0.00000000000E+00  0.00000000000E+00  0.32590298760E+03  0.32590298760E+03  0.00000000000E+00 0.  1.
          1   -1    0    0  501    0  0.00000000000E+00 -0.00000000000E+00 -0.17122398750E+04  0.17122398750E+04  0.00000000000E+00 0. -1.
         23    2    1    2    0    0 -0.49411533408E+03 -0.54924208612E+03 -0.81779183232E+03  0.11059088189E+04  0.91836823927E+02 0.  0.
         13    1    3    3    0    0 -0.23316239970E+03 -0.25352605273E+03 -0.44949520778E+03  0.56629153787E+03  0.00000000000E+00 0. -1.
        -13    1    3    3    0    0 -0.26095293438E+03 -0.29571603339E+03 -0.36829662454E+03  0.53961728105E+03  0.00000000000E+00 0.  1.
         22    1    1    2    0    0  0.49411533408E+03  0.54924208612E+03 -0.56854505510E+03  0.93223404369E+03  0.00000000000E+00 0.  1.
<mgrwt>
<rscale>  0 0.14940202E+04</rscale>
<asrwt>0</asrwt>
<pdfrwt beam="1">  1        1 0.26342151E+00 0.14940202E+04</pdfrwt>
<pdfrwt beam="2">  1       -1 0.50138922E-01 0.14940202E+04</pdfrwt>
<totfact> 0.18067374E+01</totfact>
</mgrwt>
</event>
<event>
 6    1  0.1588846E-005  0.1326068E+04  0.7818608E-02  0.9009145E-01
         -1   -1    0    0    0  501 -0.00000000000E+00  0.00000000000E+00  0.19970528944E+03  0.19970528944E+03  0.00000000000E+00 0.  1.
          1   -1    0    0  501    0  0.00000000000E+00 -0.00000000000E+00 -0.22013145596E+04  0.22013145596E+04  0.00000000000E+00 0. -1.
         23    2    1    2    0    0  0.11284826241E+03  0.21478372402E+03 -0.21166814874E+04  0.21324897882E+04  0.91133963386E+02 0.  0.
         11    1    3    3    0    0  0.11518123122E+03  0.15368069369E+03 -0.17770292380E+04  0.17873772361E+04  0.00000000000E+00 0. -1.
        -11    1    3    3    0    0 -0.23329688139E+01  0.61103030330E+02 -0.33965224940E+03  0.34511255205E+03  0.00000000000E+00 0.  1.
         22    1    1    2    0    0 -0.11284826241E+03 -0.21478372402E+03  0.11507221718E+03  0.26853006089E+03  0.00000000000E+00 0.  1.
<mgrwt>
<rscale>  0 0.13260681E+04</rscale>
<asrwt>0</asrwt>
<pdfrwt beam="1">  1        1 0.33866375E+00 0.13260681E+04</pdfrwt>
<pdfrwt beam="2">  1       -1 0.30723893E-01 0.13260681E+04</pdfrwt>
<totfact> 0.20905503E+01</totfact>
</mgrwt>
</event>
<event>
 6    1  0.1588846E-005  0.2985317E+04  0.7818608E-02  0.8247936E-01
          2   -1    0    0  501    0  0.00000000000E+00  0.00000000000E+00  0.18455963972E+04  0.18455963972E+04  0.00000000000E+00 0. -1.
         -2   -1    0    0    0  501 -0.00000000000E+00 -0.00000000000E+00 -0.12072139096E+04  0.12072139096E+04  0.00000000000E+00 0.  1.
         23    2    1    2    0    0 -0.25274271283E+03  0.11286087470E+04 -0.64329339658E+03  0.13264471774E+04  0.89437897120E+02 0.  0.
         11    1    3    3    0    0 -0.21590602810E+03  0.77644314185E+03 -0.45098382104E+03  0.92350732121E+03  0.00000000000E+00 0.  1.
        -11    1    3    3    0    0 -0.36836684724E+02  0.35216560518E+03 -0.19230957555E+03  0.40293985614E+03  0.00000000000E+00 0. -1.
         22    1    1    2    0    0  0.25274271283E+03 -0.11286087470E+04  0.12816758842E+04  0.17263631295E+04  0.00000000000E+00 0. -1.
<mgrwt>
<rscale>  0 0.29853172E+04</rscale>
<asrwt>0</asrwt>
<pdfrwt beam="1">  1        2 0.28393791E+00 0.29853172E+04</pdfrwt>
<pdfrwt beam="2">  1       -2 0.18572522E+00 0.29853172E+04</pdfrwt>
<totfact> 0.11558748E+00</totfact>
</mgrwt>
</event>
<event>
 6    1  0.1850065E-005  0.3898106E+04  0.7818608E-02  0.8025423E-01
         -2   -1    0    0    0  501 -0.00000000000E+00  0.00000000000E+00  0.18821904755E+04  0.18821904755E+04  0.00000000000E+00 0.  1.
          2   -1    0    0  501    0  0.00000000000E+00 -0.00000000000E+00 -0.20182910582E+04  0.20182910582E+04  0.00000000000E+00 0. -1.
         23    2    1    2    0    0  0.10175687866E+04  0.70742660263E+02  0.15926203081E+04  0.18932628914E+04  0.86914733274E+02 0.  0.
         13    1    3    3    0    0  0.44682808817E+03  0.56645286023E+02  0.63843075788E+03  0.78131802835E+03  0.00000000000E+00 0. -1.
        -13    1    3    3    0    0  0.57074069845E+03  0.14097374239E+02  0.95418955019E+03  0.11119448631E+04  0.00000000000E+00 0.  1.
         22    1    1    2    0    0 -0.10175687866E+04 -0.70742660263E+02 -0.17287208908E+04  0.20072186422E+04  0.00000000000E+00 0. -1.
<mgrwt>
<rscale>  0 0.38981063E+04</rscale>
<asrwt>0</asrwt>
<pdfrwt beam="1">  1        2 0.31050632E+00 0.38981063E+04</pdfrwt>
<pdfrwt beam="2">  1       -2 0.28956777E+00 0.38981063E+04</pdfrwt>
<totfact> 0.19110656E-01</totfact>
</mgrwt>
</event>
<event>
 6    1  0.1588846E-005  0.2232896E+04  0.7818608E-02  0.8504860E-01
          1   -1    0    0  501    0  0.00000000000E+00  0.00000000000E+00  0.19142407916E+04  0.19142407916E+04  0.00000000000E+00 0. -1.
         -1   -1    0    0    0  501 -0.00000000000E+00 -0.00000000000E+00 -0.65114906712E+03  0.65114906712E+03  0.00000000000E+00 0.  1.
         23    2    1    2    0    0 -0.97378163976E+03 -0.53593339856E+03  0.53591230668E+03  0.12371334093E+04  0.88440841227E+02 0.  0.
         13    1    3    3    0    0 -0.82181949396E+03 -0.44759465282E+03  0.41442946859E+03  0.10234647226E+04  0.00000000000E+00 0. -1.
        -13    1    3    3    0    0 -0.15196214580E+03 -0.88338745738E+02  0.12148283809E+03  0.21366868677E+03  0.00000000000E+00 0.  1.
         22    1    1    2    0    0  0.97378163976E+03  0.53593339856E+03  0.72717941778E+03  0.13282564494E+04  0.00000000000E+00 0.  1.
<mgrwt>
<rscale>  0 0.22328960E+04</rscale>
<asrwt>0</asrwt>
<pdfrwt beam="1">  1        1 0.29449858E+00 0.22328960E+04</pdfrwt>
<pdfrwt beam="2">  1       -1 0.10017678E+00 0.22328960E+04</pdfrwt>
<totfact> 0.29401275E+00</totfact>
</mgrwt>
</event>
<event>
 6    1  0.1588846E-005  0.2639445E+04  0.7818608E-02  0.8354925E-01
          2   -1    0    0  501    0  0.00000000000E+00  0.00000000000E+00  0.25153092170E+04  0.25153092170E+04  0.00000000000E+00 0. -1.
         -2   -1    0    0    0  501 -0.00000000000E+00 -0.00000000000E+00 -0.69242691333E+03  0.69242691333E+03  0.00000000000E+00 0.  1.
         23    2    1    2    0    0 -0.12435088878E+04 -0.22702573945E+03  0.13663901001E+04  0.18637717810E+04  0.93639231889E+02 0.  0.
         11    1    3    3    0    0 -0.45891890855E+03 -0.10394318890E+03  0.56896889692E+03  0.73833349971E+03  0.00000000000E+00 0.  1.
        -11    1    3    3    0    0 -0.78458997922E+03 -0.12308255055E+03  0.79742120315E+03  0.11254382813E+04  0.00000000000E+00 0. -1.
         22    1    1    2    0    0  0.12435088878E+04  0.22702573945E+03  0.45649220360E+03  0.13439643493E+04  0.00000000000E+00 0.  1.
<mgrwt>
<rscale>  0 0.26394452E+04</rscale>
<asrwt>0</asrwt>
<pdfrwt beam="1">  1        2 0.38697064E+00 0.26394452E+04</pdfrwt>
<pdfrwt beam="2">  1       -2 0.10652722E+00 0.26394452E+04</pdfrwt>
<totfact> 0.21344553E+00</totfact>
</mgrwt>
</event>
<event>
 6    1  0.1588846E-005  0.2812094E+04  0.7818608E-02  0.8299523E-01
         -1   -1    0    0    0  501 -0.00000000000E+00  0.00000000000E+00  0.49364075679E+03  0.49364075679E+03  0.00000000000E+00 0.  1.
          1   -1    0    0  501    0  0.00000000000E+00 -0.00000000000E+00 -0.40048722380E+04  0.40048722380E+04  0.00000000000E+00 0. -1.
         23    2    1    2    0    0 -0.39048471771E+03  0.28822340908E+03 -0.38659047310E+04  0.38973939030E+04  0.94386424797E+02 0.  0.
         11    1    3    3    0    0 -0.64162163564E+02  0.14434537230E+02 -0.67169414691E+03  0.67490604242E+03  0.00000000000E+00 0. -1.
        -11    1    3    3    0    0 -0.32632255415E+03  0.27378887185E+03 -0.31942105841E+04  0.32224878606E+04  0.00000000000E+00 0.  1.
         22    1    1    2    0    0  0.39048471771E+03 -0.28822340908E+03  0.35467324987E+03  0.60111909176E+03  0.00000000000E+00 0.  1.
<mgrwt>
<rscale>  0 0.28120940E+04</rscale>
<asrwt>0</asrwt>
<pdfrwt beam="1">  1        1 0.61613417E+00 0.28120940E+04</pdfrwt>
<pdfrwt beam="2">  1       -1 0.75944735E-01 0.28120940E+04</pdfrwt>
<totfact> 0.14313859E-01</totfact>
</mgrwt>
</event>
<event>
 6    1  0.1588846E-005  0.1344630E+04  0.7818608E-02  0.8994903E-01
          1   -1    0    0  501    0  0.00000000000E+00  0.00000000000E+00  0.16140095037E+04  0.16140095037E+04  0.00000000000E+00 0. -1.
         -1   -1    0    0    0  501 -0.00000000000E+00 -0.00000000000E+00 -0.28005235665E+03  0.28005235665E+03  0.00000000000E+00 0.  1.
         23    2    1    2    0    0  0.51763679230E+03 -0.22529126197E+03  0.16408800357E+03  0.59510157831E+03  0.92287670530E+02 0.  0.
         13    1    3    3    0    0  0.15358537884E+03 -0.10550477646E+03  0.79738495864E+02  0.20267697000E+03  0.00000000000E+00 0.  1.
        -13    1    3    3    0    0  0.36405141346E+03 -0.11978648552E+03  0.84349507711E+02  0.39242460831E+03  0.00000000000E+00 0. -1.
         22    1    1    2    0    0 -0.51763679230E+03  0.22529126197E+03  0.11698691434E+04  0.12989602820E+04  0.00000000000E+00 0. -1.
<mgrwt>
<rscale>  0 0.13446296E+04</rscale>
<asrwt>0</asrwt>
<pdfrwt beam="1">  1        1 0.24830915E+00 0.13446296E+04</pdfrwt>
<pdfrwt beam="2">  1       -1 0.43084979E-01 0.13446296E+04</pdfrwt>
<totfact> 0.28383752E+01</totfact>
</mgrwt>
</event>
<event>
 6    1  0.2227532E-005  0.3248629E+04  0.7818608E-02  0.8176091E-01
          1   -1    0    0  501    0  0.00000000000E+00  0.00000000000E+00  0.17219859215E+04  0.17219859215E+04  0.00000000000E+00 0. -1.
         -1   -1    0    0    0  501 -0.00000000000E+00 -0.00000000000E+00 -0.15321832976E+04  0.15321832976E+04  0.00000000000E+00 0.  1.
         23    2    1    2    0    0 -0.15779174757E+03  0.15828699861E+04 -0.22784358025E+03  0.16095403915E+04  0.91279494937E+02 0.  0.
         11    1    3    3    0    0 -0.59649711587E+02  0.55951850619E+03 -0.12462492240E+03  0.57632492410E+03  0.00000000000E+00 0.  1.
        -11    1    3    3    0    0 -0.98142035982E+02  0.10233514800E+04 -0.10321865785E+03  0.10332154674E+04  0.00000000000E+00 0. -1.
         22    1    1    2    0    0  0.15779174757E+03 -0.15828699861E+04  0.41764620414E+03  0.16446288276E+04  0.00000000000E+00 0. -1.
<mgrwt>
<rscale>  0 0.32486293E+04</rscale>
<asrwt>0</asrwt>
<pdfrwt beam="1">  1        1 0.26492091E+00 0.32486293E+04</pdfrwt>
<pdfrwt beam="2">  1       -1 0.23572051E+00 0.32486293E+04</pdfrwt>
<totfact> 0.33189103E-01</totfact>
</mgrwt>
</event>
<event>
 6    1  0.1588846E-005  0.1393469E+04  0.7818608E-02  0.8958559E-01
          1   -1    0    0  501    0  0.00000000000E+00  0.00000000000E+00  0.10158817996E+04  0.10158817996E+04  0.00000000000E+00 0. -1.
         -1   -1    0    0    0  501 -0.00000000000E+00 -0.00000000000E+00 -0.47785011556E+03  0.47785011556E+03  0.00000000000E+00 0.  1.
         23    2    1    2    0    0 -0.52524207052E+03 -0.43996802828E+03  0.15407031375E+03  0.70831646306E+03  0.92322541710E+02 0.  0.
         13    1    3    3    0    0 -0.91281099920E+02 -0.11315770820E+03  0.72300663620E+01  0.14556503697E+03  0.00000000000E+00 0. -1.
        -13    1    3    3    0    0 -0.43396097060E+03 -0.32681032008E+03  0.14684024739E+03  0.56275142609E+03  0.00000000000E+00 0.  1.
         22    1    1    2    0    0  0.52524207052E+03  0.43996802828E+03  0.38396137034E+03  0.78541545214E+03  0.00000000000E+00 0. -1.
<mgrwt>
<rscale>  0 0.13934694E+04</rscale>
<asrwt>0</asrwt>
<pdfrwt beam="1">  1        1 0.15628951E+00 0.13934694E+04</pdfrwt>
<pdfrwt beam="2">  1       -1 0.73515402E-01 0.13934694E+04</pdfrwt>
<totfact> 0.26748210E+01</totfact>
</mgrwt>
</event>
<event>
 6    1  0.1588846E-005  0.2035924E+04  0.7818608E-02  0.8590007E-01
          2   -1    0    0  501    0  0.00000000000E+00  0.00000000000E+00  0.34189590342E+04  0.34189590342E+04  0.00000000000E+00 0. -1.
         -2   -1    0    0    0  501 -0.00000000000E+00 -0.00000000000E+00 -0.30308830908E+03  0.30308830908E+03  0.00000000000E+00 0.  1.
         23    2    1    2    0    0 -0.83902955043E+03 -0.42161313247E+03  0.85349122258E+03  0.12725393859E+04  0.95817543176E+02 0.  0.
         13    1    3    3    0    0 -0.63560801749E+03 -0.27283363836E+03  0.63605919413E+03  0.93968454524E+03  0.00000000000E+00 0. -1.
        -13    1    3    3    0    0 -0.20342153294E+03 -0.14877949411E+03  0.21743202846E+03  0.33285484063E+03  0.00000000000E+00 0.  1.
         22    1    1    2    0    0  0.83902955043E+03  0.42161313247E+03  0.22623795025E+04  0.24495079574E+04  0.00000000000E+00 0. -1.
<mgrwt>
<rscale>  0 0.20359239E+04</rscale>
<asrwt>0</asrwt>
<pdfrwt beam="1">  1        2 0.52599367E+00 0.20359239E+04</pdfrwt>
<pdfrwt beam="2">  1       -2 0.46628973E-01 0.20359239E+04</pdfrwt>
<totfact> 0.37548201E+00</totfact>
</mgrwt>
</event>
<event>
 6    1  0.1588846E-005  0.1632296E+04  0.7818608E-02  0.8800949E-01
          2   -1    0    0  501    0  0.00000000000E+00  0.00000000000E+00  0.15879481675E+04  0.15879481675E+04  0.00000000000E+00 0. -1.
         -2   -1    0    0    0  501 -0.00000000000E+00 -0.00000000000E+00 -0.41947059668E+03  0.41947059668E+03  0.00000000000E+00 0.  1.
         23    2    1    2    0    0 -0.41025155230E+03  0.34105931764E+03 -0.17064037673E+03  0.56593873595E+03  0.80874720171E+02 0.  0.
         13    1    3    3    0    0 -0.26791457567E+03  0.23563629767E+03 -0.74821536054E+02  0.36455582137E+03  0.00000000000E+00 0.  1.
        -13    1    3    3    0    0 -0.14233697663E+03  0.10542301996E+03 -0.95818840681E+02  0.20138291458E+03  0.00000000000E+00 0. -1.
         22    1    1    2    0    0  0.41025155230E+03 -0.34105931764E+03  0.13391179475E+04  0.14414800282E+04  0.00000000000E+00 0. -1.
<mgrwt>
<rscale>  0 0.16322960E+04</rscale>
<asrwt>0</asrwt>
<pdfrwt beam="1">  1        2 0.24429972E+00 0.16322960E+04</pdfrwt>
<pdfrwt beam="2">  1       -2 0.64533939E-01 0.16322960E+04</pdfrwt>
<totfact> 0.24019858E+01</totfact>
</mgrwt>
</event>
<event>
 6    1  0.1588846E-005  0.2066019E+04  0.7818608E-02  0.8576362E-01
         -1   -1    0    0    0  501 -0.00000000000E+00  0.00000000000E+00  0.94571097826E+03  0.94571097826E+03  0.00000000000E+00 0.  1.
          1   -1    0    0  501    0  0.00000000000E+00 -0.00000000000E+00 -0.11283665545E+04  0.11283665545E+04  0.00000000000E+00 0. -1.
         23    2    1    2    0    0  0.61549157435E+02 -0.10210511130E+04 -0.22102534420E+03  0.10504536207E+04  0.90922672008E+02 0.  0.
         13    1    3    3    0    0 -0.31540541444E+01 -0.65524521710E+03 -0.13106867847E+03  0.66823292426E+03  0.00000000000E+00 0.  1.
        -13    1    3    3    0    0  0.64703211580E+02 -0.36580589594E+03 -0.89956665726E+02  0.38222069646E+03  0.00000000000E+00 0. -1.
         22    1    1    2    0    0 -0.61549157435E+02  0.10210511130E+04  0.38369767964E+02  0.10236239120E+04  0.00000000000E+00 0. -1.
<mgrwt>
<rscale>  0 0.20660190E+04</rscale>
<asrwt>0</asrwt>
<pdfrwt beam="1">  1        1 0.17359485E+00 0.20660190E+04</pdfrwt>
<pdfrwt beam="2">  1       -1 0.14549400E+00 0.20660190E+04</pdfrwt>
<totfact> 0.42165446E+00</totfact>
</mgrwt>
</event>
<event>
 6    1  0.1588846E-005  0.3326151E+04  0.7818608E-02  0.8156273E-01
          2   -1    0    0  501    0  0.00000000000E+00  0.00000000000E+00  0.42645441176E+04  0.42645441176E+04  0.00000000000E+00 0.  1.
         -2   -1    0    0    0  501 -0.00000000000E+00 -0.00000000000E+00 -0.64856169555E+03  0.64856169555E+03  0.00000000000E+00 0. -1.
         23    2    1    2    0    0  0.25835154339E+02 -0.96666611025E+03 -0.18665615263E+03  0.98943776481E+03  0.95056547349E+02 0.  0.
         13    1    3    3    0    0 -0.34279043443E+02 -0.49454437787E+03 -0.93269304611E+02  0.50442874391E+03  0.00000000000E+00 0. -1.
        -13    1    3    3    0    0  0.60114197782E+02 -0.47212173238E+03 -0.93386848020E+02  0.48500902089E+03  0.00000000000E+00 0.  1.
         22    1    1    2    0    0 -0.25835154339E+02  0.96666611025E+03  0.38026385747E+04  0.39236680483E+04  0.00000000000E+00 0.  1.
<mgrwt>
<rscale>  0 0.33261509E+04</rscale>
<asrwt>0</asrwt>
<pdfrwt beam="1">  1        2 0.65608369E+00 0.33261509E+04</pdfrwt>
<pdfrwt beam="2">  1       -2 0.99778725E-01 0.33261509E+04</pdfrwt>
<totfact> 0.14082099E-01</totfact>
</mgrwt>
</event>
<event>
 6    1  0.1588846E-005  0.2567945E+04  0.7818608E-02  0.8379172E-01
          1   -1    0    0  501    0  0.00000000000E+00  0.00000000000E+00  0.22243614523E+04  0.22243614523E+04  0.00000000000E+00 0. -1.
         -1   -1    0    0    0  501 -0.00000000000E+00 -0.00000000000E+00 -0.74115016632E+03  0.74115016632E+03  0.00000000000E+00 0.  1.
         23    2    1    2    0    0  0.81812870249E+03 -0.98729393044E+03  0.74785904354E+03  0.14873956559E+04  0.94703796827E+02 0.  0.
         11    1    3    3    0    0  0.51308532700E+03 -0.55017352540E+03  0.45553493021E+03  0.87946548169E+03  0.00000000000E+00 0. -1.
        -11    1    3    3    0    0  0.30504337549E+03 -0.43712040505E+03  0.29232411333E+03  0.60793017417E+03  0.00000000000E+00 0.  1.
         22    1    1    2    0    0 -0.81812870249E+03  0.98729393044E+03  0.73535224244E+03  0.14781159628E+04  0.00000000000E+00 0. -1.
<mgrwt>
<rscale>  0 0.25679454E+04</rscale>
<asrwt>0</asrwt>
<pdfrwt beam="1">  1        1 0.34220945E+00 0.25679454E+04</pdfrwt>
<pdfrwt beam="2">  1       -1 0.11402310E+00 0.25679454E+04</pdfrwt>
<totfact> 0.12969837E+00</totfact>
</mgrwt>
</event>
<event>
 6    1  0.1588846E-005  0.4833589E+04  0.7818608E-02  0.7854703E-01
          2   -1    0    0  501    0  0.00000000000E+00  0.00000000000E+00  0.32258571037E+04  0.32258571037E+04  0.00000000000E+00 0. -1.
         -2   -1    0    0    0  501 -0.00000000000E+00 -0.00000000000E+00 -0.18106495061E+04  0.18106495061E+04  0.00000000000E+00 0.  1.
         23    2    1    2    0    0  0.18413497923E+04 -0.37114223623E+03  0.22909179293E+04  0.29640239917E+04  0.93902329550E+02 0.  0.
         13    1    3    3    0    0  0.85825792877E+03 -0.12840132435E+03  0.10308711757E+04  0.13475121347E+04  0.00000000000E+00 0.  1.
        -13    1    3    3    0    0  0.98309186356E+03 -0.24274091188E+03  0.12600467536E+04  0.16165118570E+04  0.00000000000E+00 0. -1.
         22    1    1    2    0    0 -0.18413497923E+04  0.37114223623E+03 -0.87571033170E+03  0.20724826181E+04  0.00000000000E+00 0.  1.
<mgrwt>
<rscale>  0 0.48335894E+04</rscale>
<asrwt>0</asrwt>
<pdfrwt beam="1">  1        2 0.49628571E+00 0.48335894E+04</pdfrwt>
<pdfrwt beam="2">  1       -2 0.27856146E+00 0.48335894E+04</pdfrwt>
<totfact> 0.39494629E-02</totfact>
</mgrwt>
</event>
<event>
 6    1  0.1588846E-005  0.1936086E+04  0.7818608E-02  0.8637100E-01
          1   -1    0    0  501    0  0.00000000000E+00  0.00000000000E+00  0.15695224868E+04  0.15695224868E+04  0.00000000000E+00 0. -1.
         -1   -1    0    0    0  501 -0.00000000000E+00 -0.00000000000E+00 -0.59706539135E+03  0.59706539135E+03  0.00000000000E+00 0.  1.
         23    2    1    2    0    0 -0.66313615810E+03 -0.20049088815E+02  0.12727976930E+04  0.14383324253E+04  0.92922916418E+02 0.  0.
         13    1    3    3    0    0 -0.25923815212E+03 -0.44285845976E+02  0.44415811762E+03  0.51618028742E+03  0.00000000000E+00 0.  1.
        -13    1    3    3    0    0 -0.40389800598E+03  0.24236757161E+02  0.82863957534E+03  0.92215213792E+03  0.00000000000E+00 0. -1.
         22    1    1    2    0    0  0.66313615810E+03  0.20049088815E+02 -0.30034059747E+03  0.72825545287E+03  0.00000000000E+00 0.  1.
<mgrwt>
<rscale>  0 0.19360863E+04</rscale>
<asrwt>0</asrwt>
<pdfrwt beam="1">  1        1 0.24146500E+00 0.19360863E+04</pdfrwt>
<pdfrwt beam="2">  1       -1 0.91856215E-01 0.19360863E+04</pdfrwt>
<totfact> 0.63057528E+00</totfact>
</mgrwt>
</event>
<event>
 6    1  0.1588846E-005  0.1448552E+04  0.7818608E-02  0.8919405E-01
         -1   -1    0    0    0  501 -0.00000000000E+00  0.00000000000E+00  0.28574345521E+03  0.28574345521E+03  0.00000000000E+00 0.  1.
          1   -1    0    0  501    0  0.00000000000E+00 -0.00000000000E+00 -0.18358281296E+04  0.18358281296E+04  0.00000000000E+00 0. -1.
         23    2    1    2    0    0 -0.55144906917E+03  0.20243662683E+03 -0.13909655272E+04  0.15129702647E+04  0.96006563450E+02 0.  0.
         13    1    3    3    0    0 -0.19504681497E+03  0.10816859849E+03 -0.44652268578E+03  0.49912544981E+03  0.00000000000E+00 0.  1.
        -13    1    3    3    0    0 -0.35640225421E+03  0.94268028335E+02 -0.94444284145E+03  0.10138448149E+04  0.00000000000E+00 0. -1.
         22    1    1    2    0    0  0.55144906917E+03 -0.20243662683E+03 -0.15911914713E+03  0.60860132004E+03  0.00000000000E+00 0.  1.
<mgrwt>
<rscale>  0 0.14485522E+04</rscale>
<asrwt>0</asrwt>
<pdfrwt beam="1">  1        1 0.28243510E+00 0.14485522E+04</pdfrwt>
<pdfrwt beam="2">  1       -1 0.43960532E-01 0.14485522E+04</pdfrwt>
<totfact> 0.19147131E+01</totfact>
</mgrwt>
</event>
<event>
 6    1  0.1588846E-005  0.1100040E+04  0.7818608E-02  0.9205153E-01
          1   -1    0    0  501    0  0.00000000000E+00  0.00000000000E+00  0.84219257444E+03  0.84219257444E+03  0.00000000000E+00 0. -1.
         -1   -1    0    0    0  501 -0.00000000000E+00 -0.00000000000E+00 -0.35920769124E+03  0.35920769124E+03  0.00000000000E+00 0.  1.
         23    2    1    2    0    0 -0.44332653717E+03 -0.26705909770E+02  0.59032705108E+03  0.74448236805E+03  0.92284044791E+02 0.  0.
         13    1    3    3    0    0 -0.17385331593E+03  0.29391048245E+02  0.26554703076E+03  0.31875387798E+03  0.00000000000E+00 0. -1.
        -13    1    3    3    0    0 -0.26947322123E+03 -0.56096958015E+02  0.32478002031E+03  0.42572849007E+03  0.00000000000E+00 0.  1.
         22    1    1    2    0    0  0.44332653717E+03  0.26705909770E+02 -0.10734216787E+03  0.45691789763E+03  0.00000000000E+00 0.  1.
<mgrwt>
<rscale>  0 0.11000401E+04</rscale>
<asrwt>0</asrwt>
<pdfrwt beam="1">  1        1 0.12956809E+00 0.11000401E+04</pdfrwt>
<pdfrwt beam="2">  1       -1 0.55262722E-01 0.11000401E+04</pdfrwt>
<totfact> 0.67070673E+01</totfact>
</mgrwt>
</event>
<event>
 6    1  0.1588846E-005  0.4496525E+04  0.7818608E-02  0.7911245E-01
         -2   -1    0    0    0  501 -0.00000000000E+00  0.00000000000E+00  0.22541846609E+04  0.22541846609E+04  0.00000000000E+00 0. -1.
          2   -1    0    0  501    0  0.00000000000E+00 -0.00000000000E+00 -0.22423556193E+04  0.22423556193E+04  0.00000000000E+00 0.  1.
         23    2    1    2    0    0  0.75020304454E+03 -0.16937082100E+04 -0.12665015612E+04  0.22458556647E+04  0.91593413292E+02 0.  0.
         13    1    3    3    0    0  0.61449953704E+03 -0.13501481053E+04 -0.97282229872E+03  0.17739483680E+04  0.00000000000E+00 0. -1.
        -13    1    3    3    0    0  0.13570350751E+03 -0.34356010468E+03 -0.29367926246E+03  0.47190729670E+03  0.00000000000E+00 0.  1.
         22    1    1    2    0    0 -0.75020304454E+03  0.16937082100E+04  0.12783306028E+04  0.22506846156E+04  0.00000000000E+00 0. -1.
<mgrwt>
<rscale>  0 0.44965247E+04</rscale>
<asrwt>0</asrwt>
<pdfrwt beam="1">  1        2 0.34497779E+00 0.44965247E+04</pdfrwt>
<pdfrwt beam="2">  1       -2 0.34679764E+00 0.44965247E+04</pdfrwt>
<totfact> 0.60372363E-02</totfact>
</mgrwt>
</event>
<event>
 6    1  0.1588846E-005  0.6065281E+04  0.7818608E-02  0.7682360E-01
          2   -1    0    0  501    0  0.00000000000E+00  0.00000000000E+00  0.33006267172E+04  0.33006267172E+04  0.00000000000E+00 0. -1.
         -2   -1    0    0    0  501 -0.00000000000E+00 -0.00000000000E+00 -0.27864131996E+04  0.27864131996E+04  0.00000000000E+00 0.  1.
         23    2    1    2    0    0  0.40749543066E+01  0.28570608385E+04  0.12757144759E+04  0.31302347238E+04  0.90048665596E+02 0.  0.
         11    1    3    3    0    0 -0.37911635385E+02  0.94231116449E+03  0.43831180279E+03  0.10399542583E+04  0.00000000000E+00 0. -1.
        -11    1    3    3    0    0  0.41986589692E+02  0.19147496740E+04  0.83740267316E+03  0.20902804656E+04  0.00000000000E+00 0.  1.
         22    1    1    2    0    0 -0.40749543066E+01 -0.28570608385E+04 -0.76150095837E+03  0.29568051930E+04  0.00000000000E+00 0. -1.
<mgrwt>
<rscale>  0 0.60652815E+04</rscale>
<asrwt>0</asrwt>
<pdfrwt beam="1">  1        2 0.50778872E+00 0.60652815E+04</pdfrwt>
<pdfrwt beam="2">  1       -2 0.42867896E+00 0.60652815E+04</pdfrwt>
<totfact> 0.35865318E-03</totfact>
</mgrwt>
</event>
<event>
 6    1  0.1588846E-005  0.1794639E+04  0.7818608E-02  0.8709155E-01
          2   -1    0    0  501    0  0.00000000000E+00  0.00000000000E+00  0.11492404555E+04  0.11492404555E+04  0.00000000000E+00 0.  1.
         -2   -1    0    0    0  501 -0.00000000000E+00 -0.00000000000E+00 -0.70062150038E+03  0.70062150038E+03  0.00000000000E+00 0. -1.
         23    2    1    2    0    0 -0.21170121983E+03  0.35010043828E+03  0.10454388312E+04  0.11262725088E+04  0.90331006916E+02 0.  0.
         13    1    3    3    0    0 -0.10760548159E+03  0.20585440737E+03  0.47520835485E+03  0.52894040989E+03  0.00000000000E+00 0.  1.
        -13    1    3    3    0    0 -0.10409573824E+03  0.14424603090E+03  0.57023047639E+03  0.59733209888E+03  0.00000000000E+00 0. -1.
         22    1    1    2    0    0  0.21170121983E+03 -0.35010043828E+03 -0.59681987614E+03  0.72358944707E+03  0.00000000000E+00 0. -1.
<mgrwt>
<rscale>  0 0.17946393E+04</rscale>
<asrwt>0</asrwt>
<pdfrwt beam="1">  1        2 0.17680622E+00 0.17946393E+04</pdfrwt>
<pdfrwt beam="2">  1       -2 0.10778792E+00 0.17946393E+04</pdfrwt>
<totfact> 0.13249380E+01</totfact>
</mgrwt>
</event>
<event>
 6    1  0.1588846E-005  0.4274641E+04  0.7818608E-02  0.7951324E-01
          2   -1    0    0  501    0  0.00000000000E+00  0.00000000000E+00  0.23959298724E+04  0.23959298724E+04  0.00000000000E+00 0. -1.
         -2   -1    0    0    0  501 -0.00000000000E+00 -0.00000000000E+00 -0.19066250325E+04  0.19066250325E+04  0.00000000000E+00 0.  1.
         23    2    1    2    0    0 -0.80811683496E+03  0.13321890280E+04  0.17158421493E+04  0.23195838520E+04  0.92598811568E+02 0.  0.
         13    1    3    3    0    0 -0.50322066580E+03  0.89988493298E+03  0.11698360160E+04  0.15593396793E+04  0.00000000000E+00 0.  1.
        -13    1    3    3    0    0 -0.30489616916E+03  0.43230409502E+03  0.54600613330E+03  0.76024417271E+03  0.00000000000E+00 0. -1.
         22    1    1    2    0    0  0.80811683496E+03 -0.13321890280E+04 -0.12265373094E+04  0.19829710529E+04  0.00000000000E+00 0.  1.
<mgrwt>
<rscale>  0 0.42746414E+04</rscale>
<asrwt>0</asrwt>
<pdfrwt beam="1">  1        2 0.36860459E+00 0.42746414E+04</pdfrwt>
<pdfrwt beam="2">  1       -2 0.29332693E+00 0.42746414E+04</pdfrwt>
<totfact> 0.10768702E-01</totfact>
</mgrwt>
</event>
<event>
 6    1  0.1588846E-005  0.1998968E+04  0.7818608E-02  0.8607103E-01
          1   -1    0    0  501    0  0.00000000000E+00  0.00000000000E+00  0.22475238474E+04  0.22475238474E+04  0.00000000000E+00 0. -1.
         -1   -1    0    0    0  501 -0.00000000000E+00 -0.00000000000E+00 -0.44447514722E+03  0.44447514722E+03  0.00000000000E+00 0.  1.
         23    2    1    2    0    0 -0.76142984968E+03  0.55317837832E+03  0.13480166563E+04  0.16466110785E+04  0.91637350156E+02 0.  0.
         11    1    3    3    0    0 -0.21045705877E+03  0.17532717616E+03  0.45938565231E+03  0.53485228787E+03  0.00000000000E+00 0. -1.
        -11    1    3    3    0    0 -0.55097279091E+03  0.37785120217E+03  0.88863100401E+03  0.11117587906E+04  0.00000000000E+00 0.  1.
         22    1    1    2    0    0  0.76142984968E+03 -0.55317837832E+03  0.45503204390E+03  0.10453879161E+04  0.00000000000E+00 0.  1.
<mgrwt>
<rscale>  0 0.19989682E+04</rscale>
<asrwt>0</asrwt>
<pdfrwt beam="1">  1        1 0.34577289E+00 0.19989682E+04</pdfrwt>
<pdfrwt beam="2">  1       -1 0.68380793E-01 0.19989682E+04</pdfrwt>
<totfact> 0.40604655E+00</totfact>
</mgrwt>
</event>
<event>
 6    1  0.1588846E-005  0.3415724E+04  0.7818608E-02  0.8134058E-01
          4   -1    0    0  501    0  0.00000000000E+00  0.00000000000E+00  0.17049364539E+04  0.17049364539E+04  0.00000000000E+00 0. -1.
         -4   -1    0    0    0  501 -0.00000000000E+00 -0.00000000000E+00 -0.17107927581E+04  0.17107927581E+04  0.00000000000E+00 0.  1.
         23    2    1    2    0    0  0.56217497582E+03  0.13290834589E+04  0.90821292702E+03  0.17075061283E+04  0.90680279337E+02 0.  0.
         11    1    3    3    0    0  0.72920924436E+02  0.24043403625E+03  0.18423224820E+03  0.31155658922E+03  0.00000000000E+00 0.  1.
        -11    1    3    3    0    0  0.48925405139E+03  0.10886494227E+04  0.72398067882E+03  0.13959495391E+04  0.00000000000E+00 0. -1.
         22    1    1    2    0    0 -0.56217497582E+03 -0.13290834589E+04 -0.91406923120E+03  0.17082230837E+04  0.00000000000E+00 0.  1.
<mgrwt>
<rscale>  0 0.34157242E+04</rscale>
<asrwt>0</asrwt>
<pdfrwt beam="1">  1        4 0.26229792E+00 0.34157242E+04</pdfrwt>
<pdfrwt beam="2">  1       -4 0.26319889E+00 0.34157242E+04</pdfrwt>
<totfact> 0.45227968E-03</totfact>
</mgrwt>
</event>
<event>
 6    1  0.1588846E-005  0.2670957E+04  0.7818608E-02  0.8344490E-01
         -2   -1    0    0    0  501 -0.00000000000E+00  0.00000000000E+00  0.28553043071E+04  0.28553043071E+04  0.00000000000E+00 0.  1.
          2   -1    0    0  501    0  0.00000000000E+00 -0.00000000000E+00 -0.62462816363E+03  0.62462816363E+03  0.00000000000E+00 0. -1.
         23    2    1    2    0    0  0.10325763019E+04  0.29467497731E+03  0.21476518531E+04  0.24029272738E+04  0.92756883650E+02 0.  0.
         13    1    3    3    0    0  0.51009675221E+03  0.97956049971E+02  0.10190685089E+04  0.11438071123E+04  0.00000000000E+00 0.  1.
        -13    1    3    3    0    0  0.52247954969E+03  0.19671892734E+03  0.11285833442E+04  0.12591201615E+04  0.00000000000E+00 0. -1.
         22    1    1    2    0    0 -0.10325763019E+04 -0.29467497731E+03  0.83024290388E+02  0.10770051970E+04  0.00000000000E+00 0.  1.
<mgrwt>
<rscale>  0 0.26709575E+04</rscale>
<asrwt>0</asrwt>
<pdfrwt beam="1">  1        2 0.96096642E-01 0.26709575E+04</pdfrwt>
<pdfrwt beam="2">  1       -2 0.43927758E+00 0.26709575E+04</pdfrwt>
<totfact> 0.16956776E-01</totfact>
</mgrwt>
</event>
<event>
 6    1  0.1588846E-005  0.2138829E+04  0.7818608E-02  0.8544329E-01
         -2   -1    0    0    0  501 -0.00000000000E+00  0.00000000000E+00  0.17019826113E+04  0.17019826113E+04  0.00000000000E+00 0. -1.
          2   -1    0    0  501    0  0.00000000000E+00 -0.00000000000E+00 -0.67194995363E+03  0.67194995363E+03  0.00000000000E+00 0.  1.
         23    2    1    2    0    0 -0.61355982349E+03 -0.68926932308E+03 -0.79564825145E+02  0.93075744368E+03  0.91820481571E+02 0.  0.
         11    1    3    3    0    0 -0.33336568326E+03 -0.33765043159E+03 -0.18977597649E+01  0.47449351336E+03  0.00000000000E+00 0. -1.
        -11    1    3    3    0    0 -0.28019414023E+03 -0.35161889149E+03 -0.77667065380E+02  0.45626393033E+03  0.00000000000E+00 0.  1.
         22    1    1    2    0    0  0.61355982349E+03  0.68926932308E+03  0.11095974828E+04  0.14431751213E+04  0.00000000000E+00 0.  1.
<mgrwt>
<rscale>  0 0.21388288E+04</rscale>
<asrwt>0</asrwt>
<pdfrwt beam="1">  1        2 0.10337692E+00 0.21388288E+04</pdfrwt>
<pdfrwt beam="2">  1       -2 0.26184348E+00 0.21388288E+04</pdfrwt>
<totfact> 0.21542923E+00</totfact>
</mgrwt>
</event>
<event>
 6    1  0.1588846E-005  0.3317763E+04  0.7818608E-02  0.8158390E-01
          2   -1    0    0  501    0  0.00000000000E+00  0.00000000000E+00  0.23870053949E+04  0.23870053949E+04  0.00000000000E+00 0. -1.
         -2   -1    0    0    0  501 -0.00000000000E+00 -0.00000000000E+00 -0.11528620074E+04  0.11528620074E+04  0.00000000000E+00 0.  1.
         23    2    1    2    0    0  0.12349793803E+04  0.78667596637E+03 -0.21171128968E+03  0.14820703050E+04  0.87621761304E+02 0.  0.
         11    1    3    3    0    0  0.30750863191E+03  0.22254426824E+03 -0.86413341786E+02  0.38930036690E+03  0.00000000000E+00 0. -1.
        -11    1    3    3    0    0  0.92747074838E+03  0.56413169813E+03 -0.12529794789E+03  0.10927699381E+04  0.00000000000E+00 0.  1.
         22    1    1    2    0    0 -0.12349793803E+04 -0.78667596637E+03  0.14458546772E+04  0.20577970972E+04  0.00000000000E+00 0. -1.
<mgrwt>
<rscale>  0 0.33177630E+04</rscale>
<asrwt>0</asrwt>
<pdfrwt beam="1">  1        2 0.36723160E+00 0.33177630E+04</pdfrwt>
<pdfrwt beam="2">  1       -2 0.17736339E+00 0.33177630E+04</pdfrwt>
<totfact> 0.63788525E-01</totfact>
</mgrwt>
</event>
<event>
 6    1  0.1588846E-005  0.1251694E+04  0.7818608E-02  0.9068775E-01
         -1   -1    0    0    0  501 -0.00000000000E+00  0.00000000000E+00  0.63323646311E+03  0.63323646311E+03  0.00000000000E+00 0.  1.
          1   -1    0    0  501    0  0.00000000000E+00 -0.00000000000E+00 -0.61854330226E+03  0.61854330226E+03  0.00000000000E+00 0. -1.
         23    2    1    2    0    0  0.21337310815E+01  0.42308954814E+03  0.46395877549E+03  0.63465019142E+03  0.92270263670E+02 0.  0.
         11    1    3    3    0    0 -0.13499768546E+02  0.10816532547E+03  0.67969998550E+02  0.12845972944E+03  0.00000000000E+00 0. -1.
        -11    1    3    3    0    0  0.15633499628E+02  0.31492422267E+03  0.39598877694E+03  0.50619046198E+03  0.00000000000E+00 0.  1.
         22    1    1    2    0    0 -0.21337310815E+01 -0.42308954814E+03 -0.44926561464E+03  0.61712957396E+03  0.00000000000E+00 0.  1.
<mgrwt>
<rscale>  0 0.12516935E+04</rscale>
<asrwt>0</asrwt>
<pdfrwt beam="1">  1        1 0.95160508E-01 0.12516935E+04</pdfrwt>
<pdfrwt beam="2">  1       -1 0.97420994E-01 0.12516935E+04</pdfrwt>
<totfact> 0.32699617E+01</totfact>
</mgrwt>
</event>
<event>
 6    1  0.1588846E-005  0.2960304E+04  0.7818608E-02  0.8255158E-01
          2   -1    0    0  501    0  0.00000000000E+00  0.00000000000E+00  0.26771280349E+04  0.26771280349E+04  0.00000000000E+00 0. -1.
         -2   -1    0    0    0  501 -0.00000000000E+00 -0.00000000000E+00 -0.81835824228E+03  0.81835824228E+03  0.00000000000E+00 0.  1.
         23    2    1    2    0    0  0.43439217361E+03 -0.12434824533E+04  0.17239843986E+04  0.21714348150E+04  0.89787399340E+02 0.  0.
         11    1    3    3    0    0  0.27130933949E+03 -0.88681884279E+03  0.11799353730E+04  0.15007677709E+04  0.00000000000E+00 0.  1.
        -11    1    3    3    0    0  0.16308283413E+03 -0.35666361051E+03  0.54404902556E+03  0.67066704411E+03  0.00000000000E+00 0. -1.
         22    1    1    2    0    0 -0.43439217361E+03  0.12434824533E+04  0.13478539409E+03  0.13240514622E+04  0.00000000000E+00 0.  1.
<mgrwt>
<rscale>  0 0.29603039E+04</rscale>
<asrwt>0</asrwt>
<pdfrwt beam="1">  1        2 0.41186585E+00 0.29603039E+04</pdfrwt>
<pdfrwt beam="2">  1       -2 0.12590127E+00 0.29603039E+04</pdfrwt>
<totfact> 0.11077266E+00</totfact>
</mgrwt>
</event>
<event>
 6    1  0.1588846E-005  0.8055897E+03  0.7818608E-02  0.9551961E-01
          2   -1    0    0  501    0  0.00000000000E+00  0.00000000000E+00  0.31266182690E+03  0.31266182690E+03  0.00000000000E+00 0.  1.
         -2   -1    0    0    0  501 -0.00000000000E+00 -0.00000000000E+00 -0.51891112179E+03  0.51891112179E+03  0.00000000000E+00 0. -1.
         23    2    1    2    0    0  0.18790995459E+03 -0.11010991716E+03 -0.44777844464E+03  0.50634891042E+03  0.91920284545E+02 0.  0.
         11    1    3    3    0    0  0.11856417870E+03 -0.11108031078E+03 -0.26481028316E+03  0.31067794576E+03  0.00000000000E+00 0.  1.
        -11    1    3    3    0    0  0.69345775892E+02  0.97039361648E+00 -0.18296816148E+03  0.19567096466E+03  0.00000000000E+00 0. -1.
         22    1    1    2    0    0 -0.18790995459E+03  0.11010991716E+03  0.24152914975E+03  0.32522403827E+03  0.00000000000E+00 0.  1.
<mgrwt>
<rscale>  0 0.80558972E+03</rscale>
<asrwt>0</asrwt>
<pdfrwt beam="1">  1        2 0.48101820E-01 0.80558972E+03</pdfrwt>
<pdfrwt beam="2">  1       -2 0.79832479E-01 0.80558972E+03</pdfrwt>
<totfact> 0.14668633E+02</totfact>
</mgrwt>
</event>
<event>
 6    1  0.1588846E-005  0.2428286E+04  0.7818608E-02  0.8428989E-01
          1   -1    0    0  501    0  0.00000000000E+00  0.00000000000E+00  0.13353916391E+04  0.13353916391E+04  0.00000000000E+00 0. -1.
         -1   -1    0    0    0  501 -0.00000000000E+00 -0.00000000000E+00 -0.11039029803E+04  0.11039029803E+04  0.00000000000E+00 0.  1.
         23    2    1    2    0    0  0.51220842093E+03  0.10142129132E+04 -0.30940773729E+03  0.11809011154E+04  0.88368527670E+02 0.  0.
         11    1    3    3    0    0  0.18523152811E+03  0.43849211057E+03 -0.99183768637E+02  0.48623396632E+03  0.00000000000E+00 0.  1.
        -11    1    3    3    0    0  0.32697689282E+03  0.57572080263E+03 -0.21022396865E+03  0.69466714908E+03  0.00000000000E+00 0. -1.
         22    1    1    2    0    0 -0.51220842093E+03 -0.10142129132E+04  0.54089639610E+03  0.12583935041E+04  0.00000000000E+00 0. -1.
<mgrwt>
<rscale>  0 0.24282857E+04</rscale>
<asrwt>0</asrwt>
<pdfrwt beam="1">  1        1 0.20544487E+00 0.24282857E+04</pdfrwt>
<pdfrwt beam="2">  1       -1 0.16983123E+00 0.24282857E+04</pdfrwt>
<totfact> 0.18828604E+00</totfact>
</mgrwt>
</event>
<event>
 6    1  0.1588846E-005  0.2214406E+04  0.7818608E-02  0.8512456E-01
          2   -1    0    0  501    0  0.00000000000E+00  0.00000000000E+00  0.25806409214E+04  0.25806409214E+04  0.00000000000E+00 0.  1.
         -2   -1    0    0    0  501 -0.00000000000E+00 -0.00000000000E+00 -0.47503661519E+03  0.47503661519E+03  0.00000000000E+00 0. -1.
         23    2    1    2    0    0  0.10998175609E+04 -0.48758552016E+02  0.91949376144E+03  0.14373962607E+04  0.93076147984E+02 0.  0.
         13    1    3    3    0    0  0.41515389906E+03 -0.63334632209E+02  0.35613711611E+03  0.55063389018E+03  0.00000000000E+00 0.  1.
        -13    1    3    3    0    0  0.68466366180E+03  0.14576080192E+02  0.56335664533E+03  0.88676237050E+03  0.00000000000E+00 0. -1.
         22    1    1    2    0    0 -0.10998175609E+04  0.48758552016E+02  0.11861105448E+04  0.16182812759E+04  0.00000000000E+00 0.  1.
<mgrwt>
<rscale>  0 0.22144064E+04</rscale>
<asrwt>0</asrwt>
<pdfrwt beam="1">  1        2 0.39702167E+00 0.22144064E+04</pdfrwt>
<pdfrwt beam="2">  1       -2 0.73082558E-01 0.22144064E+04</pdfrwt>
<totfact> 0.48236342E+00</totfact>
</mgrwt>
</event>
<event>
 6    1  0.1588846E-005  0.2041888E+04  0.7818608E-02  0.8587283E-01
         -2   -1    0    0    0  501 -0.00000000000E+00  0.00000000000E+00  0.80450782357E+03  0.80450782357E+03  0.00000000000E+00 0.  1.
          2   -1    0    0  501    0  0.00000000000E+00 -0.00000000000E+00 -0.12956082437E+04  0.12956082437E+04  0.00000000000E+00 0. -1.
         23    2    1    2    0    0 -0.92000802811E+03  0.37768604150E+03 -0.18153172867E+02  0.99887103715E+03  0.91390882715E+02 0.  0.
         11    1    3    3    0    0 -0.90233685814E+02  0.39713480294E+02  0.25545678224E+02  0.10184233034E+03  0.00000000000E+00 0.  1.
        -11    1    3    3    0    0 -0.82977434230E+03  0.33797256121E+03 -0.43698851092E+02  0.89702870681E+03  0.00000000000E+00 0. -1.
         22    1    1    2    0    0  0.92000802811E+03 -0.37768604150E+03 -0.47294724730E+03  0.11012450302E+04  0.00000000000E+00 0. -1.
<mgrwt>
<rscale>  0 0.20418883E+04</rscale>
<asrwt>0</asrwt>
<pdfrwt beam="1">  1        2 0.19932434E+00 0.20418883E+04</pdfrwt>
<pdfrwt beam="2">  1       -2 0.12377044E+00 0.20418883E+04</pdfrwt>
<totfact> 0.75694930E+00</totfact>
</mgrwt>
</event>
<event>
 6    1  0.1588846E-005  0.1310986E+04  0.7818608E-02  0.9020898E-01
         -1   -1    0    0    0  501 -0.00000000000E+00  0.00000000000E+00  0.49647948843E+03  0.49647948843E+03  0.00000000000E+00 0.  1.
          1   -1    0    0  501    0  0.00000000000E+00 -0.00000000000E+00 -0.86543591909E+03  0.86543591909E+03  0.00000000000E+00 0. -1.
         23    2    1    2    0    0  0.14395440770E+03  0.47822956265E+03  0.25052748178E+03  0.56618511159E+03  0.91515984231E+02 0.  0.
         11    1    3    3    0    0  0.75825618174E+02  0.37930373704E+03  0.20461405860E+03  0.43759314697E+03  0.00000000000E+00 0.  1.
        -11    1    3    3    0    0  0.68128789527E+02  0.98925825610E+02  0.45913423181E+02  0.12859196461E+03  0.00000000000E+00 0. -1.
         22    1    1    2    0    0 -0.14395440770E+03 -0.47822956265E+03 -0.61948391244E+03  0.79573029593E+03  0.00000000000E+00 0. -1.
<mgrwt>
<rscale>  0 0.13109862E+04</rscale>
<asrwt>0</asrwt>
<pdfrwt beam="1">  1        1 0.13314399E+00 0.13109862E+04</pdfrwt>
<pdfrwt beam="2">  1       -1 0.76381460E-01 0.13109862E+04</pdfrwt>
<totfact> 0.32845442E+01</totfact>
</mgrwt>
</event>
<event>
 6    1  0.1588846E-005  0.4104270E+04  0.7818608E-02  0.7983836E-01
          1   -1    0    0  501    0  0.00000000000E+00  0.00000000000E+00  0.27644811926E+04  0.27644811926E+04  0.00000000000E+00 0. -1.
         -1   -1    0    0    0  501 -0.00000000000E+00 -0.00000000000E+00 -0.15233449958E+04  0.15233449958E+04  0.00000000000E+00 0.  1.
         23    2    1    2    0    0  0.99368451194E+02 -0.18947833697E+04 -0.19318623364E+03  0.19093058624E+04  0.89720946755E+02 0.  0.
         13    1    3    3    0    0  0.70237794009E+02 -0.56228048868E+03 -0.52283797411E+02  0.56905737068E+03  0.00000000000E+00 0. -1.
        -13    1    3    3    0    0  0.29130657185E+02 -0.13325028810E+04 -0.14090243623E+03  0.13402484917E+04  0.00000000000E+00 0.  1.
         22    1    1    2    0    0 -0.99368451194E+02  0.18947833697E+04  0.14343224304E+04  0.23785203261E+04  0.00000000000E+00 0. -1.
<mgrwt>
<rscale>  0 0.41042703E+04</rscale>
<asrwt>0</asrwt>
<pdfrwt beam="1">  1        1 0.42530480E+00 0.41042703E+04</pdfrwt>
<pdfrwt beam="2">  1       -1 0.23436077E+00 0.41042703E+04</pdfrwt>
<totfact> 0.60534823E-02</totfact>
</mgrwt>
</event>
<event>
 6    1  0.1588846E-005  0.1365418E+04  0.7818608E-02  0.8979238E-01
         -1   -1    0    0    0  501 -0.00000000000E+00  0.00000000000E+00  0.35311549196E+03  0.35311549196E+03  0.00000000000E+00 0.  1.
          1   -1    0    0  501    0  0.00000000000E+00 -0.00000000000E+00 -0.13199415719E+04  0.13199415719E+04  0.00000000000E+00 0. -1.
         23    2    1    2    0    0  0.32651800277E+03  0.58681414562E+03 -0.61516722893E+03  0.91501432421E+03  0.88632084098E+02 0.  0.
         11    1    3    3    0    0  0.18738123472E+03  0.40138733298E+03 -0.36528177140E+03  0.57415528450E+03  0.00000000000E+00 0.  1.
        -11    1    3    3    0    0  0.13913676805E+03  0.18542681264E+03 -0.24988545753E+03  0.34085903971E+03  0.00000000000E+00 0. -1.
         22    1    1    2    0    0 -0.32651800277E+03 -0.58681414562E+03 -0.35165885099E+03  0.75804273964E+03  0.00000000000E+00 0. -1.
<mgrwt>
<rscale>  0 0.13654183E+04</rscale>
<asrwt>0</asrwt>
<pdfrwt beam="1">  1        1 0.20306794E+00 0.13654183E+04</pdfrwt>
<pdfrwt beam="2">  1       -1 0.54325460E-01 0.13654183E+04</pdfrwt>
<totfact> 0.29283668E+01</totfact>
</mgrwt>
</event>
<event>
 6    1  0.1588846E-005  0.7583426E+03  0.7818608E-02  0.9622352E-01
         -1   -1    0    0    0  501 -0.00000000000E+00  0.00000000000E+00  0.66383172534E+02  0.66383172534E+02  0.00000000000E+00 0.  1.
          1   -1    0    0  501    0  0.00000000000E+00 -0.00000000000E+00 -0.21657730416E+04  0.21657730416E+04  0.00000000000E+00 0. -1.
         23    2    1    2    0    0 -0.24271900716E+02  0.37177561572E+03 -0.11977998022E+04  0.12566200117E+04  0.74587224244E+02 0.  0.
         13    1    3    3    0    0  0.21358364653E+02  0.15939163938E+03 -0.44815314745E+03  0.47613350861E+03  0.00000000000E+00 0. -1.
        -13    1    3    3    0    0 -0.45630265369E+02  0.21238397634E+03 -0.74964665472E+03  0.78048650306E+03  0.00000000000E+00 0.  1.
         22    1    1    2    0    0  0.24271900716E+02 -0.37177561572E+03 -0.90159006689E+03  0.97553620247E+03  0.00000000000E+00 0.  1.
<mgrwt>
<rscale>  0 0.75834263E+03</rscale>
<asrwt>0</asrwt>
<pdfrwt beam="1">  1        1 0.33319581E+00 0.75834263E+03</pdfrwt>
<pdfrwt beam="2">  1       -1 0.10212797E-01 0.75834263E+03</pdfrwt>
<totfact> 0.14488392E+02</totfact>
</mgrwt>
</event>
<event>
 6    1  0.1588846E-005  0.1454937E+04  0.7818608E-02  0.8914985E-01
         -1   -1    0    0    0  501 -0.00000000000E+00  0.00000000000E+00  0.27313380133E+03  0.27313380133E+03  0.00000000000E+00 0.  1.
          1   -1    0    0  501    0  0.00000000000E+00 -0.00000000000E+00 -0.19375505796E+04  0.19375505796E+04  0.00000000000E+00 0. -1.
         23    2    1    2    0    0 -0.43121821119E+03 -0.44658492662E+03 -0.14037254008E+04  0.15373737271E+04  0.87668314402E+02 0.  0.
         13    1    3    3    0    0 -0.11409037302E+03 -0.84803993232E+02 -0.39482653009E+03  0.41963831969E+03  0.00000000000E+00 0. -1.
        -13    1    3    3    0    0 -0.31712783817E+03 -0.36178093339E+03 -0.10088988707E+04  0.11177354074E+04  0.00000000000E+00 0.  1.
         22    1    1    2    0    0  0.43121821119E+03  0.44658492662E+03 -0.26069137745E+03  0.67331065388E+03  0.00000000000E+00 0.  1.
<mgrwt>
<rscale>  0 0.14549372E+04</rscale>
<asrwt>0</asrwt>
<pdfrwt beam="1">  1        1 0.29808471E+00 0.14549372E+04</pdfrwt>
<pdfrwt beam="2">  1       -1 0.42020585E-01 0.14549372E+04</pdfrwt>
<totfact> 0.17753707E+01</totfact>
</mgrwt>
</event>
<event>
 6    1  0.1588846E-005  0.6324070E+04  0.7818608E-02  0.7651470E-01
          2   -1    0    0  501    0  0.00000000000E+00  0.00000000000E+00  0.22011393473E+04  0.22011393473E+04  0.00000000000E+00 0. -1.
         -2   -1    0    0    0  501 -0.00000000000E+00 -0.00000000000E+00 -0.45424043611E+04  0.45424043611E+04  0.00000000000E+00 0.  1.
         23    2    1    2    0    0 -0.13742209458E+04  0.51422360114E+02  0.18645205160E+04  0.23186415186E+04  0.92381114956E+02 0.  0.
         11    1    3    3    0    0 -0.88005036213E+03  0.20160470593E+01  0.11377402454E+04  0.14383829707E+04  0.00000000000E+00 0. -1.
        -11    1    3    3    0    0 -0.49417058367E+03  0.49406313055E+02  0.72678027063E+03  0.88025854799E+03  0.00000000000E+00 0.  1.
         22    1    1    2    0    0  0.13742209458E+04 -0.51422360114E+02 -0.42057855297E+04  0.44249021898E+04  0.00000000000E+00 0.  1.
<mgrwt>
<rscale>  0 0.63240699E+04</rscale>
<asrwt>0</asrwt>
<pdfrwt beam="1">  1        2 0.33863682E+00 0.63240699E+04</pdfrwt>
<pdfrwt beam="2">  1       -2 0.69883144E+00 0.63240699E+04</pdfrwt>
<totfact> 0.79390896E-04</totfact>
</mgrwt>
</event>
<event>
 6    1  0.1588846E-005  0.3491638E+04  0.7818608E-02  0.8115774E-01
         -2   -1    0    0    0  501 -0.00000000000E+00  0.00000000000E+00  0.11525812210E+04  0.11525812210E+04  0.00000000000E+00 0.  1.
          2   -1    0    0  501    0  0.00000000000E+00 -0.00000000000E+00 -0.26443984343E+04  0.26443984343E+04  0.00000000000E+00 0. -1.
         23    2    1    2    0    0  0.44166571424E+03  0.23255149670E+03 -0.25643226818E+04  0.26140101791E+04  0.90275125034E+02 0.  0.
         11    1    3    3    0    0  0.28872327957E+03  0.19499253404E+03 -0.18519959943E+04  0.18844819934E+04  0.00000000000E+00 0. -1.
        -11    1    3    3    0    0  0.15294243467E+03  0.37558962655E+02 -0.71232668749E+03  0.72952818569E+03  0.00000000000E+00 0.  1.
         22    1    1    2    0    0 -0.44166571424E+03 -0.23255149670E+03  0.10725054685E+04  0.11829694762E+04  0.00000000000E+00 0.  1.
<mgrwt>
<rscale>  0 0.34916380E+04</rscale>
<asrwt>0</asrwt>
<pdfrwt beam="1">  1        2 0.40683053E+00 0.34916380E+04</pdfrwt>
<pdfrwt beam="2">  1       -2 0.17732019E+00 0.34916380E+04</pdfrwt>
<totfact> 0.44580456E-01</totfact>
</mgrwt>
</event>
<event>
 6    1  0.1588846E-005  0.4065174E+04  0.7818608E-02  0.7991526E-01
         -2   -1    0    0    0  501 -0.00000000000E+00  0.00000000000E+00  0.98317048228E+03  0.98317048228E+03  0.00000000000E+00 0.  1.
          2   -1    0    0  501    0  0.00000000000E+00 -0.00000000000E+00 -0.42021293109E+04  0.42021293109E+04  0.00000000000E+00 0. -1.
         23    2    1    2    0    0  0.16628399050E+04  0.76278840366E+03 -0.27370959148E+04  0.32934555697E+04  0.90955177499E+02 0.  0.
         11    1    3    3    0    0  0.72560470477E+03  0.38162470119E+03 -0.12090308491E+04  0.14607858140E+04  0.00000000000E+00 0.  1.
        -11    1    3    3    0    0  0.93723520019E+03  0.38116370246E+03 -0.15280650657E+04  0.18326697557E+04  0.00000000000E+00 0. -1.
         22    1    1    2    0    0 -0.16628399050E+04 -0.76278840366E+03 -0.48186291383E+03  0.18918442235E+04  0.00000000000E+00 0.  1.
<mgrwt>
<rscale>  0 0.40651738E+04</rscale>
<asrwt>0</asrwt>
<pdfrwt beam="1">  1        2 0.64648145E+00 0.40651738E+04</pdfrwt>
<pdfrwt beam="2">  1       -2 0.15125699E+00 0.40651738E+04</pdfrwt>
<totfact> 0.52984003E-02</totfact>
</mgrwt>
</event>
<event>
 6    1  0.1588846E-005  0.4294110E+04  0.7818608E-02  0.7947708E-01
         -1   -1    0    0    0  501 -0.00000000000E+00  0.00000000000E+00  0.21416554635E+04  0.21416554635E+04  0.00000000000E+00 0.  1.
          1   -1    0    0  501    0  0.00000000000E+00 -0.00000000000E+00 -0.21524678757E+04  0.21524678757E+04  0.00000000000E+00 0. -1.
         23    2    1    2    0    0  0.12969351472E+04  0.12396231523E+04 -0.11831244821E+04  0.21509896699E+04  0.90921306554E+02 0.  0.
         11    1    3    3    0    0  0.81560448467E+03  0.82315833128E+03 -0.79934796340E+03  0.14077490829E+04  0.00000000000E+00 0. -1.
        -11    1    3    3    0    0  0.48133066253E+03  0.41646482099E+03 -0.38377651871E+03  0.74324058698E+03  0.00000000000E+00 0.  1.
         22    1    1    2    0    0 -0.12969351472E+04 -0.12396231523E+04  0.11723120699E+04  0.21431336694E+04  0.00000000000E+00 0.  1.
<mgrwt>
<rscale>  0 0.42941097E+04</rscale>
<asrwt>0</asrwt>
<pdfrwt beam="1">  1        1 0.33114890E+00 0.42941097E+04</pdfrwt>
<pdfrwt beam="2">  1       -1 0.32948546E+00 0.42941097E+04</pdfrwt>
<totfact> 0.38049506E-02</totfact>
</mgrwt>
</event>
<event>
 6    1  0.1588846E-005  0.6720918E+03  0.7818608E-02  0.9766186E-01
          2   -1    0    0  501    0  0.00000000000E+00  0.00000000000E+00  0.87634553270E+03  0.87634553270E+03  0.00000000000E+00 0. -1.
         -2   -1    0    0    0  501 -0.00000000000E+00 -0.00000000000E+00 -0.12886107880E+03  0.12886107880E+03  0.00000000000E+00 0.  1.
         23    2    1    2    0    0  0.12089245583E+03 -0.97353191316E+02 -0.54033799819E+02  0.18879731415E+03  0.92909335220E+02 0.  0.
         11    1    3    3    0    0  0.10568445733E+03 -0.89195779103E+02 -0.67449920278E+01  0.13845788691E+03  0.00000000000E+00 0. -1.
        -11    1    3    3    0    0  0.15207998506E+02 -0.81574122133E+01 -0.47288807792E+02  0.50339427241E+02  0.00000000000E+00 0.  1.
         22    1    1    2    0    0 -0.12089245583E+03  0.97353191316E+02  0.80151825372E+03  0.81640929734E+03  0.00000000000E+00 0. -1.
<mgrwt>
<rscale>  0 0.67209175E+03</rscale>
<asrwt>0</asrwt>
<pdfrwt beam="1">  1        2 0.13482239E+00 0.67209175E+03</pdfrwt>
<pdfrwt beam="2">  1       -2 0.19824782E-01 0.67209175E+03</pdfrwt>
<totfact> 0.66369793E+02</totfact>
</mgrwt>
</event>
<event>
 6    1  0.1588846E-005  0.2397405E+04  0.7818608E-02  0.8440476E-01
         -2   -1    0    0    0  501 -0.00000000000E+00  0.00000000000E+00  0.56001800190E+03  0.56001800190E+03  0.00000000000E+00 0.  1.
          2   -1    0    0  501    0  0.00000000000E+00 -0.00000000000E+00 -0.25657886859E+04  0.25657886859E+04  0.00000000000E+00 0. -1.
         23    2    1    2    0    0 -0.11133367281E+04 -0.43769156899E+03 -0.94790569117E+03  0.15288812285E+04  0.88656819722E+02 0.  0.
         11    1    3    3    0    0 -0.36161301689E+03 -0.14846465784E+03 -0.25811787003E+03  0.46843416127E+03  0.00000000000E+00 0. -1.
        -11    1    3    3    0    0 -0.75172371120E+03 -0.28922691116E+03 -0.68978782114E+03  0.10604470672E+04  0.00000000000E+00 0.  1.
         22    1    1    2    0    0  0.11133367281E+04  0.43769156899E+03 -0.10578649929E+04  0.15969254594E+04  0.00000000000E+00 0. -1.
<mgrwt>
<rscale>  0 0.23974051E+04</rscale>
<asrwt>0</asrwt>
<pdfrwt beam="1">  1        2 0.39473671E+00 0.23974051E+04</pdfrwt>
<pdfrwt beam="2">  1       -2 0.86156618E-01 0.23974051E+04</pdfrwt>
<totfact> 0.33487177E+00</totfact>
</mgrwt>
</event>
<event>
 6    1  0.1588846E-005  0.1464867E+04  0.7818608E-02  0.8908158E-01
         -3   -1    0    0    0  501 -0.00000000000E+00  0.00000000000E+00  0.12014615423E+04  0.12014615423E+04  0.00000000000E+00 0.  1.
          3   -1    0    0  501    0  0.00000000000E+00 -0.00000000000E+00 -0.44650496023E+03  0.44650496023E+03  0.00000000000E+00 0. -1.
         23    2    1    2    0    0 -0.41347330618E+03  0.47095631192E+03  0.79973127195E+03  0.10196633945E+04  0.85926178677E+02 0.  0.
         11    1    3    3    0    0 -0.12025605926E+03  0.91354647324E+02  0.15910854908E+03  0.21936891705E+03  0.00000000000E+00 0. -1.
        -11    1    3    3    0    0 -0.29321724691E+03  0.37960166460E+03  0.64062272287E+03  0.80029447750E+03  0.00000000000E+00 0.  1.
         22    1    1    2    0    0  0.41347330618E+03 -0.47095631192E+03 -0.44774689875E+02  0.62830310799E+03  0.00000000000E+00 0. -1.
<mgrwt>
<rscale>  0 0.14648666E+04</rscale>
<asrwt>0</asrwt>
<pdfrwt beam="1">  1        3 0.68693071E-01 0.14648666E+04</pdfrwt>
<pdfrwt beam="2">  1       -3 0.18484024E+00 0.14648666E+04</pdfrwt>
<totfact> 0.94698642E-01</totfact>
</mgrwt>
</event>
<event>
 6    1  0.1588846E-005  0.5981428E+03  0.7818608E-02  0.9909267E-01
          2   -1    0    0  501    0  0.00000000000E+00  0.00000000000E+00  0.62431671022E+03  0.62431671022E+03  0.00000000000E+00 0. -1.
         -2   -1    0    0    0  501 -0.00000000000E+00 -0.00000000000E+00 -0.14326654864E+03  0.14326654864E+03  0.00000000000E+00 0.  1.
         23    2    1    2    0    0  0.72106247116E+02  0.27284316500E+03  0.34478912901E+03  0.45419887418E+03  0.88172389446E+02 0.  0.
         13    1    3    3    0    0  0.57344054624E+02  0.16085439449E+03  0.26738528249E+03  0.31726545056E+03  0.00000000000E+00 0. -1.
        -13    1    3    3    0    0  0.14762192492E+02  0.11198877051E+03  0.77403846524E+02  0.13693342362E+03  0.00000000000E+00 0.  1.
         22    1    1    2    0    0 -0.72106247116E+02 -0.27284316500E+03  0.13626103256E+03  0.31338438467E+03  0.00000000000E+00 0. -1.
<mgrwt>
<rscale>  0 0.59814279E+03</rscale>
<asrwt>0</asrwt>
<pdfrwt beam="1">  1        2 0.96048723E-01 0.59814279E+03</pdfrwt>
<pdfrwt beam="2">  1       -2 0.22041008E-01 0.59814279E+03</pdfrwt>
<totfact> 0.85312670E+02</totfact>
</mgrwt>
</event>
<event>
 6    1  0.1588846E-005  0.1861558E+04  0.7818608E-02  0.8674232E-01
         -2   -1    0    0    0  501 -0.00000000000E+00  0.00000000000E+00  0.25811689070E+03  0.25811689070E+03  0.00000000000E+00 0.  1.
          2   -1    0    0  501    0  0.00000000000E+00 -0.00000000000E+00 -0.33564233494E+04  0.33564233494E+04  0.00000000000E+00 0. -1.
         23    2    1    2    0    0  0.59252590784E+03 -0.58835368328E+03 -0.23401081505E+04  0.24866609546E+04  0.10064561090E+03 0.  0.
         13    1    3    3    0    0  0.45327127822E+03 -0.41887765129E+03 -0.16070370762E+04  0.17214765472E+04  0.00000000000E+00 0. -1.
        -13    1    3    3    0    0  0.13925462962E+03 -0.16947603199E+03 -0.73307107433E+03  0.76518440739E+03  0.00000000000E+00 0.  1.
         22    1    1    2    0    0 -0.59252590784E+03  0.58835368328E+03 -0.75819830818E+03  0.11278792855E+04  0.00000000000E+00 0.  1.
<mgrwt>
<rscale>  0 0.18615580E+04</rscale>
<asrwt>0</asrwt>
<pdfrwt beam="1">  1        2 0.51637284E+00 0.18615580E+04</pdfrwt>
<pdfrwt beam="2">  1       -2 0.39710290E-01 0.18615580E+04</pdfrwt>
<totfact> 0.57872629E+00</totfact>
</mgrwt>
</event>
<event>
 6    1  0.1588846E-005  0.5696893E+04  0.7818608E-02  0.7729163E-01
          2   -1    0    0  501    0  0.00000000000E+00  0.00000000000E+00  0.42038327700E+04  0.42038327700E+04  0.00000000000E+00 0. -1.
         -2   -1    0    0    0  501 -0.00000000000E+00 -0.00000000000E+00 -0.19300596450E+04  0.19300596450E+04  0.00000000000E+00 0.  1.
         23    2    1    2    0    0  0.11242184209E+03  0.23653864082E+04 -0.56573204978E+03  0.24365310359E+04  0.94547375651E+02 0.  0.
         13    1    3    3    0    0  0.80217892058E+02  0.90809393842E+03 -0.24579149764E+03  0.94418375940E+03  0.00000000000E+00 0. -1.
        -13    1    3    3    0    0  0.32203950036E+02  0.14572924698E+04 -0.31994055213E+03  0.14923472765E+04  0.00000000000E+00 0.  1.
         22    1    1    2    0    0 -0.11242184209E+03 -0.23653864082E+04  0.28395051748E+04  0.36973613792E+04  0.00000000000E+00 0. -1.
<mgrwt>
<rscale>  0 0.56968932E+04</rscale>
<asrwt>0</asrwt>
<pdfrwt beam="1">  1        2 0.64674350E+00 0.56968932E+04</pdfrwt>
<pdfrwt beam="2">  1       -2 0.29693225E+00 0.56968932E+04</pdfrwt>
<totfact> 0.52385008E-03</totfact>
</mgrwt>
</event>
<event>
 6    1  0.1588846E-005  0.2653837E+04  0.7818608E-02  0.8350140E-01
          1   -1    0    0  501    0  0.00000000000E+00  0.00000000000E+00  0.38551476037E+04  0.38551476037E+04  0.00000000000E+00 0. -1.
         -1   -1    0    0    0  501 -0.00000000000E+00 -0.00000000000E+00 -0.45671746295E+03  0.45671746295E+03  0.00000000000E+00 0.  1.
         23    2    1    2    0    0  0.22505559506E+03  0.13026582812E+04  0.15466603990E+04  0.20366464409E+04  0.90563332668E+02 0.  0.
         13    1    3    3    0    0  0.99991461736E+02  0.60134965663E+03  0.78263019333E+03  0.99203312518E+03  0.00000000000E+00 0. -1.
        -13    1    3    3    0    0  0.12506413333E+03  0.70130862453E+03  0.76403020568E+03  0.10446133158E+04  0.00000000000E+00 0.  1.
         22    1    1    2    0    0 -0.22505559506E+03 -0.13026582812E+04  0.18517697417E+04  0.22752186257E+04  0.00000000000E+00 0.  1.
<mgrwt>
<rscale>  0 0.26538374E+04</rscale>
<asrwt>0</asrwt>
<pdfrwt beam="1">  1        1 0.59309961E+00 0.26538374E+04</pdfrwt>
<pdfrwt beam="2">  1       -1 0.70264228E-01 0.26538374E+04</pdfrwt>
<totfact> 0.23000283E-01</totfact>
</mgrwt>
</event>
<event>
 6    1  0.1588846E-005  0.2085841E+04  0.7818608E-02  0.8567506E-01
         -2   -1    0    0    0  501 -0.00000000000E+00  0.00000000000E+00  0.38652549657E+03  0.38652549657E+03  0.00000000000E+00 0.  1.
          2   -1    0    0  501    0  0.00000000000E+00 -0.00000000000E+00 -0.28140022552E+04  0.28140022552E+04  0.00000000000E+00 0. -1.
         23    2    1    2    0    0 -0.95050622556E+03 -0.28812486549E+03 -0.16940345444E+04  0.19658555262E+04  0.91416024107E+02 0.  0.
         13    1    3    3    0    0 -0.61590343102E+03 -0.15507964600E+03 -0.10173056389E+04  0.11992904135E+04  0.00000000000E+00 0.  1.
        -13    1    3    3    0    0 -0.33460279454E+03 -0.13304521949E+03 -0.67672890546E+03  0.76656511272E+03  0.00000000000E+00 0. -1.
         22    1    1    2    0    0  0.95050622556E+03  0.28812486549E+03 -0.73344221427E+03  0.12346722256E+04  0.00000000000E+00 0.  1.
<mgrwt>
<rscale>  0 0.20858414E+04</rscale>
<asrwt>0</asrwt>
<pdfrwt beam="1">  1        2 0.43292344E+00 0.20858414E+04</pdfrwt>
<pdfrwt beam="2">  1       -2 0.59465459E-01 0.20858414E+04</pdfrwt>
<totfact> 0.55285476E+00</totfact>
</mgrwt>
</event>
<event>
 6    1  0.1588846E-005  0.6421571E+03  0.7818608E-02  0.9821608E-01
          2   -1    0    0  501    0  0.00000000000E+00  0.00000000000E+00  0.22846392819E+04  0.22846392819E+04  0.00000000000E+00 0. -1.
         -2   -1    0    0    0  501 -0.00000000000E+00 -0.00000000000E+00 -0.45123720925E+02  0.45123720925E+02  0.00000000000E+00 0.  1.
         23    2    1    2    0    0  0.93691494957E+02 -0.63314045945E+02  0.22076036113E+04  0.22122677384E+04  0.88476419065E+02 0.  0.
         11    1    3    3    0    0  0.44220345097E+02 -0.76181199472E+02  0.16412225731E+04  0.16435846642E+04  0.00000000000E+00 0. -1.
        -11    1    3    3    0    0  0.49471149861E+02  0.12867153527E+02  0.56638103828E+03  0.56868307416E+03  0.00000000000E+00 0.  1.
         22    1    1    2    0    0 -0.93691494957E+02  0.63314045945E+02  0.31911949624E+02  0.11749526446E+03  0.00000000000E+00 0.  1.
<mgrwt>
<rscale>  0 0.64215707E+03</rscale>
<asrwt>0</asrwt>
<pdfrwt beam="1">  1        2 0.35148288E+00 0.64215707E+03</pdfrwt>
<pdfrwt beam="2">  1       -2 0.69421127E-02 0.64215707E+03</pdfrwt>
<totfact> 0.59335966E+02</totfact>
</mgrwt>
</event>
<event>
 6    1  0.1588846E-005  0.1094377E+04  0.7818608E-02  0.9210689E-01
          1   -1    0    0  501    0  0.00000000000E+00  0.00000000000E+00  0.62420158198E+03  0.62420158198E+03  0.00000000000E+00 0. -1.
         -1   -1    0    0    0  501 -0.00000000000E+00 -0.00000000000E+00 -0.47967751095E+03  0.47967751095E+03  0.00000000000E+00 0.  1.
         23    2    1    2    0    0  0.94463756838E+02 -0.50223473918E+03  0.25926999745E+03  0.58011410534E+03  0.90267984581E+02 0.  0.
         11    1    3    3    0    0  0.12051956965E+02 -0.30439670146E+03  0.15180522986E+03  0.34036367218E+03  0.00000000000E+00 0. -1.
        -11    1    3    3    0    0  0.82411799873E+02 -0.19783803772E+03  0.10746476759E+03  0.23975043316E+03  0.00000000000E+00 0.  1.
         22    1    1    2    0    0 -0.94463756838E+02  0.50223473918E+03 -0.11474592642E+03  0.52376498759E+03  0.00000000000E+00 0.  1.
<mgrwt>
<rscale>  0 0.10943774E+04</rscale>
<asrwt>0</asrwt>
<pdfrwt beam="1">  1        1 0.96031013E-01 0.10943774E+04</pdfrwt>
<pdfrwt beam="2">  1       -1 0.73796540E-01 0.10943774E+04</pdfrwt>
<totfact> 0.59632761E+01</totfact>
</mgrwt>
</event>
<event>
 6    1  0.1760037E-005  0.2699472E+04  0.7818608E-02  0.8335176E-01
         -2   -1    0    0    0  501 -0.00000000000E+00  0.00000000000E+00  0.11978336549E+04  0.11978336549E+04  0.00000000000E+00 0.  1.
          2   -1    0    0  501    0  0.00000000000E+00 -0.00000000000E+00 -0.15209018993E+04  0.15209018993E+04  0.00000000000E+00 0. -1.
         23    2    1    2    0    0  0.76603891582E+03  0.10224120265E+04 -0.59539370647E+03  0.14124801695E+04  0.92003212273E+02 0.  0.
         11    1    3    3    0    0  0.29279456096E+03  0.32113924809E+03 -0.18845926130E+03  0.47368340140E+03  0.00000000000E+00 0.  1.
        -11    1    3    3    0    0  0.47324435487E+03  0.70127277844E+03 -0.40693444516E+03  0.93879676813E+03  0.00000000000E+00 0. -1.
         22    1    1    2    0    0 -0.76603891582E+03 -0.10224120265E+04  0.27232546205E+03  0.13062553846E+04  0.00000000000E+00 0.  1.
<mgrwt>
<rscale>  0 0.26994722E+04</rscale>
<asrwt>0</asrwt>
<pdfrwt beam="1">  1        2 0.23398491E+00 0.26994722E+04</pdfrwt>
<pdfrwt beam="2">  1       -2 0.18428210E+00 0.26994722E+04</pdfrwt>
<totfact> 0.18368004E+00</totfact>
</mgrwt>
</event>
<event>
 6    1  0.1588846E-005  0.2599759E+04  0.7818608E-02  0.8368283E-01
         -2   -1    0    0    0  501 -0.00000000000E+00  0.00000000000E+00  0.25145943248E+04  0.25145943248E+04  0.00000000000E+00 0.  1.
          2   -1    0    0  501    0  0.00000000000E+00 -0.00000000000E+00 -0.67195210992E+03  0.67195210992E+03  0.00000000000E+00 0. -1.
         23    2    1    2    0    0 -0.23973806954E+03  0.12688127363E+04  0.10879950248E+04  0.16909353612E+04  0.90383185437E+02 0.  0.
         13    1    3    3    0    0 -0.63287820655E+02  0.41741874090E+03  0.30475525473E+03  0.52069138536E+03  0.00000000000E+00 0.  1.
        -13    1    3    3    0    0 -0.17645024889E+03  0.85139399535E+03  0.78323977007E+03  0.11702439759E+04  0.00000000000E+00 0. -1.
         22    1    1    2    0    0  0.23973806954E+03 -0.12688127363E+04  0.75464719010E+03  0.14956110735E+04  0.00000000000E+00 0. -1.
<mgrwt>
<rscale>  0 0.25997592E+04</rscale>
<asrwt>0</asrwt>
<pdfrwt beam="1">  1        2 0.10337725E+00 0.25997592E+04</pdfrwt>
<pdfrwt beam="2">  1       -2 0.38686066E+00 0.25997592E+04</pdfrwt>
<totfact> 0.34499978E-01</totfact>
</mgrwt>
</event>
<event>
 6    1  0.1588846E-005  0.7989577E+03  0.7818608E-02  0.9561527E-01
          2   -1    0    0  501    0  0.00000000000E+00  0.00000000000E+00  0.13252285617E+04  0.13252285617E+04  0.00000000000E+00 0.  1.
         -2   -1    0    0    0  501 -0.00000000000E+00 -0.00000000000E+00 -0.12041950150E+03  0.12041950150E+03  0.00000000000E+00 0. -1.
         23    2    1    2    0    0  0.11289195003E+03  0.32246676224E+03  0.25529682539E+03  0.43653811419E+03  0.93057245598E+02 0.  0.
         13    1    3    3    0    0  0.61949442202E+02  0.23143533459E+03  0.22308026155E+03  0.32736042916E+03  0.00000000000E+00 0. -1.
        -13    1    3    3    0    0  0.50942507826E+02  0.91031427648E+02  0.32216563837E+02  0.10917768503E+03  0.00000000000E+00 0.  1.
         22    1    1    2    0    0 -0.11289195003E+03 -0.32246676224E+03  0.94951223482E+03  0.10091099490E+04  0.00000000000E+00 0. -1.
<mgrwt>
<rscale>  0 0.79895773E+03</rscale>
<asrwt>0</asrwt>
<pdfrwt beam="1">  1        2 0.20388131E+00 0.79895773E+03</pdfrwt>
<pdfrwt beam="2">  1       -2 0.18526078E-01 0.79895773E+03</pdfrwt>
<totfact> 0.39270707E+02</totfact>
</mgrwt>
</event>
<event>
 6    1  0.1588846E-005  0.4109005E+04  0.7818608E-02  0.7982911E-01
         -2   -1    0    0    0  501 -0.00000000000E+00  0.00000000000E+00  0.29001205994E+04  0.29001205994E+04  0.00000000000E+00 0.  1.
          2   -1    0    0  501    0  0.00000000000E+00 -0.00000000000E+00 -0.14554499850E+04  0.14554499850E+04  0.00000000000E+00 0. -1.
         23    2    1    2    0    0 -0.82802907155E+03 -0.12757703788E+04  0.21849004819E+04  0.26640734784E+04  0.10136656052E+03 0.  0.
         13    1    3    3    0    0 -0.19420044782E+03 -0.22571507330E+03  0.42132759626E+03  0.51592446309E+03  0.00000000000E+00 0. -1.
        -13    1    3    3    0    0 -0.63382862374E+03 -0.10500553055E+04  0.17635728857E+04  0.21481490153E+04  0.00000000000E+00 0.  1.
         22    1    1    2    0    0  0.82802907155E+03  0.12757703788E+04 -0.74022986759E+03  0.16914971060E+04  0.00000000000E+00 0. -1.
<mgrwt>
<rscale>  0 0.41090050E+04</rscale>
<asrwt>0</asrwt>
<pdfrwt beam="1">  1        2 0.22391538E+00 0.41090050E+04</pdfrwt>
<pdfrwt beam="2">  1       -2 0.44617240E+00 0.41090050E+04</pdfrwt>
<totfact> 0.38714269E-02</totfact>
</mgrwt>
</event>
<event>
 6    1  0.1588846E-005  0.2862967E+04  0.7818608E-02  0.8283982E-01
         -2   -1    0    0    0  501 -0.00000000000E+00  0.00000000000E+00  0.64800958716E+03  0.64800958716E+03  0.00000000000E+00 0. -1.
          2   -1    0    0  501    0  0.00000000000E+00 -0.00000000000E+00 -0.31622145058E+04  0.31622145058E+04  0.00000000000E+00 0.  1.
         23    2    1    2    0    0 -0.13447718330E+04 -0.48800905463E+02 -0.19023380132E+04  0.23319907146E+04  0.92184408513E+02 0.  0.
         13    1    3    3    0    0 -0.84520630795E+03  0.11144312799E+02 -0.12192044392E+04  0.14835623894E+04  0.00000000000E+00 0. -1.
        -13    1    3    3    0    0 -0.49956552502E+03 -0.59945218262E+02 -0.68313357405E+03  0.84842832519E+03  0.00000000000E+00 0.  1.
         22    1    1    2    0    0  0.13447718330E+04  0.48800905463E+02 -0.61186690547E+03  0.14782333784E+04  0.00000000000E+00 0. -1.
<mgrwt>
<rscale>  0 0.28629672E+04</rscale>
<asrwt>0</asrwt>
<pdfrwt beam="1">  1        2 0.48649455E+00 0.28629672E+04</pdfrwt>
<pdfrwt beam="2">  1       -2 0.99693780E-01 0.28629672E+04</pdfrwt>
<totfact> 0.98793421E-01</totfact>
</mgrwt>
</event>
<event>
 6    1  0.1588846E-005  0.1641935E+04  0.7818608E-02  0.8795192E-01
         -2   -1    0    0    0  501 -0.00000000000E+00  0.00000000000E+00  0.16843762313E+04  0.16843762313E+04  0.00000000000E+00 0.  1.
          2   -1    0    0  501    0  0.00000000000E+00 -0.00000000000E+00 -0.40014093576E+03  0.40014093576E+03  0.00000000000E+00 0. -1.
         23    2    1    2    0    0 -0.48877254335E+02  0.61442156282E+03 -0.39830456213E+02  0.62401966354E+03  0.88945108844E+02 0.  0.
         11    1    3    3    0    0 -0.51332245929E+02  0.43791339164E+03 -0.65110994851E+02  0.44569336959E+03  0.00000000000E+00 0. -1.
        -11    1    3    3    0    0  0.24549915937E+01  0.17650817118E+03  0.25280538637E+02  0.17832629395E+03  0.00000000000E+00 0.  1.
         22    1    1    2    0    0  0.48877254335E+02 -0.61442156282E+03  0.13240657517E+04  0.14604975035E+04  0.00000000000E+00 0.  1.
<mgrwt>
<rscale>  0 0.16419353E+04</rscale>
<asrwt>0</asrwt>
<pdfrwt beam="1">  1        2 0.61560145E-01 0.16419353E+04</pdfrwt>
<pdfrwt beam="2">  1       -2 0.25913480E+00 0.16419353E+04</pdfrwt>
<totfact> 0.42934639E+00</totfact>
</mgrwt>
</event>
<event>
 6    1  0.1588846E-005  0.2046147E+04  0.7818608E-02  0.8585344E-01
         -2   -1    0    0    0  501 -0.00000000000E+00  0.00000000000E+00  0.14244746816E+04  0.14244746816E+04  0.00000000000E+00 0.  1.
          2   -1    0    0  501    0  0.00000000000E+00 -0.00000000000E+00 -0.73478293446E+03  0.73478293446E+03  0.00000000000E+00 0. -1.
         23    2    1    2    0    0  0.58684415711E+03  0.82971526753E+03  0.44980700761E+03  0.11150554430E+04  0.90602466835E+02 0.  0.
         13    1    3    3    0    0  0.18685822808E+03  0.27131851307E+03  0.19257503169E+03  0.38159517262E+03  0.00000000000E+00 0.  1.
        -13    1    3    3    0    0  0.39998592903E+03  0.55839675446E+03  0.25723197591E+03  0.73346027039E+03  0.00000000000E+00 0. -1.
         22    1    1    2    0    0 -0.58684415711E+03 -0.82971526753E+03  0.23988473951E+03  0.10442021730E+04  0.00000000000E+00 0.  1.
<mgrwt>
<rscale>  0 0.20461473E+04</rscale>
<asrwt>0</asrwt>
<pdfrwt beam="1">  1        2 0.11304353E+00 0.20461473E+04</pdfrwt>
<pdfrwt beam="2">  1       -2 0.21914995E+00 0.20461473E+04</pdfrwt>
<totfact> 0.35650533E+00</totfact>
</mgrwt>
</event>
<event>
 6    1  0.1588846E-005  0.3341152E+04  0.7818608E-02  0.8152503E-01
         -1   -1    0    0    0  501 -0.00000000000E+00  0.00000000000E+00  0.12230895589E+04  0.12230895589E+04  0.00000000000E+00 0.  1.
          1   -1    0    0  501    0  0.00000000000E+00 -0.00000000000E+00 -0.22817817212E+04  0.22817817212E+04  0.00000000000E+00 0. -1.
         23    2    1    2    0    0 -0.57961876839E+03 -0.51865440544E+03  0.10196671605E+04  0.12857413192E+04  0.91920144032E+02 0.  0.
         11    1    3    3    0    0 -0.82769755294E+02 -0.11421409322E+03  0.21590704032E+03  0.25789831628E+03  0.00000000000E+00 0. -1.
        -11    1    3    3    0    0 -0.49684901309E+03 -0.40444031222E+03  0.80376012015E+03  0.10278430029E+04  0.00000000000E+00 0.  1.
         22    1    1    2    0    0  0.57961876839E+03  0.51865440544E+03 -0.20783593228E+04  0.22191299609E+04  0.00000000000E+00 0. -1.
<mgrwt>
<rscale>  0 0.33411515E+04</rscale>
<asrwt>0</asrwt>
<pdfrwt beam="1">  1        1 0.35104334E+00 0.33411515E+04</pdfrwt>
<pdfrwt beam="2">  1       -1 0.18816762E+00 0.33411515E+04</pdfrwt>
<totfact> 0.28823887E-01</totfact>
</mgrwt>
</event>
<event>
 6    1  0.1588846E-005  0.9862653E+03  0.7818608E-02  0.9323738E-01
         -2   -1    0    0    0  501 -0.00000000000E+00  0.00000000000E+00  0.25090524865E+03  0.25090524865E+03  0.00000000000E+00 0.  1.
          2   -1    0    0  501    0  0.00000000000E+00 -0.00000000000E+00 -0.96920976526E+03  0.96920976526E+03  0.00000000000E+00 0. -1.
         23    2    1    2    0    0  0.54184832734E+02  0.22226497195E+02 -0.96274587511E+03  0.96875552827E+03  0.90430306022E+02 0.  0.
         11    1    3    3    0    0 -0.20826635164E+02  0.25163732924E+02 -0.29641205661E+03  0.29820642094E+03  0.00000000000E+00 0. -1.
        -11    1    3    3    0    0  0.75011467898E+02 -0.29372357286E+01 -0.66633381850E+03  0.67054910733E+03  0.00000000000E+00 0.  1.
         22    1    1    2    0    0 -0.54184832734E+02 -0.22226497195E+02  0.24444135850E+03  0.25135948564E+03  0.00000000000E+00 0.  1.
<mgrwt>
<rscale>  0 0.98626531E+03</rscale>
<asrwt>0</asrwt>
<pdfrwt beam="1">  1        2 0.14910919E+00 0.98626531E+03</pdfrwt>
<pdfrwt beam="2">  1       -2 0.38600808E-01 0.98626531E+03</pdfrwt>
<totfact> 0.16689903E+02</totfact>
</mgrwt>
</event>
<event>
 6    1  0.1588846E-005  0.2045555E+04  0.7818608E-02  0.8585613E-01
          4   -1    0    0  501    0  0.00000000000E+00  0.00000000000E+00  0.53425830464E+03  0.53425830464E+03  0.00000000000E+00 0. -1.
         -4   -1    0    0    0  501 -0.00000000000E+00 -0.00000000000E+00 -0.19579928764E+04  0.19579928764E+04  0.00000000000E+00 0.  1.
         23    2    1    2    0    0  0.95995483610E+03  0.12132033120E+03 -0.11105865365E+04  0.14752489185E+04  0.82006135669E+02 0.  0.
         11    1    3    3    0    0  0.47614554557E+03  0.76117176627E+02 -0.49569785434E+03  0.69153797289E+03  0.00000000000E+00 0.  1.
        -11    1    3    3    0    0  0.48380929053E+03  0.45203154575E+02 -0.61488868218E+03  0.78371094561E+03  0.00000000000E+00 0. -1.
         22    1    1    2    0    0 -0.95995483610E+03 -0.12132033120E+03 -0.31314803526E+03  0.10170022626E+04  0.00000000000E+00 0. -1.
<mgrwt>
<rscale>  0 0.20455551E+04</rscale>
<asrwt>0</asrwt>
<pdfrwt beam="1">  1        4 0.82193585E-01 0.20455551E+04</pdfrwt>
<pdfrwt beam="2">  1       -4 0.30122968E+00 0.20455551E+04</pdfrwt>
<totfact> 0.73405737E-02</totfact>
</mgrwt>
</event>
<event>
 6    1  0.1588846E-005  0.7714719E+03  0.7818608E-02  0.9602254E-01
          2   -1    0    0  501    0  0.00000000000E+00  0.00000000000E+00  0.16614485478E+03  0.16614485478E+03  0.00000000000E+00 0. -1.
         -2   -1    0    0    0  501 -0.00000000000E+00 -0.00000000000E+00 -0.89555719382E+03  0.89555719382E+03  0.00000000000E+00 0.  1.
         23    2    1    2    0    0 -0.27460966940E+03  0.33555020474E+02 -0.72890883009E+03  0.78504944434E+03  0.91968133321E+02 0.  0.
         13    1    3    3    0    0 -0.10841002651E+03 -0.83736414031E+01 -0.18302472304E+03  0.21288706152E+03  0.00000000000E+00 0.  1.
        -13    1    3    3    0    0 -0.16619964289E+03  0.41928661877E+02 -0.54588410705E+03  0.57216238282E+03  0.00000000000E+00 0. -1.
         22    1    1    2    0    0  0.27460966940E+03 -0.33555020474E+02 -0.50350895467E+00  0.27665260427E+03  0.00000000000E+00 0. -1.
<mgrwt>
<rscale>  0 0.77147189E+03</rscale>
<asrwt>0</asrwt>
<pdfrwt beam="1">  1        2 0.25560746E-01 0.77147189E+03</pdfrwt>
<pdfrwt beam="2">  1       -2 0.13777803E+00 0.77147189E+03</pdfrwt>
<totfact> 0.80705473E+01</totfact>
</mgrwt>
</event>
<event>
 6    1  0.1588846E-005  0.1469720E+04  0.7818608E-02  0.8904842E-01
          2   -1    0    0  501    0  0.00000000000E+00  0.00000000000E+00  0.22729630596E+04  0.22729630596E+04  0.00000000000E+00 0. -1.
         -2   -1    0    0    0  501 -0.00000000000E+00 -0.00000000000E+00 -0.23758386011E+03  0.23758386011E+03  0.00000000000E+00 0.  1.
         23    2    1    2    0    0  0.68191555754E+03 -0.16476422811E+03  0.66389878557E+03  0.97005524357E+03  0.89941645627E+02 0.  0.
         13    1    3    3    0    0  0.37866092355E+03 -0.70087101420E+02  0.41774481414E+03  0.56816109207E+03  0.00000000000E+00 0.  1.
        -13    1    3    3    0    0  0.30325463399E+03 -0.94677126691E+02  0.24615397144E+03  0.40189415150E+03  0.00000000000E+00 0. -1.
         22    1    1    2    0    0 -0.68191555754E+03  0.16476422811E+03  0.13714804140E+04  0.15404916762E+04  0.00000000000E+00 0. -1.
<mgrwt>
<rscale>  0 0.14697202E+04</rscale>
<asrwt>0</asrwt>
<pdfrwt beam="1">  1        2 0.34968661E+00 0.14697202E+04</pdfrwt>
<pdfrwt beam="2">  1       -2 0.36551365E-01 0.14697202E+04</pdfrwt>
<totfact> 0.32104400E+01</totfact>
</mgrwt>
</event>
<event>
 6    1  0.1588846E-005  0.1143891E+04  0.7818608E-02  0.9163438E-01
         -1   -1    0    0    0  501 -0.00000000000E+00  0.00000000000E+00  0.12965637690E+04  0.12965637690E+04  0.00000000000E+00 0.  1.
          1   -1    0    0  501    0  0.00000000000E+00 -0.00000000000E+00 -0.25229883061E+03  0.25229883061E+03  0.00000000000E+00 0. -1.
         23    2    1    2    0    0  0.42532323631E+02 -0.56395065501E+03  0.45017878725E+03  0.72862623439E+03  0.91574609477E+02 0.  0.
         13    1    3    3    0    0 -0.11390196044E+02 -0.12498316697E+03  0.61145121168E+02  0.13960391984E+03  0.00000000000E+00 0. -1.
        -13    1    3    3    0    0  0.53922519675E+02 -0.43896748804E+03  0.38903366609E+03  0.58902231455E+03  0.00000000000E+00 0.  1.
         22    1    1    2    0    0 -0.42532323631E+02  0.56395065501E+03  0.59408615109E+03  0.82023636517E+03  0.00000000000E+00 0. -1.
<mgrwt>
<rscale>  0 0.11438908E+04</rscale>
<asrwt>0</asrwt>
<pdfrwt beam="1">  1        1 0.38815205E-01 0.11438908E+04</pdfrwt>
<pdfrwt beam="2">  1       -1 0.19947135E+00 0.11438908E+04</pdfrwt>
<totfact> 0.16580930E+01</totfact>
</mgrwt>
</event>
<event>
 6    1  0.1588846E-005  0.1745881E+04  0.7818608E-02  0.8735621E-01
          2   -1    0    0  501    0  0.00000000000E+00  0.00000000000E+00  0.14255725075E+04  0.14255725075E+04  0.00000000000E+00 0. -1.
         -2   -1    0    0    0  501 -0.00000000000E+00 -0.00000000000E+00 -0.53453972372E+03  0.53453972372E+03  0.00000000000E+00 0.  1.
         23    2    1    2    0    0 -0.12445290665E+02 -0.42186402280E+03 -0.40495495964E+03  0.59713447276E+03  0.12023693368E+03 0.  0.
         11    1    3    3    0    0 -0.47553639131E+02 -0.10221731048E+03 -0.69469299918E+02  0.13242247086E+03  0.00000000000E+00 0.  1.
        -11    1    3    3    0    0  0.35108348466E+02 -0.31964671232E+03 -0.33548565972E+03  0.46471200190E+03  0.00000000000E+00 0. -1.
         22    1    1    2    0    0  0.12445290665E+02  0.42186402280E+03  0.12959877434E+04  0.13629777585E+04  0.00000000000E+00 0. -1.
<mgrwt>
<rscale>  0 0.17458810E+04</rscale>
<asrwt>0</asrwt>
<pdfrwt beam="1">  1        2 0.21931885E+00 0.17458810E+04</pdfrwt>
<pdfrwt beam="2">  1       -2 0.82236881E-01 0.17458810E+04</pdfrwt>
<totfact> 0.17230633E+01</totfact>
</mgrwt>
</event>
<event>
 6    1  0.1588846E-005  0.1731597E+04  0.7818608E-02  0.8743546E-01
          2   -1    0    0  501    0  0.00000000000E+00  0.00000000000E+00  0.11050516815E+04  0.11050516815E+04  0.00000000000E+00 0. -1.
         -2   -1    0    0    0  501 -0.00000000000E+00 -0.00000000000E+00 -0.67834554564E+03  0.67834554564E+03  0.00000000000E+00 0.  1.
         23    2    1    2    0    0  0.59883013754E+03 -0.22801247057E+03 -0.38234061208E+03  0.75133915674E+03  0.87971384284E+02 0.  0.
         13    1    3    3    0    0  0.38387632627E+03 -0.14314754989E+03 -0.19447031561E+03  0.45350960140E+03  0.00000000000E+00 0.  1.
        -13    1    3    3    0    0  0.21495381127E+03 -0.84864920687E+02 -0.18787029647E+03  0.29782955534E+03  0.00000000000E+00 0. -1.
         22    1    1    2    0    0 -0.59883013754E+03  0.22801247057E+03  0.80904674798E+03  0.10320580704E+04  0.00000000000E+00 0. -1.
<mgrwt>
<rscale>  0 0.17315968E+04</rscale>
<asrwt>0</asrwt>
<pdfrwt beam="1">  1        2 0.17000795E+00 0.17315968E+04</pdfrwt>
<pdfrwt beam="2">  1       -2 0.10436085E+00 0.17315968E+04</pdfrwt>
<totfact> 0.15317820E+01</totfact>
</mgrwt>
</event>
<event>
 6    1  0.1588846E-005  0.1742183E+04  0.7818608E-02  0.8737665E-01
          2   -1    0    0  501    0  0.00000000000E+00  0.00000000000E+00  0.21036809504E+04  0.21036809504E+04  0.00000000000E+00 0. -1.
         -2   -1    0    0    0  501 -0.00000000000E+00 -0.00000000000E+00 -0.36070115410E+03  0.36070115410E+03  0.00000000000E+00 0.  1.
         23    2    1    2    0    0  0.49919562641E+03  0.28808566694E+02  0.18787319487E+04  0.19462558131E+04  0.90839132546E+02 0.  0.
         13    1    3    3    0    0  0.32399425725E+02 -0.21191984241E+02  0.13765944819E+03  0.14299981350E+03  0.00000000000E+00 0.  1.
        -13    1    3    3    0    0  0.46679620069E+03  0.50000550935E+02  0.17410725005E+04  0.18032559996E+04  0.00000000000E+00 0. -1.
         22    1    1    2    0    0 -0.49919562641E+03 -0.28808566694E+02 -0.13575215242E+03  0.51812629139E+03  0.00000000000E+00 0.  1.
<mgrwt>
<rscale>  0 0.17421827E+04</rscale>
<asrwt>0</asrwt>
<pdfrwt beam="1">  1        2 0.32364321E+00 0.17421827E+04</pdfrwt>
<pdfrwt beam="2">  1       -2 0.55492487E-01 0.17421827E+04</pdfrwt>
<totfact> 0.16929790E+01</totfact>
</mgrwt>
</event>
<event>
 6    1  0.1588846E-005  0.7227863E+03  0.7818608E-02  0.9679039E-01
         -1   -1    0    0    0  501 -0.00000000000E+00  0.00000000000E+00  0.62516046434E+03  0.62516046434E+03  0.00000000000E+00 0.  1.
          1   -1    0    0  501    0  0.00000000000E+00 -0.00000000000E+00 -0.20891435636E+03  0.20891435636E+03  0.00000000000E+00 0. -1.
         23    2    1    2    0    0  0.16756479979E+02  0.26532802090E+03  0.48400293730E+03  0.55971971100E+03  0.91365055009E+02 0.  0.
         13    1    3    3    0    0  0.27585610737E+02  0.17539945140E+02  0.47257858971E+02  0.57462342711E+02  0.00000000000E+00 0. -1.
        -13    1    3    3    0    0 -0.10829130758E+02  0.24778807576E+03  0.43674507832E+03  0.50225736829E+03  0.00000000000E+00 0.  1.
         22    1    1    2    0    0 -0.16756479979E+02 -0.26532802090E+03 -0.67756829324E+02  0.27435510970E+03  0.00000000000E+00 0. -1.
<mgrwt>
<rscale>  0 0.72278626E+03</rscale>
<asrwt>0</asrwt>
<pdfrwt beam="1">  1        1 0.32140671E-01 0.72278626E+03</pdfrwt>
<pdfrwt beam="2">  1       -1 0.96178532E-01 0.72278626E+03</pdfrwt>
<totfact> 0.14855871E+02</totfact>
</mgrwt>
</event>
<event>
 6    1  0.1588846E-005  0.1492101E+04  0.7818608E-02  0.8889723E-01
         -2   -1    0    0    0  501 -0.00000000000E+00  0.00000000000E+00  0.53777959685E+03  0.53777959685E+03  0.00000000000E+00 0. -1.
          2   -1    0    0  501    0  0.00000000000E+00 -0.00000000000E+00 -0.10349801428E+04  0.10349801428E+04  0.00000000000E+00 0.  1.
         23    2    1    2    0    0  0.56838336059E+03  0.28941527404E+03 -0.65188117251E+03  0.91644659659E+03  0.90024751531E+02 0.  0.
         13    1    3    3    0    0  0.95601555411E+02  0.88980439459E+02 -0.12865653257E+03  0.18332942856E+03  0.00000000000E+00 0. -1.
        -13    1    3    3    0    0  0.47278180518E+03  0.20043483458E+03 -0.52322463994E+03  0.73311716803E+03  0.00000000000E+00 0.  1.
         22    1    1    2    0    0 -0.56838336059E+03 -0.28941527404E+03  0.15468062660E+03  0.65631314301E+03  0.00000000000E+00 0. -1.
<mgrwt>
<rscale>  0 0.14921008E+04</rscale>
<asrwt>0</asrwt>
<pdfrwt beam="1">  1        2 0.15922771E+00 0.14921008E+04</pdfrwt>
<pdfrwt beam="2">  1       -2 0.82735322E-01 0.14921008E+04</pdfrwt>
<totfact> 0.29640970E+01</totfact>
</mgrwt>
</event>
<event>
 6    1  0.1588846E-005  0.3822204E+04  0.7818608E-02  0.8041407E-01
          1   -1    0    0  501    0  0.00000000000E+00  0.00000000000E+00  0.19809853356E+04  0.19809853356E+04  0.00000000000E+00 0. -1.
         -1   -1    0    0    0  501 -0.00000000000E+00 -0.00000000000E+00 -0.18436838607E+04  0.18436838607E+04  0.00000000000E+00 0.  1.
         23    2    1    2    0    0  0.64589751501E+03  0.77922410090E+03 -0.15522311048E+04  0.18551783644E+04  0.88834462772E+02 0.  0.
         13    1    3    3    0    0  0.10466025575E+03  0.80102180024E+02 -0.19435788267E+03  0.23482997026E+03  0.00000000000E+00 0.  1.
        -13    1    3    3    0    0  0.54123725927E+03  0.69912192087E+03 -0.13578732221E+04  0.16203483942E+04  0.00000000000E+00 0. -1.
         22    1    1    2    0    0 -0.64589751501E+03 -0.77922410090E+03  0.16895325796E+04  0.19694908319E+04  0.00000000000E+00 0. -1.
<mgrwt>
<rscale>  0 0.38222039E+04</rscale>
<asrwt>0</asrwt>
<pdfrwt beam="1">  1        1 0.30476697E+00 0.38222039E+04</pdfrwt>
<pdfrwt beam="2">  1       -1 0.28364367E+00 0.38222039E+04</pdfrwt>
<totfact> 0.10277885E-01</totfact>
</mgrwt>
</event>
<event>
 6    1  0.1588846E-005  0.4345170E+04  0.7818608E-02  0.7938318E-01
         -1   -1    0    0    0  501 -0.00000000000E+00  0.00000000000E+00  0.19683236113E+04  0.19683236113E+04  0.00000000000E+00 0.  1.
          1   -1    0    0  501    0  0.00000000000E+00 -0.00000000000E+00 -0.23980438237E+04  0.23980438237E+04  0.00000000000E+00 0. -1.
         23    2    1    2    0    0  0.13150360354E+03 -0.14270044460E+04 -0.18546016866E+04  0.23454958156E+04  0.90378749593E+02 0.  0.
         13    1    3    3    0    0  0.60230861727E+01 -0.53805094078E+03 -0.68579688172E+03  0.87169516198E+03  0.00000000000E+00 0.  1.
        -13    1    3    3    0    0  0.12548051736E+03 -0.88895350518E+03 -0.11688048049E+04  0.14738006536E+04  0.00000000000E+00 0. -1.
         22    1    1    2    0    0 -0.13150360354E+03  0.14270044460E+04  0.14248814742E+04  0.20208716194E+04  0.00000000000E+00 0.  1.
<mgrwt>
<rscale>  0 0.43451703E+04</rscale>
<asrwt>0</asrwt>
<pdfrwt beam="1">  1        1 0.36892982E+00 0.43451703E+04</pdfrwt>
<pdfrwt beam="2">  1       -1 0.30281902E+00 0.43451703E+04</pdfrwt>
<totfact> 0.38398864E-02</totfact>
</mgrwt>
</event>
<event>
 6    1  0.1588846E-005  0.1685940E+04  0.7818608E-02  0.8769424E-01
         -2   -1    0    0    0  501 -0.00000000000E+00  0.00000000000E+00  0.65151767591E+03  0.65151767591E+03  0.00000000000E+00 0.  1.
          2   -1    0    0  501    0  0.00000000000E+00 -0.00000000000E+00 -0.10906821895E+04  0.10906821895E+04  0.00000000000E+00 0. -1.
         23    2    1    2    0    0  0.50395848701E+03  0.66791174323E+03 -0.30201387849E+03  0.89432572962E+03  0.92335662075E+02 0.  0.
         11    1    3    3    0    0  0.28460569798E+03  0.33909163894E+03 -0.11700783390E+03  0.45790214688E+03  0.00000000000E+00 0. -1.
        -11    1    3    3    0    0  0.21935278903E+03  0.32882010428E+03 -0.18500604459E+03  0.43642358274E+03  0.00000000000E+00 0.  1.
         22    1    1    2    0    0 -0.50395848701E+03 -0.66791174323E+03 -0.13715063505E+03  0.84787413574E+03  0.00000000000E+00 0.  1.
<mgrwt>
<rscale>  0 0.16859404E+04</rscale>
<asrwt>0</asrwt>
<pdfrwt beam="1">  1        2 0.16779726E+00 0.16859404E+04</pdfrwt>
<pdfrwt beam="2">  1       -2 0.10023349E+00 0.16859404E+04</pdfrwt>
<totfact> 0.17278936E+01</totfact>
</mgrwt>
</event>
<event>
 6    1  0.1588846E-005  0.1082598E+04  0.7818608E-02  0.9222321E-01
         -2   -1    0    0    0  501 -0.00000000000E+00  0.00000000000E+00  0.15644536785E+03  0.15644536785E+03  0.00000000000E+00 0.  1.
          2   -1    0    0  501    0  0.00000000000E+00 -0.00000000000E+00 -0.18728884141E+04  0.18728884141E+04  0.00000000000E+00 0. -1.
         23    2    1    2    0    0  0.18335222966E+03  0.48742484817E+03 -0.61570427996E+03  0.81162000015E+03  0.91838126943E+02 0.  0.
         13    1    3    3    0    0  0.61377012517E+02  0.18472900359E+03 -0.29957105488E+03  0.35726007243E+03  0.00000000000E+00 0. -1.
        -13    1    3    3    0    0  0.12197521714E+03  0.30269584458E+03 -0.31613322508E+03  0.45435992772E+03  0.00000000000E+00 0.  1.
         22    1    1    2    0    0 -0.18335222966E+03 -0.48742484817E+03 -0.11007387663E+04  0.12177137818E+04  0.00000000000E+00 0.  1.
<mgrwt>
<rscale>  0 0.10825982E+04</rscale>
<asrwt>0</asrwt>
<pdfrwt beam="1">  1        2 0.28813668E+00 0.10825982E+04</pdfrwt>
<pdfrwt beam="2">  1       -2 0.24068518E-01 0.10825982E+04</pdfrwt>
<totfact> 0.12020998E+02</totfact>
</mgrwt>
</event>
<event>
 6    1  0.1588846E-005  0.1810366E+04  0.7818608E-02  0.8700806E-01
          2   -1    0    0  501    0  0.00000000000E+00  0.00000000000E+00  0.30444002840E+04  0.30444002840E+04  0.00000000000E+00 0.  1.
         -2   -1    0    0    0  501 -0.00000000000E+00 -0.00000000000E+00 -0.26913554827E+03  0.26913554827E+03  0.00000000000E+00 0. -1.
         23    2    1    2    0    0 -0.62980490380E+03 -0.57887825184E+03  0.86176253383E+03  0.12175289325E+04  0.89374433731E+02 0.  0.
         11    1    3    3    0    0 -0.30483078949E+03 -0.30754557440E+03  0.37924105395E+03  0.57561260198E+03  0.00000000000E+00 0.  1.
        -11    1    3    3    0    0 -0.32497411431E+03 -0.27133267744E+03  0.48252147988E+03  0.64191633050E+03  0.00000000000E+00 0. -1.
         22    1    1    2    0    0  0.62980490380E+03  0.57887825184E+03  0.19135022019E+04  0.20960068998E+04  0.00000000000E+00 0. -1.
<mgrwt>
<rscale>  0 0.18103661E+04</rscale>
<asrwt>0</asrwt>
<pdfrwt beam="1">  1        2 0.46836925E+00 0.18103661E+04</pdfrwt>
<pdfrwt beam="2">  1       -2 0.41405471E-01 0.18103661E+04</pdfrwt>
<totfact> 0.85444835E+00</totfact>
</mgrwt>
</event>
<event>
 6    1  0.1588846E-005  0.2593154E+04  0.7818608E-02  0.8370530E-01
          2   -1    0    0  501    0  0.00000000000E+00  0.00000000000E+00  0.41908724588E+04  0.41908724588E+04  0.00000000000E+00 0. -1.
         -2   -1    0    0    0  501 -0.00000000000E+00 -0.00000000000E+00 -0.40113662830E+03  0.40113662830E+03  0.00000000000E+00 0.  1.
         23    2    1    2    0    0 -0.57659902054E+03  0.62841769749E+03  0.17147017659E+03  0.87458772609E+03  0.90146747956E+02 0.  0.
         11    1    3    3    0    0 -0.51195697612E+03  0.56758990310E+03  0.12541207843E+03  0.77458791168E+03  0.00000000000E+00 0.  1.
        -11    1    3    3    0    0 -0.64642044416E+02  0.60827794396E+02  0.46058098165E+02  0.99999814419E+02  0.00000000000E+00 0. -1.
         22    1    1    2    0    0  0.57659902054E+03 -0.62841769749E+03  0.36182656539E+04  0.37174213610E+04  0.00000000000E+00 0. -1.
<mgrwt>
<rscale>  0 0.25931544E+04</rscale>
<asrwt>0</asrwt>
<pdfrwt beam="1">  1        2 0.64474958E+00 0.25931544E+04</pdfrwt>
<pdfrwt beam="2">  1       -2 0.61713330E-01 0.25931544E+04</pdfrwt>
<totfact> 0.51296011E-01</totfact>
</mgrwt>
</event>
<event>
 6    1  0.1588846E-005  0.2937423E+04  0.7818608E-02  0.8261829E-01
          2   -1    0    0  501    0  0.00000000000E+00  0.00000000000E+00  0.29185629312E+04  0.29185629312E+04  0.00000000000E+00 0. -1.
         -2   -1    0    0    0  501 -0.00000000000E+00 -0.00000000000E+00 -0.73910133585E+03  0.73910133585E+03  0.00000000000E+00 0.  1.
         23    2    1    2    0    0 -0.12301629521E+04  0.78814462546E+03  0.12598542487E+04  0.19313530229E+04  0.91754737927E+02 0.  0.
         11    1    3    3    0    0 -0.63131065762E+03  0.45396113142E+03  0.69444397617E+03  0.10425383884E+04  0.00000000000E+00 0. -1.
        -11    1    3    3    0    0 -0.59885229450E+03  0.33418349404E+03  0.56541027249E+03  0.88881463453E+03  0.00000000000E+00 0.  1.
         22    1    1    2    0    0  0.12301629521E+04 -0.78814462546E+03  0.91960734667E+03  0.17263112441E+04  0.00000000000E+00 0.  1.
<mgrwt>
<rscale>  0 0.29374232E+04</rscale>
<asrwt>0</asrwt>
<pdfrwt beam="1">  1        2 0.44900968E+00 0.29374232E+04</pdfrwt>
<pdfrwt beam="2">  1       -2 0.11370790E+00 0.29374232E+04</pdfrwt>
<totfact> 0.10200076E+00</totfact>
</mgrwt>
</event>
<event>
 6    1  0.1588846E-005  0.5399804E+03  0.7818608E-02  0.1003840E+00
          2   -1    0    0  501    0  0.00000000000E+00  0.00000000000E+00  0.13927474468E+03  0.13927474468E+03  0.00000000000E+00 0.  1.
         -2   -1    0    0    0  501 -0.00000000000E+00 -0.00000000000E+00 -0.52338789097E+03  0.52338789097E+03  0.00000000000E+00 0. -1.
         23    2    1    2    0    0  0.11739924460E+03  0.34049299414E+02  0.85445812483E+02  0.17745386287E+03  0.96161058398E+02 0.  0.
         11    1    3    3    0    0  0.58783567818E+02  0.42087720625E+02 -0.14700592181E+01  0.72312136927E+02  0.00000000000E+00 0. -1.
        -11    1    3    3    0    0  0.58615676787E+02 -0.80384212115E+01  0.86915871701E+02  0.10514172594E+03  0.00000000000E+00 0.  1.
         22    1    1    2    0    0 -0.11739924460E+03 -0.34049299414E+02 -0.46955895877E+03  0.48520877278E+03  0.00000000000E+00 0. -1.
<mgrwt>
<rscale>  0 0.53998043E+03</rscale>
<asrwt>0</asrwt>
<pdfrwt beam="1">  1        2 0.21426884E-01 0.53998043E+03</pdfrwt>
<pdfrwt beam="2">  1       -2 0.80521212E-01 0.53998043E+03</pdfrwt>
<totfact> 0.36078427E+02</totfact>
</mgrwt>
</event>
<event>
 6    1  0.1588846E-005  0.3931331E+04  0.7818608E-02  0.8018544E-01
          2   -1    0    0  501    0  0.00000000000E+00  0.00000000000E+00  0.26399862562E+04  0.26399862562E+04  0.00000000000E+00 0. -1.
         -2   -1    0    0    0  501 -0.00000000000E+00 -0.00000000000E+00 -0.14635835380E+04  0.14635835380E+04  0.00000000000E+00 0.  1.
         23    2    1    2    0    0 -0.83852572031E+03 -0.12978518422E+04  0.18549612354E+04  0.24159719603E+04  0.92165831408E+02 0.  0.
         13    1    3    3    0    0 -0.49341577064E+02 -0.11927812289E+03  0.17105846956E+03  0.21429620116E+03  0.00000000000E+00 0. -1.
        -13    1    3    3    0    0 -0.78918414324E+03 -0.11785737193E+04  0.16839027658E+04  0.22016757592E+04  0.00000000000E+00 0.  1.
         22    1    1    2    0    0  0.83852572031E+03  0.12978518422E+04 -0.67855851709E+03  0.16875978339E+04  0.00000000000E+00 0.  1.
<mgrwt>
<rscale>  0 0.39313308E+04</rscale>
<asrwt>0</asrwt>
<pdfrwt beam="1">  1        2 0.40615173E+00 0.39313308E+04</pdfrwt>
<pdfrwt beam="2">  1       -2 0.22516670E+00 0.39313308E+04</pdfrwt>
<totfact> 0.20961480E-01</totfact>
</mgrwt>
</event>
<event>
 6    1  0.1588846E-005  0.4757399E+04  0.7818608E-02  0.7867061E-01
         -3   -1    0    0    0  501 -0.00000000000E+00  0.00000000000E+00  0.49979052497E+04  0.49979052497E+04  0.00000000000E+00 0.  1.
          3   -1    0    0  501    0  0.00000000000E+00 -0.00000000000E+00 -0.11321166750E+04  0.11321166750E+04  0.00000000000E+00 0. -1.
         23    2    1    2    0    0  0.49778668858E+03  0.19846491883E+04  0.34945051621E+04  0.40504846299E+04  0.90749223295E+02 0.  0.
         13    1    3    3    0    0  0.56822282966E+02  0.36795251503E+03  0.62282907689E+03  0.72562654594E+03  0.00000000000E+00 0. -1.
        -13    1    3    3    0    0  0.44096440561E+03  0.16166966732E+04  0.28716760852E+04  0.33248580840E+04  0.00000000000E+00 0.  1.
         22    1    1    2    0    0 -0.49778668858E+03 -0.19846491883E+04  0.37128341254E+03  0.20795372948E+04  0.00000000000E+00 0. -1.
<mgrwt>
<rscale>  0 0.47573992E+04</rscale>
<asrwt>0</asrwt>
<pdfrwt beam="1">  1        3 0.17417180E+00 0.47573992E+04</pdfrwt>
<pdfrwt beam="2">  1       -3 0.76890848E+00 0.47573992E+04</pdfrwt>
<totfact> 0.31120742E-05</totfact>
</mgrwt>
</event>
<event>
 6    1  0.1588846E-005  0.2656016E+04  0.7818608E-02  0.8349419E-01
          1   -1    0    0  501    0  0.00000000000E+00  0.00000000000E+00  0.23231210049E+04  0.23231210049E+04  0.00000000000E+00 0. -1.
         -1   -1    0    0    0  501 -0.00000000000E+00 -0.00000000000E+00 -0.75915344425E+03  0.75915344425E+03  0.00000000000E+00 0.  1.
         23    2    1    2    0    0  0.38614732468E+02 -0.98110316829E+03 -0.24994295707E+03  0.10196727206E+04  0.11491932346E+03 0.  0.
         13    1    3    3    0    0 -0.33052594102E+02 -0.58064508489E+03 -0.15607751955E+03  0.60216391513E+03  0.00000000000E+00 0. -1.
        -13    1    3    3    0    0  0.71667326570E+02 -0.40045808341E+03 -0.93865437520E+02  0.41750880544E+03  0.00000000000E+00 0.  1.
         22    1    1    2    0    0 -0.38614732468E+02  0.98110316829E+03  0.18139105177E+04  0.20626017285E+04  0.00000000000E+00 0. -1.
<mgrwt>
<rscale>  0 0.26560160E+04</rscale>
<asrwt>0</asrwt>
<pdfrwt beam="1">  1        1 0.35740323E+00 0.26560160E+04</pdfrwt>
<pdfrwt beam="2">  1       -1 0.11679284E+00 0.26560160E+04</pdfrwt>
<totfact> 0.10397027E+00</totfact>
</mgrwt>
</event>
<event>
 6    1  0.1588846E-005  0.3561647E+04  0.7818608E-02  0.8099334E-01
          2   -1    0    0  501    0  0.00000000000E+00  0.00000000000E+00  0.27750051079E+04  0.27750051079E+04  0.00000000000E+00 0. -1.
         -2   -1    0    0    0  501 -0.00000000000E+00 -0.00000000000E+00 -0.11428204574E+04  0.11428204574E+04  0.00000000000E+00 0.  1.
         23    2    1    2    0    0 -0.33852765420E+03 -0.39306185622E+03  0.26892539746E+04  0.27403307027E+04  0.90701845351E+02 0.  0.
         11    1    3    3    0    0 -0.11963017031E+03 -0.15165120264E+03  0.12348534550E+04  0.12498690013E+04  0.00000000000E+00 0. -1.
        -11    1    3    3    0    0 -0.21889748389E+03 -0.24141065358E+03  0.14544005196E+04  0.14904617014E+04  0.00000000000E+00 0.  1.
         22    1    1    2    0    0  0.33852765420E+03  0.39306185622E+03 -0.10570693241E+04  0.11774948626E+04  0.00000000000E+00 0.  1.
<mgrwt>
<rscale>  0 0.35616472E+04</rscale>
<asrwt>0</asrwt>
<pdfrwt beam="1">  1        2 0.42692386E+00 0.35616472E+04</pdfrwt>
<pdfrwt beam="2">  1       -2 0.17581853E+00 0.35616472E+04</pdfrwt>
<totfact> 0.37941689E-01</totfact>
</mgrwt>
</event>
<event>
 6    1  0.1588846E-005  0.4717620E+04  0.7818608E-02  0.7873607E-01
         -2   -1    0    0    0  501 -0.00000000000E+00  0.00000000000E+00  0.27824285399E+04  0.27824285399E+04  0.00000000000E+00 0.  1.
          2   -1    0    0  501    0  0.00000000000E+00 -0.00000000000E+00 -0.19996865192E+04  0.19996865192E+04  0.00000000000E+00 0. -1.
         23    2    1    2    0    0 -0.62865857345E+03 -0.15577869235E+04  0.20686979928E+04  0.26665549764E+04  0.95353845674E+02 0.  0.
         11    1    3    3    0    0 -0.13944963392E+03 -0.45203673778E+03  0.60693995942E+03  0.76951902319E+03  0.00000000000E+00 0. -1.
        -11    1    3    3    0    0 -0.48920893952E+03 -0.11057501857E+04  0.14617580334E+04  0.18970359532E+04  0.00000000000E+00 0.  1.
         22    1    1    2    0    0  0.62865857345E+03  0.15577869235E+04 -0.12859559721E+04  0.21155600826E+04  0.00000000000E+00 0. -1.
<mgrwt>
<rscale>  0 0.47176201E+04</rscale>
<asrwt>0</asrwt>
<pdfrwt beam="1">  1        2 0.30764408E+00 0.47176201E+04</pdfrwt>
<pdfrwt beam="2">  1       -2 0.42806593E+00 0.47176201E+04</pdfrwt>
<totfact> 0.24157281E-02</totfact>
</mgrwt>
</event>
<event>
 6    1  0.1588846E-005  0.1656536E+04  0.7818608E-02  0.8786549E-01
          2   -1    0    0  501    0  0.00000000000E+00  0.00000000000E+00  0.27194622908E+04  0.27194622908E+04  0.00000000000E+00 0. -1.
         -2   -1    0    0    0  501 -0.00000000000E+00 -0.00000000000E+00 -0.25226601545E+03  0.25226601545E+03  0.00000000000E+00 0.  1.
         23    2    1    2    0    0  0.71568131219E+03  0.41006060873E+03  0.11681670321E+04  0.14329539829E+04  0.91615821304E+02 0.  0.
         11    1    3    3    0    0  0.62716009532E+03  0.38006063541E+03  0.99328932215E+03  0.12346657642E+04  0.00000000000E+00 0. -1.
        -11    1    3    3    0    0  0.88521216869E+02  0.29999973318E+02  0.17487770997E+03  0.19828821871E+03  0.00000000000E+00 0.  1.
         22    1    1    2    0    0 -0.71568131219E+03 -0.41006060873E+03  0.12990292433E+04  0.15387743234E+04  0.00000000000E+00 0. -1.
<mgrwt>
<rscale>  0 0.16565360E+04</rscale>
<asrwt>0</asrwt>
<pdfrwt beam="1">  1        2 0.41837879E+00 0.16565360E+04</pdfrwt>
<pdfrwt beam="2">  1       -2 0.38810158E-01 0.16565360E+04</pdfrwt>
<totfact> 0.15535929E+01</totfact>
</mgrwt>
</event>
<event>
 6    1  0.1588846E-005  0.1755807E+04  0.7818608E-02  0.8730160E-01
         -2   -1    0    0    0  501 -0.00000000000E+00  0.00000000000E+00  0.20630471446E+03  0.20630471446E+03  0.00000000000E+00 0.  1.
          2   -1    0    0  501    0  0.00000000000E+00 -0.00000000000E+00 -0.37358076803E+04  0.37358076803E+04  0.00000000000E+00 0. -1.
         23    2    1    2    0    0  0.55913853568E+03  0.45189327587E+03 -0.64767295460E+03  0.97196296273E+03  0.91587717218E+02 0.  0.
         13    1    3    3    0    0  0.34655972886E+03  0.22699664852E+03 -0.39561485830E+03  0.57283701017E+03  0.00000000000E+00 0. -1.
        -13    1    3    3    0    0  0.21257880682E+03  0.22489662735E+03 -0.25205809629E+03  0.39912595256E+03  0.00000000000E+00 0.  1.
         22    1    1    2    0    0 -0.55913853568E+03 -0.45189327587E+03 -0.28818300112E+04  0.29701494320E+04  0.00000000000E+00 0. -1.
<mgrwt>
<rscale>  0 0.17558072E+04</rscale>
<asrwt>0</asrwt>
<pdfrwt beam="1">  1        2 0.57473957E+00 0.17558072E+04</pdfrwt>
<pdfrwt beam="2">  1       -2 0.31739191E-01 0.17558072E+04</pdfrwt>
<totfact> 0.48558477E+00</totfact>
</mgrwt>
</event>
<event>
 6    1  0.1588846E-005  0.5458054E+03  0.7818608E-02  0.1002469E+00
         -1   -1    0    0    0  501 -0.00000000000E+00  0.00000000000E+00  0.92465561499E+02  0.92465561499E+02  0.00000000000E+00 0.  1.
          1   -1    0    0  501    0  0.00000000000E+00 -0.00000000000E+00 -0.80544466556E+03  0.80544466556E+03  0.00000000000E+00 0. -1.
         23    2    1    2    0    0 -0.24735093421E+03 -0.94849978928E+02 -0.37748758616E+03  0.47043676386E+03  0.92923990044E+02 0.  0.
         11    1    3    3    0    0 -0.13229876101E+03 -0.25131813764E+01 -0.15984548664E+03  0.20750869342E+03  0.00000000000E+00 0. -1.
        -11    1    3    3    0    0 -0.11505217320E+03 -0.92336797552E+02 -0.21764209953E+03  0.26292807044E+03  0.00000000000E+00 0.  1.
         22    1    1    2    0    0  0.24735093421E+03  0.94849978928E+02 -0.33549151790E+03  0.42747346320E+03  0.00000000000E+00 0.  1.
<mgrwt>
<rscale>  0 0.54580544E+03</rscale>
<asrwt>0</asrwt>
<pdfrwt beam="1">  1        1 0.12391457E+00 0.54580544E+03</pdfrwt>
<pdfrwt beam="2">  1       -1 0.14225471E-01 0.54580544E+03</pdfrwt>
<totfact> 0.79252069E+02</totfact>
</mgrwt>
</event>
<event>
 6    1  0.1588846E-005  0.2657918E+04  0.7818608E-02  0.8348790E-01
          2   -1    0    0  501    0  0.00000000000E+00  0.00000000000E+00  0.22213552403E+04  0.22213552403E+04  0.00000000000E+00 0. -1.
         -2   -1    0    0    0  501 -0.00000000000E+00 -0.00000000000E+00 -0.79506981698E+03  0.79506981698E+03  0.00000000000E+00 0.  1.
         23    2    1    2    0    0 -0.52099306955E+03  0.73488451688E+03  0.18193455871E+04  0.20335795333E+04  0.11806066728E+03 0.  0.
         13    1    3    3    0    0 -0.27896982739E+03  0.49046966389E+03  0.11557907816E+04  0.12861714453E+04  0.00000000000E+00 0. -1.
        -13    1    3    3    0    0 -0.24202324216E+03  0.24441485299E+03  0.66355480554E+03  0.74740808803E+03  0.00000000000E+00 0.  1.
         22    1    1    2    0    0  0.52099306955E+03 -0.73488451688E+03 -0.39306016380E+03  0.98284552400E+03  0.00000000000E+00 0.  1.
<mgrwt>
<rscale>  0 0.26579184E+04</rscale>
<asrwt>0</asrwt>
<pdfrwt beam="1">  1        2 0.34174696E+00 0.26579184E+04</pdfrwt>
<pdfrwt beam="2">  1       -2 0.12231843E+00 0.26579184E+04</pdfrwt>
<totfact> 0.22382996E+00</totfact>
</mgrwt>
</event>
<event>
 6    1  0.1588846E-005  0.1946006E+04  0.7818608E-02  0.8632289E-01
          1   -1    0    0  501    0  0.00000000000E+00  0.00000000000E+00  0.95266450239E+03  0.95266450239E+03  0.00000000000E+00 0. -1.
         -1   -1    0    0    0  501 -0.00000000000E+00 -0.00000000000E+00 -0.99377570380E+03  0.99377570380E+03  0.00000000000E+00 0.  1.
         23    2    1    2    0    0 -0.70118000740E+03  0.32840938081E+03 -0.60629315302E+03  0.98782831256E+03  0.93312718944E+02 0.  0.
         11    1    3    3    0    0 -0.47606424248E+03  0.26694794348E+03 -0.44398714839E+03  0.70357867750E+03  0.00000000000E+00 0. -1.
        -11    1    3    3    0    0 -0.22511576492E+03  0.61461437336E+02 -0.16230600463E+03  0.28424963506E+03  0.00000000000E+00 0.  1.
         22    1    1    2    0    0  0.70118000740E+03 -0.32840938081E+03  0.56518195161E+03  0.95861189363E+03  0.00000000000E+00 0. -1.
<mgrwt>
<rscale>  0 0.19460060E+04</rscale>
<asrwt>0</asrwt>
<pdfrwt beam="1">  1        1 0.14656377E+00 0.19460060E+04</pdfrwt>
<pdfrwt beam="2">  1       -1 0.15288857E+00 0.19460060E+04</pdfrwt>
<totfact> 0.50930575E+00</totfact>
</mgrwt>
</event>
<event>
 6    1  0.1588846E-005  0.2190273E+04  0.7818608E-02  0.8522487E-01
          2   -1    0    0  501    0  0.00000000000E+00  0.00000000000E+00  0.23768770326E+04  0.23768770326E+04  0.00000000000E+00 0.  1.
         -2   -1    0    0    0  501 -0.00000000000E+00 -0.00000000000E+00 -0.50457990927E+03  0.50457990927E+03  0.00000000000E+00 0. -1.
         23    2    1    2    0    0  0.37070318804E+03  0.70238607541E+03 -0.50558712425E+02  0.80103832590E+03  0.91319021083E+02 0.  0.
         13    1    3    3    0    0  0.27508423688E+03  0.48250531321E+03 -0.73132172172E+02  0.56020623815E+03  0.00000000000E+00 0. -1.
        -13    1    3    3    0    0  0.95618951154E+02  0.21988076220E+03  0.22573459747E+02  0.24083208775E+03  0.00000000000E+00 0.  1.
         22    1    1    2    0    0 -0.37070318804E+03 -0.70238607541E+03  0.19228558357E+04  0.20804186159E+04  0.00000000000E+00 0.  1.
<mgrwt>
<rscale>  0 0.21902734E+04</rscale>
<asrwt>0</asrwt>
<pdfrwt beam="1">  1        2 0.36567338E+00 0.21902734E+04</pdfrwt>
<pdfrwt beam="2">  1       -2 0.77627680E-01 0.21902734E+04</pdfrwt>
<totfact> 0.55446559E+00</totfact>
</mgrwt>
</event>
<event>
 6    1  0.1588846E-005  0.1984013E+04  0.7818608E-02  0.8614132E-01
         -2   -1    0    0    0  501 -0.00000000000E+00  0.00000000000E+00  0.16646010934E+04  0.16646010934E+04  0.00000000000E+00 0.  1.
          2   -1    0    0  501    0  0.00000000000E+00 -0.00000000000E+00 -0.59117894269E+03  0.59117894269E+03  0.00000000000E+00 0. -1.
         23    2    1    2    0    0 -0.83324337469E+03  0.48238036088E+03  0.79954615455E+03  0.12547838347E+04  0.90681224165E+02 0.  0.
         13    1    3    3    0    0 -0.51641595498E+03  0.31771295134E+03  0.55521902467E+03  0.82212841051E+03  0.00000000000E+00 0.  1.
        -13    1    3    3    0    0 -0.31682741972E+03  0.16466740954E+03  0.24432712988E+03  0.43265542415E+03  0.00000000000E+00 0. -1.
         22    1    1    2    0    0  0.83324337469E+03 -0.48238036088E+03  0.27387599617E+03  0.10009962014E+04  0.00000000000E+00 0. -1.
<mgrwt>
<rscale>  0 0.19840132E+04</rscale>
<asrwt>0</asrwt>
<pdfrwt beam="1">  1        2 0.90950608E-01 0.19840132E+04</pdfrwt>
<pdfrwt beam="2">  1       -2 0.25609247E+00 0.19840132E+04</pdfrwt>
<totfact> 0.27690368E+00</totfact>
</mgrwt>
</event>
<event>
 6    1  0.1588846E-005  0.4133859E+04  0.7818608E-02  0.7978074E-01
          2   -1    0    0  501    0  0.00000000000E+00  0.00000000000E+00  0.31491538915E+04  0.31491538915E+04  0.00000000000E+00 0. -1.
         -2   -1    0    0    0  501 -0.00000000000E+00 -0.00000000000E+00 -0.13566174547E+04  0.13566174547E+04  0.00000000000E+00 0.  1.
         23    2    1    2    0    0 -0.82591207854E+03  0.18928462479E+04  0.86924260234E+03  0.22435889520E+04  0.11450329231E+03 0.  0.
         13    1    3    3    0    0 -0.50040580257E+03  0.11357152362E+04  0.58273269078E+03  0.13710698210E+04  0.00000000000E+00 0. -1.
        -13    1    3    3    0    0 -0.32550627597E+03  0.75713101166E+03  0.28650991156E+03  0.87251913098E+03  0.00000000000E+00 0.  1.
         22    1    1    2    0    0  0.82591207854E+03 -0.18928462479E+04  0.92329383446E+03  0.22621823942E+04  0.00000000000E+00 0. -1.
<mgrwt>
<rscale>  0 0.41338588E+04</rscale>
<asrwt>0</asrwt>
<pdfrwt beam="1">  1        2 0.48448521E+00 0.41338588E+04</pdfrwt>
<pdfrwt beam="2">  1       -2 0.20871038E+00 0.41338588E+04</pdfrwt>
<totfact> 0.12734613E-01</totfact>
</mgrwt>
</event>
<event>
 6    1  0.1588846E-005  0.3175507E+04  0.7818608E-02  0.8195316E-01
          2   -1    0    0  501    0  0.00000000000E+00  0.00000000000E+00  0.22232808987E+04  0.22232808987E+04  0.00000000000E+00 0.  1.
         -2   -1    0    0    0  501 -0.00000000000E+00 -0.00000000000E+00 -0.11338923525E+04  0.11338923525E+04  0.00000000000E+00 0. -1.
         23    2    1    2    0    0  0.52886623007E+03 -0.61023824619E+03  0.19887665874E+04  0.21484668901E+04  0.92882895177E+02 0.  0.
         11    1    3    3    0    0  0.49494853618E+02 -0.99687801441E+02  0.31541077427E+03  0.33447175488E+03  0.00000000000E+00 0.  1.
        -11    1    3    3    0    0  0.47937137646E+03 -0.51055044474E+03  0.16733558132E+04  0.18139951352E+04  0.00000000000E+00 0. -1.
         22    1    1    2    0    0 -0.52886623007E+03  0.61023824619E+03 -0.89937804119E+03  0.12087063611E+04  0.00000000000E+00 0. -1.
<mgrwt>
<rscale>  0 0.31755070E+04</rscale>
<asrwt>0</asrwt>
<pdfrwt beam="1">  1        2 0.34204322E+00 0.31755070E+04</pdfrwt>
<pdfrwt beam="2">  1       -2 0.17444498E+00 0.31755070E+04</pdfrwt>
<totfact> 0.83808162E-01</totfact>
</mgrwt>
</event>
<event>
 6    1  0.1588846E-005  0.3824711E+04  0.7818608E-02  0.8040873E-01
         -1   -1    0    0    0  501 -0.00000000000E+00  0.00000000000E+00  0.11391462453E+04  0.11391462453E+04  0.00000000000E+00 0.  1.
          1   -1    0    0  501    0  0.00000000000E+00 -0.00000000000E+00 -0.32103892631E+04  0.32103892631E+04  0.00000000000E+00 0. -1.
         23    2    1    2    0    0 -0.12348102503E+04 -0.11627889868E+04 -0.20379982030E+04  0.26530863344E+04  0.92713756244E+02 0.  0.
         13    1    3    3    0    0 -0.45296880619E+03 -0.38178843687E+03 -0.75827288708E+03  0.96224784811E+03  0.00000000000E+00 0.  1.
        -13    1    3    3    0    0 -0.78184144407E+03 -0.78100054992E+03 -0.12797253159E+04  0.16908384863E+04  0.00000000000E+00 0. -1.
         22    1    1    2    0    0  0.12348102503E+04  0.11627889868E+04 -0.33244814834E+02  0.16964491739E+04  0.00000000000E+00 0.  1.
<mgrwt>
<rscale>  0 0.38247106E+04</rscale>
<asrwt>0</asrwt>
<pdfrwt beam="1">  1        1 0.49390605E+00 0.38247106E+04</pdfrwt>
<pdfrwt beam="2">  1       -1 0.17525326E+00 0.38247106E+04</pdfrwt>
<totfact> 0.74593589E-02</totfact>
</mgrwt>
</event>
<event>
 6    1  0.1588846E-005  0.1341798E+04  0.7818608E-02  0.8997061E-01
         -2   -1    0    0    0  501 -0.00000000000E+00  0.00000000000E+00  0.14719724543E+04  0.14719724543E+04  0.00000000000E+00 0. -1.
          2   -1    0    0  501    0  0.00000000000E+00 -0.00000000000E+00 -0.30578369421E+03  0.30578369421E+03  0.00000000000E+00 0.  1.
         23    2    1    2    0    0  0.40420251819E+03  0.41391434540E+02 -0.11639349907E+03  0.43235279708E+03  0.91041572642E+02 0.  0.
         13    1    3    3    0    0  0.25756595513E+03  0.80061626979E+00 -0.35403420701E+02  0.25998896982E+03  0.00000000000E+00 0. -1.
        -13    1    3    3    0    0  0.14663656307E+03  0.40590818270E+02 -0.80990078366E+02  0.17236382726E+03  0.00000000000E+00 0.  1.
         22    1    1    2    0    0 -0.40420251819E+03 -0.41391434540E+02  0.12825822592E+04  0.13454033515E+04  0.00000000000E+00 0. -1.
<mgrwt>
<rscale>  0 0.13417976E+04</rscale>
<asrwt>0</asrwt>
<pdfrwt beam="1">  1        2 0.47043646E-01 0.13417976E+04</pdfrwt>
<pdfrwt beam="2">  1       -2 0.22645730E+00 0.13417976E+04</pdfrwt>
<totfact> 0.94528407E+00</totfact>
</mgrwt>
</event>
<event>
 6    1  0.1588846E-005  0.2319184E+04  0.7818608E-02  0.8470395E-01
          2   -1    0    0  501    0  0.00000000000E+00  0.00000000000E+00  0.51751146839E+03  0.51751146839E+03  0.00000000000E+00 0. -1.
         -2   -1    0    0    0  501 -0.00000000000E+00 -0.00000000000E+00 -0.25983071883E+04  0.25983071883E+04  0.00000000000E+00 0.  1.
         23    2    1    2    0    0  0.67866978893E+03  0.90818170991E+03 -0.13575658165E+04  0.17710330999E+04  0.90479800073E+02 0.  0.
         11    1    3    3    0    0  0.52207660805E+03  0.70811639037E+03 -0.99289653933E+03  0.13265882348E+04  0.00000000000E+00 0. -1.
        -11    1    3    3    0    0  0.15659318088E+03  0.20006531954E+03 -0.36466927716E+03  0.44444486507E+03  0.00000000000E+00 0.  1.
         22    1    1    2    0    0 -0.67866978893E+03 -0.90818170991E+03 -0.72322990345E+03  0.13447855568E+04  0.00000000000E+00 0. -1.
<mgrwt>
<rscale>  0 0.23191841E+04</rscale>
<asrwt>0</asrwt>
<pdfrwt beam="1">  1        2 0.79617151E-01 0.23191841E+04</pdfrwt>
<pdfrwt beam="2">  1       -2 0.39973956E+00 0.23191841E+04</pdfrwt>
<totfact> 0.39939187E-01</totfact>
</mgrwt>
</event>
<event>
 6    1  0.1588846E-005  0.2054331E+04  0.7818608E-02  0.8581632E-01
         -2   -1    0    0    0  501 -0.00000000000E+00  0.00000000000E+00  0.10653505853E+04  0.10653505853E+04  0.00000000000E+00 0.  1.
          2   -1    0    0  501    0  0.00000000000E+00 -0.00000000000E+00 -0.99034883275E+03  0.99034883275E+03  0.00000000000E+00 0. -1.
         23    2    1    2    0    0  0.54482956772E+03 -0.25292766648E+03  0.86810450928E+03  0.10608006066E+04  0.10431119590E+03 0.  0.
         13    1    3    3    0    0  0.38365912751E+03 -0.15465669450E+03  0.66801550577E+03  0.78572115615E+03  0.00000000000E+00 0.  1.
        -13    1    3    3    0    0  0.16117044021E+03 -0.98270971981E+02  0.20008900351E+03  0.27507945044E+03  0.00000000000E+00 0. -1.
         22    1    1    2    0    0 -0.54482956772E+03  0.25292766648E+03 -0.79310275672E+03  0.99489881146E+03  0.00000000000E+00 0. -1.
<mgrwt>
<rscale>  0 0.20543308E+04</rscale>
<asrwt>0</asrwt>
<pdfrwt beam="1">  1        2 0.15236136E+00 0.20543308E+04</pdfrwt>
<pdfrwt beam="2">  1       -2 0.16390009E+00 0.20543308E+04</pdfrwt>
<totfact> 0.55726656E+00</totfact>
</mgrwt>
</event>
<event>
 6    1  0.1588846E-005  0.4369326E+04  0.7818608E-02  0.7933922E-01
         -2   -1    0    0    0  501 -0.00000000000E+00  0.00000000000E+00  0.14683117257E+04  0.14683117257E+04  0.00000000000E+00 0.  1.
          2   -1    0    0  501    0  0.00000000000E+00 -0.00000000000E+00 -0.32505035600E+04  0.32505035600E+04  0.00000000000E+00 0. -1.
         23    2    1    2    0    0  0.79266270618E+03 -0.19447756786E+04 -0.15376076721E+04  0.26045097217E+04  0.93631893899E+02 0.  0.
         13    1    3    3    0    0  0.44282637342E+03 -0.11565908644E+04 -0.95297090998E+03  0.15626743678E+04  0.00000000000E+00 0.  1.
        -13    1    3    3    0    0  0.34983633276E+03 -0.78818481415E+03 -0.58463676208E+03  0.10418353539E+04  0.00000000000E+00 0. -1.
         22    1    1    2    0    0 -0.79266270618E+03  0.19447756786E+04 -0.24458416217E+03  0.21143055640E+04  0.00000000000E+00 0.  1.
<mgrwt>
<rscale>  0 0.43693260E+04</rscale>
<asrwt>0</asrwt>
<pdfrwt beam="1">  1        2 0.50007747E+00 0.43693260E+04</pdfrwt>
<pdfrwt beam="2">  1       -2 0.22589411E+00 0.43693260E+04</pdfrwt>
<totfact> 0.83368455E-02</totfact>
</mgrwt>
</event>
<event>
 6    1  0.1588846E-005  0.2087962E+04  0.7818608E-02  0.8566565E-01
          2   -1    0    0  501    0  0.00000000000E+00  0.00000000000E+00  0.16962595993E+04  0.16962595993E+04  0.00000000000E+00 0. -1.
         -2   -1    0    0    0  501 -0.00000000000E+00 -0.00000000000E+00 -0.64252944324E+03  0.64252944324E+03  0.00000000000E+00 0.  1.
         23    2    1    2    0    0  0.59971704820E+03  0.66401700031E+03 -0.70250260525E+02  0.90215718591E+03  0.91506144043E+02 0.  0.
         11    1    3    3    0    0  0.25964068102E+03  0.35315890251E+03 -0.46698052054E+02  0.44081198002E+03  0.00000000000E+00 0. -1.
        -11    1    3    3    0    0  0.34007636718E+03  0.31085809779E+03 -0.23552208471E+02  0.46134520589E+03  0.00000000000E+00 0.  1.
         22    1    1    2    0    0 -0.59971704820E+03 -0.66401700031E+03  0.11239804166E+04  0.14366318566E+04  0.00000000000E+00 0. -1.
<mgrwt>
<rscale>  0 0.20879624E+04</rscale>
<asrwt>0</asrwt>
<pdfrwt beam="1">  1        2 0.26096301E+00 0.20879624E+04</pdfrwt>
<pdfrwt beam="2">  1       -2 0.98850684E-01 0.20879624E+04</pdfrwt>
<totfact> 0.77168244E+00</totfact>
</mgrwt>
</event>
<event>
 6    1  0.1588846E-005  0.1846976E+04  0.7818608E-02  0.8681709E-01
         -1   -1    0    0    0  501 -0.00000000000E+00  0.00000000000E+00  0.12735272328E+04  0.12735272328E+04  0.00000000000E+00 0.  1.
          1   -1    0    0  501    0  0.00000000000E+00 -0.00000000000E+00 -0.66966003483E+03  0.66966003483E+03  0.00000000000E+00 0. -1.
         23    2    1    2    0    0  0.80972364213E+02  0.87651468136E+03  0.13169316052E+02  0.88311250701E+03  0.69855269968E+02 0.  0.
         13    1    3    3    0    0  0.38748078346E+02  0.60988613657E+03  0.36155577899E+02  0.61218439949E+03  0.00000000000E+00 0.  1.
        -13    1    3    3    0    0  0.42224285867E+02  0.26662854478E+03 -0.22986261846E+02  0.27092810752E+03  0.00000000000E+00 0. -1.
         22    1    1    2    0    0 -0.80972364213E+02 -0.87651468136E+03  0.59069788191E+03  0.10600747606E+04  0.00000000000E+00 0.  1.
<mgrwt>
<rscale>  0 0.18469762E+04</rscale>
<asrwt>0</asrwt>
<pdfrwt beam="1">  1        1 0.10302462E+00 0.18469762E+04</pdfrwt>
<pdfrwt beam="2">  1       -1 0.19592727E+00 0.18469762E+04</pdfrwt>
<totfact> 0.43966708E+00</totfact>
</mgrwt>
</event>
<event>
 6    1  0.1588846E-005  0.1148731E+04  0.7818608E-02  0.9158955E-01
         -1   -1    0    0    0  501 -0.00000000000E+00  0.00000000000E+00  0.15819397054E+04  0.15819397054E+04  0.00000000000E+00 0.  1.
          1   -1    0    0  501    0  0.00000000000E+00 -0.00000000000E+00 -0.20853884226E+03  0.20853884226E+03  0.00000000000E+00 0. -1.
         23    2    1    2    0    0  0.23303629642E+01 -0.43856697868E+03  0.12602213853E+04  0.13375370287E+04  0.92200530572E+02 0.  0.
         11    1    3    3    0    0 -0.18780942356E+00 -0.96694601759E+02  0.40790112022E+03  0.41920544505E+03  0.00000000000E+00 0. -1.
        -11    1    3    3    0    0  0.25181723877E+01 -0.34187237692E+03  0.85232026505E+03  0.91833158364E+03  0.00000000000E+00 0.  1.
         22    1    1    2    0    0 -0.23303629642E+01  0.43856697868E+03  0.11317947783E+03  0.45294151894E+03  0.00000000000E+00 0. -1.
<mgrwt>
<rscale>  0 0.11487313E+04</rscale>
<asrwt>0</asrwt>
<pdfrwt beam="1">  1        1 0.32082900E-01 0.11487313E+04</pdfrwt>
<pdfrwt beam="2">  1       -1 0.24337533E+00 0.11487313E+04</pdfrwt>
<totfact> 0.10808682E+01</totfact>
</mgrwt>
</event>
<event>
 6    1  0.1588846E-005  0.3238243E+04  0.7818608E-02  0.8178790E-01
         -1   -1    0    0    0  501 -0.00000000000E+00  0.00000000000E+00  0.80291367451E+03  0.80291367451E+03  0.00000000000E+00 0.  1.
          1   -1    0    0  501    0  0.00000000000E+00 -0.00000000000E+00 -0.32650510180E+04  0.32650510180E+04  0.00000000000E+00 0. -1.
         23    2    1    2    0    0  0.15678943984E+04 -0.64699906393E+02 -0.73793679299E+03  0.17365817423E+04  0.93201474005E+02 0.  0.
         13    1    3    3    0    0  0.23391025826E+03 -0.16679973454E+01 -0.14649658533E+03  0.27600369680E+03  0.00000000000E+00 0.  1.
        -13    1    3    3    0    0  0.13339841401E+04 -0.63031909047E+02 -0.59144020766E+03  0.14605780455E+04  0.00000000000E+00 0. -1.
         22    1    1    2    0    0 -0.15678943984E+04  0.64699906393E+02 -0.17242005505E+04  0.23313829502E+04  0.00000000000E+00 0. -1.
<mgrwt>
<rscale>  0 0.32382428E+04</rscale>
<asrwt>0</asrwt>
<pdfrwt beam="1">  1        1 0.50231554E+00 0.32382428E+04</pdfrwt>
<pdfrwt beam="2">  1       -1 0.12352518E+00 0.32382428E+04</pdfrwt>
<totfact> 0.18228746E-01</totfact>
</mgrwt>
</event>
<event>
 6    1  0.1588846E-005  0.8828783E+03  0.7818608E-02  0.9447241E-01
          4   -1    0    0  501    0  0.00000000000E+00  0.00000000000E+00  0.21057950987E+03  0.21057950987E+03  0.00000000000E+00 0. -1.
         -4   -1    0    0    0  501 -0.00000000000E+00 -0.00000000000E+00 -0.92539156507E+03  0.92539156507E+03  0.00000000000E+00 0.  1.
         23    2    1    2    0    0  0.18502681171E+03  0.39461504810E+03 -0.39787392320E+03  0.59707800878E+03  0.90788394387E+02 0.  0.
         13    1    3    3    0    0  0.46280923971E+02  0.18211744411E+03 -0.13274949161E+03  0.23006763113E+03  0.00000000000E+00 0.  1.
        -13    1    3    3    0    0  0.13874588774E+03  0.21249760399E+03 -0.26512443160E+03  0.36701037764E+03  0.00000000000E+00 0. -1.
         22    1    1    2    0    0 -0.18502681171E+03 -0.39461504810E+03 -0.31693813200E+03  0.53889306616E+03  0.00000000000E+00 0.  1.
<mgrwt>
<rscale>  0 0.88287825E+03</rscale>
<asrwt>0</asrwt>
<pdfrwt beam="1">  1        4 0.32396848E-01 0.88287825E+03</pdfrwt>
<pdfrwt beam="2">  1       -4 0.14236793E+00 0.88287825E+03</pdfrwt>
<totfact> 0.63115086E+00</totfact>
</mgrwt>
</event>
<event>
 6    1  0.1588846E-005  0.2055556E+04  0.7818608E-02  0.8581078E-01
          2   -1    0    0  501    0  0.00000000000E+00  0.00000000000E+00  0.12059999516E+04  0.12059999516E+04  0.00000000000E+00 0. -1.
         -2   -1    0    0    0  501 -0.00000000000E+00 -0.00000000000E+00 -0.87589337093E+03  0.87589337093E+03  0.00000000000E+00 0.  1.
         23    2    1    2    0    0 -0.28182291311E+03  0.46339685198E+03 -0.71683372881E+03  0.90280689295E+03  0.83957694259E+02 0.  0.
         11    1    3    3    0    0 -0.11180274646E+02  0.32112645160E+02 -0.83638425799E+02  0.90286249178E+02  0.00000000000E+00 0. -1.
        -11    1    3    3    0    0 -0.27064263846E+03  0.43128420682E+03 -0.63319530301E+03  0.81252064378E+03  0.00000000000E+00 0.  1.
         22    1    1    2    0    0  0.28182291311E+03 -0.46339685198E+03  0.10469403095E+04  0.11790864296E+04  0.00000000000E+00 0. -1.
<mgrwt>
<rscale>  0 0.20555558E+04</rscale>
<asrwt>0</asrwt>
<pdfrwt beam="1">  1        2 0.18553845E+00 0.20555558E+04</pdfrwt>
<pdfrwt beam="2">  1       -2 0.13475283E+00 0.20555558E+04</pdfrwt>
<totfact> 0.68873636E+00</totfact>
</mgrwt>
</event>
<event>
 6    1  0.1588846E-005  0.4020933E+04  0.7818608E-02  0.8000337E-01
          2   -1    0    0  501    0  0.00000000000E+00  0.00000000000E+00  0.22559561480E+04  0.22559561480E+04  0.00000000000E+00 0.  1.
         -2   -1    0    0    0  501 -0.00000000000E+00 -0.00000000000E+00 -0.17916903109E+04  0.17916903109E+04  0.00000000000E+00 0. -1.
         23    2    1    2    0    0 -0.16266423948E+04  0.46455237998E+03 -0.85951544735E+03  0.18995842429E+04  0.88764280133E+02 0.  0.
         11    1    3    3    0    0 -0.75346356774E+03  0.25576505727E+03 -0.42737864396E+03  0.90320297705E+03  0.00000000000E+00 0. -1.
        -11    1    3    3    0    0 -0.87317882706E+03  0.20878732271E+03 -0.43213680340E+03  0.99638126588E+03  0.00000000000E+00 0.  1.
         22    1    1    2    0    0  0.16266423948E+04 -0.46455237998E+03  0.13237812845E+04  0.21480622159E+04  0.00000000000E+00 0.  1.
<mgrwt>
<rscale>  0 0.40209326E+04</rscale>
<asrwt>0</asrwt>
<pdfrwt beam="1">  1        2 0.34707018E+00 0.40209326E+04</pdfrwt>
<pdfrwt beam="2">  1       -2 0.27564466E+00 0.40209326E+04</pdfrwt>
<totfact> 0.16931312E-01</totfact>
</mgrwt>
</event>
<event>
 6    1  0.1588846E-005  0.4079036E+04  0.7818608E-02  0.7988790E-01
          2   -1    0    0  501    0  0.00000000000E+00  0.00000000000E+00  0.26264514492E+04  0.26264514492E+04  0.00000000000E+00 0. -1.
         -2   -1    0    0    0  501 -0.00000000000E+00 -0.00000000000E+00 -0.15837464073E+04  0.15837464073E+04  0.00000000000E+00 0.  1.
         23    2    1    2    0    0 -0.16920553158E+04 -0.47500189833E+03  0.15877129762E+04  0.23701675188E+04  0.90463127166E+02 0.  0.
         13    1    3    3    0    0 -0.80809829536E+03 -0.27093082408E+03  0.79008891595E+03  0.11621819399E+04  0.00000000000E+00 0.  1.
        -13    1    3    3    0    0 -0.88395702044E+03 -0.20407107425E+03  0.79762406023E+03  0.12079855789E+04  0.00000000000E+00 0. -1.
         22    1    1    2    0    0  0.16920553158E+04  0.47500189833E+03 -0.54500793427E+03  0.18400303377E+04  0.00000000000E+00 0.  1.
<mgrwt>
<rscale>  0 0.40790357E+04</rscale>
<asrwt>0</asrwt>
<pdfrwt beam="1">  1        2 0.40406945E+00 0.40790357E+04</pdfrwt>
<pdfrwt beam="2">  1       -2 0.24365329E+00 0.40790357E+04</pdfrwt>
<totfact> 0.16182648E-01</totfact>
</mgrwt>
</event>
<event>
 6    1  0.1588846E-005  0.7155773E+03  0.7818608E-02  0.9690958E-01
          2   -1    0    0  501    0  0.00000000000E+00  0.00000000000E+00  0.20670760677E+04  0.20670760677E+04  0.00000000000E+00 0. -1.
         -2   -1    0    0    0  501 -0.00000000000E+00 -0.00000000000E+00 -0.61929369741E+02  0.61929369741E+02  0.00000000000E+00 0.  1.
         23    2    1    2    0    0 -0.62155078300E+02 -0.32239683311E+03  0.13978801464E+04  0.14386608594E+04  0.88731014656E+02 0.  0.
         13    1    3    3    0    0  0.11620312278E+02 -0.93902274344E+02  0.51991626945E+03  0.52845586005E+03  0.00000000000E+00 0. -1.
        -13    1    3    3    0    0 -0.73775390578E+02 -0.22849455877E+03  0.87796387698E+03  0.91020499939E+03  0.00000000000E+00 0.  1.
         22    1    1    2    0    0  0.62155078300E+02  0.32239683311E+03  0.60726655153E+03  0.69034457800E+03  0.00000000000E+00 0.  1.
<mgrwt>
<rscale>  0 0.71557730E+03</rscale>
<asrwt>0</asrwt>
<pdfrwt beam="1">  1        2 0.31801165E+00 0.71557730E+03</pdfrwt>
<pdfrwt beam="2">  1       -2 0.95275969E-02 0.71557730E+03</pdfrwt>
<totfact> 0.46789716E+02</totfact>
</mgrwt>
</event>
<event>
 6    1  0.1588846E-005  0.1514744E+04  0.7818608E-02  0.8874707E-01
         -1   -1    0    0    0  501 -0.00000000000E+00  0.00000000000E+00  0.28978080831E+03  0.28978080831E+03  0.00000000000E+00 0.  1.
          1   -1    0    0  501    0  0.00000000000E+00 -0.00000000000E+00 -0.19794690224E+04  0.19794690224E+04  0.00000000000E+00 0. -1.
         23    2    1    2    0    0  0.52604392824E+03 -0.48789437881E+03 -0.49791780436E+03  0.87817835562E+03  0.92260203068E+02 0.  0.
         11    1    3    3    0    0  0.35459704726E+03 -0.34450057794E+03 -0.39150529579E+03  0.63063151741E+03  0.00000000000E+00 0. -1.
        -11    1    3    3    0    0  0.17144688098E+03 -0.14339380088E+03 -0.10641250858E+03  0.24754683821E+03  0.00000000000E+00 0.  1.
         22    1    1    2    0    0 -0.52604392824E+03  0.48789437881E+03 -0.11917704097E+04  0.13910714751E+04  0.00000000000E+00 0. -1.
<mgrwt>
<rscale>  0 0.15147437E+04</rscale>
<asrwt>0</asrwt>
<pdfrwt beam="1">  1        1 0.30453370E+00 0.15147437E+04</pdfrwt>
<pdfrwt beam="2">  1       -1 0.44581662E-01 0.15147437E+04</pdfrwt>
<totfact> 0.14825201E+01</totfact>
</mgrwt>
</event>
<event>
 6    1  0.1588846E-005  0.1602964E+04  0.7818608E-02  0.8818729E-01
          2   -1    0    0  501    0  0.00000000000E+00  0.00000000000E+00  0.11270768700E+04  0.11270768700E+04  0.00000000000E+00 0. -1.
         -2   -1    0    0    0  501 -0.00000000000E+00 -0.00000000000E+00 -0.56994661843E+03  0.56994661843E+03  0.00000000000E+00 0.  1.
         23    2    1    2    0    0  0.21681246482E+03 -0.58312516742E+03 -0.25164695173E+03  0.67664945387E+03  0.86519878244E+02 0.  0.
         13    1    3    3    0    0  0.13162883612E+03 -0.36434394986E+03 -0.20114493709E+03  0.43649965638E+03  0.00000000000E+00 0. -1.
        -13    1    3    3    0    0  0.85183628708E+02 -0.21878121756E+03 -0.50502014639E+02  0.24014979750E+03  0.00000000000E+00 0.  1.
         22    1    1    2    0    0 -0.21681246482E+03  0.58312516742E+03  0.80877720327E+03  0.10203740345E+04  0.00000000000E+00 0.  1.
<mgrwt>
<rscale>  0 0.16029643E+04</rscale>
<asrwt>0</asrwt>
<pdfrwt beam="1">  1        2 0.17339644E+00 0.16029643E+04</pdfrwt>
<pdfrwt beam="2">  1       -2 0.87684095E-01 0.16029643E+04</pdfrwt>
<totfact> 0.22561263E+01</totfact>
</mgrwt>
</event>
<event>
 6    1  0.1588846E-005  0.2430351E+04  0.7818608E-02  0.8428227E-01
          1   -1    0    0  501    0  0.00000000000E+00  0.00000000000E+00  0.13914674980E+04  0.13914674980E+04  0.00000000000E+00 0. -1.
         -1   -1    0    0    0  501 -0.00000000000E+00 -0.00000000000E+00 -0.10612186903E+04  0.10612186903E+04  0.00000000000E+00 0.  1.
         23    2    1    2    0    0  0.11036514382E+04  0.34628396146E+03  0.53617443104E+03  0.12777970695E+04  0.85575998065E+02 0.  0.
         13    1    3    3    0    0  0.29197745009E+03  0.65478584192E+02  0.16973258754E+03  0.34401660951E+03  0.00000000000E+00 0.  1.
        -13    1    3    3    0    0  0.81167398811E+03  0.28080537727E+03  0.36644184350E+03  0.93378046004E+03  0.00000000000E+00 0. -1.
         22    1    1    2    0    0 -0.11036514382E+04 -0.34628396146E+03 -0.20592562336E+03  0.11748891188E+04  0.00000000000E+00 0.  1.
<mgrwt>
<rscale>  0 0.24303509E+04</rscale>
<asrwt>0</asrwt>
<pdfrwt beam="1">  1        1 0.21407192E+00 0.24303509E+04</pdfrwt>
<pdfrwt beam="2">  1       -1 0.16326441E+00 0.24303509E+04</pdfrwt>
<totfact> 0.19226006E+00</totfact>
</mgrwt>
</event>
<event>
 6    1  0.1588846E-005  0.2974572E+04  0.7818608E-02  0.8251030E-01
          2   -1    0    0  501    0  0.00000000000E+00  0.00000000000E+00  0.19362801007E+04  0.19362801007E+04  0.00000000000E+00 0. -1.
         -2   -1    0    0    0  501 -0.00000000000E+00 -0.00000000000E+00 -0.11424066866E+04  0.11424066866E+04  0.00000000000E+00 0.  1.
         23    2    1    2    0    0  0.45862981126E+03  0.12825341981E+04 -0.21714005894E+03  0.13824015768E+04  0.93000220959E+02 0.  0.
         13    1    3    3    0    0  0.33539572989E+03  0.93602034554E+03 -0.20010690423E+03  0.10142322988E+04  0.00000000000E+00 0.  1.
        -13    1    3    3    0    0  0.12323408137E+03  0.34651385258E+03 -0.17033154710E+02  0.36816927791E+03  0.00000000000E+00 0. -1.
         22    1    1    2    0    0 -0.45862981126E+03 -0.12825341981E+04  0.10110134730E+04  0.16962852106E+04  0.00000000000E+00 0. -1.
<mgrwt>
<rscale>  0 0.29745718E+04</rscale>
<asrwt>0</asrwt>
<pdfrwt beam="1">  1        2 0.29788925E+00 0.29745718E+04</pdfrwt>
<pdfrwt beam="2">  1       -2 0.17575487E+00 0.29745718E+04</pdfrwt>
<totfact> 0.12070920E+00</totfact>
</mgrwt>
</event>
<event>
 6    1  0.1588846E-005  0.7995198E+03  0.7818608E-02  0.9560713E-01
         -2   -1    0    0    0  501 -0.00000000000E+00  0.00000000000E+00  0.73310955543E+02  0.73310955543E+02  0.00000000000E+00 0. -1.
          2   -1    0    0  501    0  0.00000000000E+00 -0.00000000000E+00 -0.21798646225E+04  0.21798646225E+04  0.00000000000E+00 0.  1.
         23    2    1    2    0    0 -0.15285015708E+03 -0.14000939584E+03 -0.20133696083E+04  0.20259112600E+04  0.87712328147E+02 0.  0.
         11    1    3    3    0    0 -0.11712430507E+03 -0.50244560797E+02 -0.10487082612E+04  0.10564239849E+04  0.00000000000E+00 0.  1.
        -11    1    3    3    0    0 -0.35725852011E+02 -0.89764835046E+02 -0.96466134704E+03  0.96948727510E+03  0.00000000000E+00 0. -1.
         22    1    1    2    0    0  0.15285015708E+03  0.14000939584E+03 -0.93184058644E+02  0.22726431798E+03  0.00000000000E+00 0. -1.
<mgrwt>
<rscale>  0 0.79951975E+03</rscale>
<asrwt>0</asrwt>
<pdfrwt beam="1">  1        2 0.33536377E+00 0.79951975E+03</pdfrwt>
<pdfrwt beam="2">  1       -2 0.11278609E-01 0.79951975E+03</pdfrwt>
<totfact> 0.30603101E+02</totfact>
</mgrwt>
</event>
<event>
 6    1  0.1588846E-005  0.1633493E+04  0.7818608E-02  0.8800232E-01
          2   -1    0    0  501    0  0.00000000000E+00  0.00000000000E+00  0.96861769923E+03  0.96861769923E+03  0.00000000000E+00 0.  1.
         -2   -1    0    0    0  501 -0.00000000000E+00 -0.00000000000E+00 -0.68868777417E+03  0.68868777417E+03  0.00000000000E+00 0. -1.
         23    2    1    2    0    0 -0.21339636421E+03 -0.73960865338E+03  0.40948721804E+03  0.87670054094E+03  0.91460856816E+02 0.  0.
         13    1    3    3    0    0 -0.14139181645E+03 -0.34763159720E+03  0.22466612748E+03  0.43739483532E+03  0.00000000000E+00 0. -1.
        -13    1    3    3    0    0 -0.72004547764E+02 -0.39197705619E+03  0.18482109056E+03  0.43930570562E+03  0.00000000000E+00 0.  1.
         22    1    1    2    0    0  0.21339636421E+03  0.73960865338E+03 -0.12955729298E+03  0.78060493246E+03  0.00000000000E+00 0. -1.
<mgrwt>
<rscale>  0 0.16334934E+04</rscale>
<asrwt>0</asrwt>
<pdfrwt beam="1">  1        2 0.14901811E+00 0.16334934E+04</pdfrwt>
<pdfrwt beam="2">  1       -2 0.10595197E+00 0.16334934E+04</pdfrwt>
<totfact> 0.18163528E+01</totfact>
</mgrwt>
</event>
<event>
 6    1  0.1588846E-005  0.2550203E+04  0.7818608E-02  0.8385316E-01
         -2   -1    0    0    0  501 -0.00000000000E+00  0.00000000000E+00  0.28332495613E+04  0.28332495613E+04  0.00000000000E+00 0.  1.
          2   -1    0    0  501    0  0.00000000000E+00 -0.00000000000E+00 -0.57385822111E+03  0.57385822111E+03  0.00000000000E+00 0. -1.
         23    2    1    2    0    0  0.28287959048E+03  0.38797473367E+03  0.27073986804E+04  0.27504070640E+04  0.64700435552E+02 0.  0.
         13    1    3    3    0    0  0.88235091750E+02  0.74415436310E+02  0.64998712443E+03  0.66015630763E+03  0.00000000000E+00 0.  1.
        -13    1    3    3    0    0  0.19464449873E+03  0.31355929736E+03  0.20574115560E+04  0.20902507564E+04  0.00000000000E+00 0. -1.
         22    1    1    2    0    0 -0.28287959048E+03 -0.38797473367E+03 -0.44800734022E+03  0.65670071842E+03  0.00000000000E+00 0. -1.
<mgrwt>
<rscale>  0 0.25502028E+04</rscale>
<asrwt>0</asrwt>
<pdfrwt beam="1">  1        2 0.88285882E-01 0.25502028E+04</pdfrwt>
<pdfrwt beam="2">  1       -2 0.43588454E+00 0.25502028E+04</pdfrwt>
<totfact> 0.19996199E-01</totfact>
</mgrwt>
</event>
<event>
 6    1  0.1588846E-005  0.2966608E+04  0.7818608E-02  0.8253331E-01
          1   -1    0    0  501    0  0.00000000000E+00  0.00000000000E+00  0.54252529042E+03  0.54252529042E+03  0.00000000000E+00 0. -1.
         -1   -1    0    0    0  501 -0.00000000000E+00 -0.00000000000E+00 -0.40554618734E+04  0.40554618734E+04  0.00000000000E+00 0.  1.
         23    2    1    2    0    0  0.72671159460E+03  0.12117879267E+03  0.23493142328E+03  0.77839181432E+03  0.88921321631E+02 0.  0.
         13    1    3    3    0    0  0.38513501800E+03  0.22918315846E+02  0.14084605960E+03  0.41072112655E+03  0.00000000000E+00 0. -1.
        -13    1    3    3    0    0  0.34157657661E+03  0.98260476821E+02  0.94085363683E+02  0.36767068778E+03  0.00000000000E+00 0.  1.
         22    1    1    2    0    0 -0.72671159460E+03 -0.12117879267E+03 -0.37478680062E+04  0.38195953495E+04  0.00000000000E+00 0.  1.
<mgrwt>
<rscale>  0 0.29666079E+04</rscale>
<asrwt>0</asrwt>
<pdfrwt beam="1">  1        1 0.83465428E-01 0.29666079E+04</pdfrwt>
<pdfrwt beam="2">  1       -1 0.62391722E+00 0.29666079E+04</pdfrwt>
<totfact> 0.11961404E-02</totfact>
</mgrwt>
</event>
<event>
 6    1  0.1588846E-005  0.1303181E+04  0.7818608E-02  0.9027047E-01
          2   -1    0    0  501    0  0.00000000000E+00  0.00000000000E+00  0.15556826800E+04  0.15556826800E+04  0.00000000000E+00 0. -1.
         -2   -1    0    0    0  501 -0.00000000000E+00 -0.00000000000E+00 -0.27291560833E+03  0.27291560833E+03  0.00000000000E+00 0.  1.
         23    2    1    2    0    0  0.60586959560E+03  0.63987627771E+01  0.96862846667E+03  0.11461014208E+04  0.90490050502E+02 0.  0.
         13    1    3    3    0    0  0.34015251428E+03 -0.35854747007E+02  0.50166965851E+03  0.60717521534E+03  0.00000000000E+00 0. -1.
        -13    1    3    3    0    0  0.26571708131E+03  0.42253509784E+02  0.46695880816E+03  0.53892620544E+03  0.00000000000E+00 0.  1.
         22    1    1    2    0    0 -0.60586959560E+03 -0.63987627771E+01  0.31413860496E+03  0.68249686751E+03  0.00000000000E+00 0. -1.
<mgrwt>
<rscale>  0 0.13031809E+04</rscale>
<asrwt>0</asrwt>
<pdfrwt beam="1">  1        2 0.23933579E+00 0.13031809E+04</pdfrwt>
<pdfrwt beam="2">  1       -2 0.41987017E-01 0.13031809E+04</pdfrwt>
<totfact> 0.62188581E+01</totfact>
</mgrwt>
</event>
<event>
 6    1  0.1588846E-005  0.3084263E+04  0.7818608E-02  0.8220070E-01
         -1   -1    0    0    0  501 -0.00000000000E+00  0.00000000000E+00  0.11584526801E+04  0.11584526801E+04  0.00000000000E+00 0.  1.
          1   -1    0    0  501    0  0.00000000000E+00 -0.00000000000E+00 -0.20528842784E+04  0.20528842784E+04  0.00000000000E+00 0. -1.
         23    2    1    2    0    0  0.45010220683E+03 -0.11324790217E+04 -0.14292679552E+04  0.18804911148E+04  0.91319294446E+02 0.  0.
         13    1    3    3    0    0  0.18618944659E+03 -0.40331010087E+03 -0.46472103261E+03  0.64287727106E+03  0.00000000000E+00 0. -1.
        -13    1    3    3    0    0  0.26391276024E+03 -0.72916892087E+03 -0.96454692262E+03  0.12376138437E+04  0.00000000000E+00 0.  1.
         22    1    1    2    0    0 -0.45010220683E+03  0.11324790217E+04  0.53483635691E+03  0.13308458438E+04  0.00000000000E+00 0.  1.
<mgrwt>
<rscale>  0 0.30842628E+04</rscale>
<asrwt>0</asrwt>
<pdfrwt beam="1">  1        1 0.31582835E+00 0.30842628E+04</pdfrwt>
<pdfrwt beam="2">  1       -1 0.17822349E+00 0.30842628E+04</pdfrwt>
<totfact> 0.49684784E-01</totfact>
</mgrwt>
</event>
<event>
 6    1  0.1588846E-005  0.1659630E+04  0.7818608E-02  0.8784730E-01
         -1   -1    0    0    0  501 -0.00000000000E+00  0.00000000000E+00  0.79129119788E+03  0.79129119788E+03  0.00000000000E+00 0.  1.
          1   -1    0    0  501    0  0.00000000000E+00 -0.00000000000E+00 -0.87021434917E+03  0.87021434917E+03  0.00000000000E+00 0. -1.
         23    2    1    2    0    0 -0.39317151161E+03 -0.32063423133E+02 -0.76777122519E+03  0.86770231604E+03  0.88446336207E+02 0.  0.
         13    1    3    3    0    0 -0.24944602951E+03 -0.35749539615E+02 -0.39920585338E+03  0.47208756030E+03  0.00000000000E+00 0. -1.
        -13    1    3    3    0    0 -0.14372548210E+03  0.36861164811E+01 -0.36856537181E+03  0.39561475574E+03  0.00000000000E+00 0.  1.
         22    1    1    2    0    0  0.39317151161E+03  0.32063423133E+02  0.68884807390E+03  0.79380323101E+03  0.00000000000E+00 0.  1.
<mgrwt>
<rscale>  0 0.16596300E+04</rscale>
<asrwt>0</asrwt>
<pdfrwt beam="1">  1        1 0.13387913E+00 0.16596300E+04</pdfrwt>
<pdfrwt beam="2">  1       -1 0.12173711E+00 0.16596300E+04</pdfrwt>
<totfact> 0.10991646E+01</totfact>
</mgrwt>
</event>
<event>
 6    1  0.1588846E-005  0.2990439E+04  0.7818608E-02  0.8246466E-01
          1   -1    0    0  501    0  0.00000000000E+00  0.00000000000E+00  0.12396109465E+04  0.12396109465E+04  0.00000000000E+00 0. -1.
         -1   -1    0    0    0  501 -0.00000000000E+00 -0.00000000000E+00 -0.18035350987E+04  0.18035350987E+04  0.00000000000E+00 0.  1.
         23    2    1    2    0    0 -0.14401408336E+04  0.38687367847E+03 -0.37005034290E+03  0.15393960934E+04  0.95531211634E+02 0.  0.
         13    1    3    3    0    0 -0.52903693851E+03  0.18591736029E+03 -0.15822732828E+03  0.58265018200E+03  0.00000000000E+00 0. -1.
        -13    1    3    3    0    0 -0.91110389507E+03  0.20095631818E+03 -0.21182301462E+03  0.95674591139E+03  0.00000000000E+00 0.  1.
         22    1    1    2    0    0  0.14401408336E+04 -0.38687367847E+03 -0.19387380923E+03  0.15037499518E+04  0.00000000000E+00 0. -1.
<mgrwt>
<rscale>  0 0.29904393E+04</rscale>
<asrwt>0</asrwt>
<pdfrwt beam="1">  1        1 0.19070938E+00 0.29904393E+04</pdfrwt>
<pdfrwt beam="2">  1       -1 0.27746694E+00 0.29904393E+04</pdfrwt>
<totfact> 0.39359522E-01</totfact>
</mgrwt>
</event>
<event>
 6    1  0.1588846E-005  0.5268763E+03  0.7818608E-02  0.1006993E+00
          2   -1    0    0  501    0  0.00000000000E+00  0.00000000000E+00  0.23567973661E+03  0.23567973661E+03  0.00000000000E+00 0. -1.
         -2   -1    0    0    0  501 -0.00000000000E+00 -0.00000000000E+00 -0.29446596143E+03  0.29446596143E+03  0.00000000000E+00 0.  1.
         23    2    1    2    0    0  0.68655804148E+02  0.21549365919E+03 -0.14967148240E+03  0.28640143320E+03  0.92049398168E+02 0.  0.
         11    1    3    3    0    0 -0.19616023757E+02  0.17367161985E+02 -0.25052684017E+02  0.36249740412E+02  0.00000000000E+00 0.  1.
        -11    1    3    3    0    0  0.88271827905E+02  0.19812649720E+03 -0.12461879838E+03  0.25015169279E+03  0.00000000000E+00 0. -1.
         22    1    1    2    0    0 -0.68655804148E+02 -0.21549365919E+03  0.90885257584E+02  0.24374426484E+03  0.00000000000E+00 0. -1.
<mgrwt>
<rscale>  0 0.52687631E+03</rscale>
<asrwt>0</asrwt>
<pdfrwt beam="1">  1        2 0.36258421E-01 0.52687631E+03</pdfrwt>
<pdfrwt beam="2">  1       -2 0.45302456E-01 0.52687631E+03</pdfrwt>
<totfact> 0.66828330E+02</totfact>
</mgrwt>
</event>
<event>
 6    1  0.1588846E-005  0.1207563E+04  0.7818608E-02  0.9106262E-01
         -1   -1    0    0    0  501 -0.00000000000E+00  0.00000000000E+00  0.13146686155E+03  0.13146686155E+03  0.00000000000E+00 0.  1.
          1   -1    0    0  501    0  0.00000000000E+00 -0.00000000000E+00 -0.27729580242E+04  0.27729580242E+04  0.00000000000E+00 0. -1.
         23    2    1    2    0    0  0.17002604195E+03 -0.35048621716E+03 -0.24268224535E+04  0.24596416823E+04  0.92846869182E+02 0.  0.
         13    1    3    3    0    0  0.12965787862E+03 -0.24564533168E+03 -0.19547145288E+04  0.19743509525E+04  0.00000000000E+00 0. -1.
        -13    1    3    3    0    0  0.40368163332E+02 -0.10484088548E+03 -0.47210792469E+03  0.48529072981E+03  0.00000000000E+00 0.  1.
         22    1    1    2    0    0 -0.17002604195E+03  0.35048621716E+03 -0.21466870910E+03  0.44478320340E+03  0.00000000000E+00 0.  1.
<mgrwt>
<rscale>  0 0.12075630E+04</rscale>
<asrwt>0</asrwt>
<pdfrwt beam="1">  1        1 0.42660894E+00 0.12075630E+04</pdfrwt>
<pdfrwt beam="2">  1       -1 0.20225671E-01 0.12075630E+04</pdfrwt>
<totfact> 0.17464958E+01</totfact>
</mgrwt>
</event>
<event>
 6    1  0.1588846E-005  0.3384881E+04  0.7818608E-02  0.8141627E-01
          2   -1    0    0  501    0  0.00000000000E+00  0.00000000000E+00  0.25289360831E+04  0.25289360831E+04  0.00000000000E+00 0. -1.
         -2   -1    0    0    0  501 -0.00000000000E+00 -0.00000000000E+00 -0.11326326040E+04  0.11326326040E+04  0.00000000000E+00 0.  1.
         23    2    1    2    0    0 -0.25550814350E+02 -0.11526814147E+04 -0.63973326965E+03  0.13217454181E+04  0.91787832432E+02 0.  0.
         11    1    3    3    0    0 -0.38370966697E+02 -0.18951001881E+03 -0.10670909549E+03  0.22084657429E+03  0.00000000000E+00 0.  1.
        -11    1    3    3    0    0  0.12820152347E+02 -0.96317139589E+03 -0.53302417416E+03  0.11008988439E+04  0.00000000000E+00 0. -1.
         22    1    1    2    0    0  0.25550814350E+02  0.11526814147E+04  0.20360367488E+04  0.23398232690E+04  0.00000000000E+00 0. -1.
<mgrwt>
<rscale>  0 0.33848814E+04</rscale>
<asrwt>0</asrwt>
<pdfrwt beam="1">  1        2 0.38906709E+00 0.33848814E+04</pdfrwt>
<pdfrwt beam="2">  1       -2 0.17425117E+00 0.33848814E+04</pdfrwt>
<totfact> 0.55233972E-01</totfact>
</mgrwt>
</event>
<event>
 6    1  0.1588846E-005  0.1177024E+04  0.7818608E-02  0.9133208E-01
         -1   -1    0    0    0  501 -0.00000000000E+00  0.00000000000E+00  0.46698040925E+03  0.46698040925E+03  0.00000000000E+00 0.  1.
          1   -1    0    0  501    0  0.00000000000E+00 -0.00000000000E+00 -0.74167254731E+03  0.74167254731E+03  0.00000000000E+00 0. -1.
         23    2    1    2    0    0 -0.37932098415E+03 -0.11258610198E+03  0.30425136031E+03  0.50741432836E+03  0.91325631686E+02 0.  0.
         11    1    3    3    0    0 -0.17414281823E+03 -0.98934371064E+02  0.14292807900E+03  0.24605317857E+03  0.00000000000E+00 0. -1.
        -11    1    3    3    0    0 -0.20517816592E+03 -0.13651730912E+02  0.16132328132E+03  0.26136114979E+03  0.00000000000E+00 0.  1.
         22    1    1    2    0    0  0.37932098415E+03  0.11258610198E+03 -0.57894349837E+03  0.70123862820E+03  0.00000000000E+00 0. -1.
<mgrwt>
<rscale>  0 0.11770243E+04</rscale>
<asrwt>0</asrwt>
<pdfrwt beam="1">  1        1 0.11410347E+00 0.11770243E+04</pdfrwt>
<pdfrwt beam="2">  1       -1 0.71843140E-01 0.11770243E+04</pdfrwt>
<totfact> 0.48330807E+01</totfact>
</mgrwt>
</event>
<event>
 6    1  0.1588846E-005  0.1120809E+04  0.7818608E-02  0.9185144E-01
          1   -1    0    0  501    0  0.00000000000E+00  0.00000000000E+00  0.41109130048E+04  0.41109130048E+04  0.00000000000E+00 0. -1.
         -1   -1    0    0    0  501 -0.00000000000E+00 -0.00000000000E+00 -0.76395006379E+02  0.76395006379E+02  0.00000000000E+00 0.  1.
         23    2    1    2    0    0 -0.53326039832E+03  0.18341804484E+02  0.14353910382E+04  0.15339772686E+04  0.89642366169E+02 0.  0.
         13    1    3    3    0    0 -0.44137268384E+03  0.11427612062E+02  0.10783713466E+04  0.11652575670E+04  0.00000000000E+00 0.  1.
        -13    1    3    3    0    0 -0.91887714475E+02  0.69141924212E+01  0.35701969162E+03  0.36871970158E+03  0.00000000000E+00 0. -1.
         22    1    1    2    0    0  0.53326039832E+03 -0.18341804484E+02  0.25991269602E+04  0.26533307426E+04  0.00000000000E+00 0. -1.
<mgrwt>
<rscale>  0 0.11208090E+04</rscale>
<asrwt>0</asrwt>
<pdfrwt beam="1">  1        1 0.63244798E+00 0.11208090E+04</pdfrwt>
<pdfrwt beam="2">  1       -1 0.11753081E-01 0.11208090E+04</pdfrwt>
<totfact> 0.38730772E+00</totfact>
</mgrwt>
</event>
<event>
 6    1  0.1588846E-005  0.1170720E+04  0.7818608E-02  0.9138878E-01
         -1   -1    0    0    0  501 -0.00000000000E+00  0.00000000000E+00  0.28427641592E+03  0.28427641592E+03  0.00000000000E+00 0.  1.
          1   -1    0    0  501    0  0.00000000000E+00 -0.00000000000E+00 -0.12053284980E+04  0.12053284980E+04  0.00000000000E+00 0. -1.
         23    2    1    2    0    0 -0.11369855402E+03  0.21239384689E+03  0.21024809707E+03  0.33293789065E+03  0.92762434892E+02 0.  0.
         11    1    3    3    0    0 -0.28077397793E+02  0.86756482115E+02  0.13599372839E+03  0.16373552338E+03  0.00000000000E+00 0. -1.
        -11    1    3    3    0    0 -0.85621156232E+02  0.12563736477E+03  0.74254368679E+02  0.16920236727E+03  0.00000000000E+00 0.  1.
         22    1    1    2    0    0  0.11369855402E+03 -0.21239384689E+03 -0.11313001792E+04  0.11566670233E+04  0.00000000000E+00 0. -1.
<mgrwt>
<rscale>  0 0.11707202E+04</rscale>
<asrwt>0</asrwt>
<pdfrwt beam="1">  1        1 0.18543516E+00 0.11707202E+04</pdfrwt>
<pdfrwt beam="2">  1       -1 0.43734833E-01 0.11707202E+04</pdfrwt>
<totfact> 0.54221839E+01</totfact>
</mgrwt>
</event>
<event>
 6    1  0.1588846E-005  0.2417988E+04  0.7818608E-02  0.8432800E-01
          2   -1    0    0  501    0  0.00000000000E+00  0.00000000000E+00  0.14282946094E+04  0.14282946094E+04  0.00000000000E+00 0. -1.
         -2   -1    0    0    0  501 -0.00000000000E+00 -0.00000000000E+00 -0.10233644254E+04  0.10233644254E+04  0.00000000000E+00 0.  1.
         23    2    1    2    0    0  0.15497922623E+03  0.10999386770E+04  0.68240160343E+03  0.13067249571E+04  0.89300120226E+02 0.  0.
         11    1    3    3    0    0  0.58991700925E+02  0.25787934423E+03  0.19909862012E+03  0.33109218881E+03  0.00000000000E+00 0. -1.
        -11    1    3    3    0    0  0.95987525301E+02  0.84205933277E+03  0.48330298331E+03  0.97563276830E+03  0.00000000000E+00 0.  1.
         22    1    1    2    0    0 -0.15497922623E+03 -0.10999386770E+04 -0.27747141937E+03  0.11449340777E+04  0.00000000000E+00 0.  1.
<mgrwt>
<rscale>  0 0.24179875E+04</rscale>
<asrwt>0</asrwt>
<pdfrwt beam="1">  1        2 0.21973763E+00 0.24179875E+04</pdfrwt>
<pdfrwt beam="2">  1       -2 0.15744068E+00 0.24179875E+04</pdfrwt>
<totfact> 0.32949856E+00</totfact>
</mgrwt>
</event>
<event>
 6    1  0.1588846E-005  0.2875186E+04  0.7818608E-02  0.8280299E-01
         -2   -1    0    0    0  501 -0.00000000000E+00  0.00000000000E+00  0.14875799132E+04  0.14875799132E+04  0.00000000000E+00 0.  1.
          2   -1    0    0  501    0  0.00000000000E+00 -0.00000000000E+00 -0.13892862187E+04  0.13892862187E+04  0.00000000000E+00 0. -1.
         23    2    1    2    0    0  0.63368132145E+03  0.12836273493E+04  0.16447893299E+03  0.14438163510E+04  0.91110629714E+02 0.  0.
         11    1    3    3    0    0  0.70627041133E+01  0.11676653894E+02  0.11156671670E+02  0.17626609382E+02  0.00000000000E+00 0. -1.
        -11    1    3    3    0    0  0.62661861734E+03  0.12719506954E+04  0.15332226132E+03  0.14261897416E+04  0.00000000000E+00 0.  1.
         22    1    1    2    0    0 -0.63368132145E+03 -0.12836273493E+04 -0.66185238497E+02  0.14330497810E+04  0.00000000000E+00 0. -1.
<mgrwt>
<rscale>  0 0.28751864E+04</rscale>
<asrwt>0</asrwt>
<pdfrwt beam="1">  1        2 0.21373634E+00 0.28751864E+04</pdfrwt>
<pdfrwt beam="2">  1       -2 0.22885845E+00 0.28751864E+04</pdfrwt>
<totfact> 0.11032923E+00</totfact>
</mgrwt>
</event>
<event>
 6    1  0.1588846E-005  0.2119235E+04  0.7818608E-02  0.8552817E-01
          2   -1    0    0  501    0  0.00000000000E+00  0.00000000000E+00  0.38137191116E+04  0.38137191116E+04  0.00000000000E+00 0. -1.
         -2   -1    0    0    0  501 -0.00000000000E+00 -0.00000000000E+00 -0.29440786851E+03  0.29440786851E+03  0.00000000000E+00 0.  1.
         23    2    1    2    0    0 -0.30220231602E+03 -0.42483818541E+03  0.35468030439E+04  0.35860450683E+04  0.89964860517E+02 0.  0.
         11    1    3    3    0    0 -0.11499653781E+03 -0.23908459680E+03  0.17995292352E+04  0.18189807906E+04  0.00000000000E+00 0.  1.
        -11    1    3    3    0    0 -0.18720577821E+03 -0.18575358861E+03  0.17472738086E+04  0.17670642777E+04  0.00000000000E+00 0. -1.
         22    1    1    2    0    0  0.30220231602E+03  0.42483818541E+03 -0.27491800741E+02  0.52208191187E+03  0.00000000000E+00 0.  1.
<mgrwt>
<rscale>  0 0.21192347E+04</rscale>
<asrwt>0</asrwt>
<pdfrwt beam="1">  1        2 0.58672598E+00 0.21192347E+04</pdfrwt>
<pdfrwt beam="2">  1       -2 0.45293521E-01 0.21192347E+04</pdfrwt>
<totfact> 0.20529630E+00</totfact>
</mgrwt>
</event>
<event>
 6    1  0.1588846E-005  0.4121088E+04  0.7818608E-02  0.7980555E-01
          2   -1    0    0  501    0  0.00000000000E+00  0.00000000000E+00  0.24464236583E+04  0.24464236583E+04  0.00000000000E+00 0.  1.
         -2   -1    0    0    0  501 -0.00000000000E+00 -0.00000000000E+00 -0.17355301267E+04  0.17355301267E+04  0.00000000000E+00 0. -1.
         23    2    1    2    0    0 -0.13265628020E+04  0.14781102973E+04 -0.19762279499E+03  0.19979252059E+04  0.89841196872E+02 0.  0.
         13    1    3    3    0    0 -0.69343502887E+03  0.77417719289E+03 -0.58325488866E+02  0.10409631732E+04  0.00000000000E+00 0. -1.
        -13    1    3    3    0    0 -0.63312777311E+03  0.70393310444E+03 -0.13929730613E+03  0.95696203274E+03  0.00000000000E+00 0.  1.
         22    1    1    2    0    0  0.13265628020E+04 -0.14781102973E+04  0.90851632662E+03  0.21840285791E+04  0.00000000000E+00 0. -1.
<mgrwt>
<rscale>  0 0.41210882E+04</rscale>
<asrwt>0</asrwt>
<pdfrwt beam="1">  1        2 0.37637287E+00 0.41210882E+04</pdfrwt>
<pdfrwt beam="2">  1       -2 0.26700463E+00 0.41210882E+04</pdfrwt>
<totfact> 0.14765103E-01</totfact>
</mgrwt>
</event>
<event>
 6    1  0.1588846E-005  0.2321770E+04  0.7818608E-02  0.8469387E-01
         -2   -1    0    0    0  501 -0.00000000000E+00  0.00000000000E+00  0.42480346393E+03  0.42480346393E+03  0.00000000000E+00 0. -1.
          2   -1    0    0  501    0  0.00000000000E+00 -0.00000000000E+00 -0.31724181705E+04  0.31724181705E+04  0.00000000000E+00 0.  1.
         23    2    1    2    0    0 -0.78346745122E+03  0.82238667187E+03 -0.10180316191E+04  0.15280191935E+04  0.91176712923E+02 0.  0.
         11    1    3    3    0    0 -0.26708541320E+03  0.34099073272E+03 -0.36779450558E+03  0.56822715183E+03  0.00000000000E+00 0. -1.
        -11    1    3    3    0    0 -0.51638203803E+03  0.48139593915E+03 -0.65023711350E+03  0.95979204164E+03  0.00000000000E+00 0.  1.
         22    1    1    2    0    0  0.78346745122E+03 -0.82238667187E+03 -0.17295830875E+04  0.20692024410E+04  0.00000000000E+00 0.  1.
<mgrwt>
<rscale>  0 0.23217702E+04</rscale>
<asrwt>0</asrwt>
<pdfrwt beam="1">  1        2 0.48806434E+00 0.23217702E+04</pdfrwt>
<pdfrwt beam="2">  1       -2 0.65354379E-01 0.23217702E+04</pdfrwt>
<totfact> 0.26424264E+00</totfact>
</mgrwt>
</event>
<event>
 6    1  0.1588846E-005  0.1314280E+04  0.7818608E-02  0.9018317E-01
         -2   -1    0    0    0  501 -0.00000000000E+00  0.00000000000E+00  0.94246351343E+03  0.94246351343E+03  0.00000000000E+00 0.  1.
          2   -1    0    0  501    0  0.00000000000E+00 -0.00000000000E+00 -0.45819607172E+03  0.45819607172E+03  0.00000000000E+00 0. -1.
         23    2    1    2    0    0  0.13250718475E+03  0.27038382232E+03 -0.37511122198E+03  0.49005689847E+03  0.93711095970E+02 0.  0.
         11    1    3    3    0    0  0.58853128293E+02  0.14921158309E+03 -0.12825069426E+03  0.20536803017E+03  0.00000000000E+00 0. -1.
        -11    1    3    3    0    0  0.73654056453E+02  0.12117223923E+03 -0.24686052772E+03  0.28468886831E+03  0.00000000000E+00 0.  1.
         22    1    1    2    0    0 -0.13250718475E+03 -0.27038382232E+03  0.85937866368E+03  0.91060268667E+03  0.00000000000E+00 0.  1.
<mgrwt>
<rscale>  0 0.13142802E+04</rscale>
<asrwt>0</asrwt>
<pdfrwt beam="1">  1        2 0.70491703E-01 0.13142802E+04</pdfrwt>
<pdfrwt beam="2">  1       -2 0.14499439E+00 0.13142802E+04</pdfrwt>
<totfact> 0.21841228E+01</totfact>
</mgrwt>
</event>
<event>
 6    1  0.1588846E-005  0.1814751E+04  0.7818608E-02  0.8698494E-01
          2   -1    0    0  501    0  0.00000000000E+00  0.00000000000E+00  0.94313442567E+03  0.94313442567E+03  0.00000000000E+00 0.  1.
         -2   -1    0    0    0  501 -0.00000000000E+00 -0.00000000000E+00 -0.87297223874E+03  0.87297223874E+03  0.00000000000E+00 0. -1.
         23    2    1    2    0    0 -0.18215974661E+03  0.86768394318E+03 -0.14757170228E+03  0.90316326799E+03  0.88706723509E+02 0.  0.
         13    1    3    3    0    0 -0.10711711581E+03  0.34003258956E+03 -0.33026234249E+02  0.35803208042E+03  0.00000000000E+00 0. -1.
        -13    1    3    3    0    0 -0.75042630806E+02  0.52765135362E+03 -0.11454546803E+03  0.54513118757E+03  0.00000000000E+00 0.  1.
         22    1    1    2    0    0  0.18215974661E+03 -0.86768394318E+03  0.21773388921E+03  0.91294339641E+03  0.00000000000E+00 0.  1.
<mgrwt>
<rscale>  0 0.18147509E+04</rscale>
<asrwt>0</asrwt>
<pdfrwt beam="1">  1        2 0.14509760E+00 0.18147509E+04</pdfrwt>
<pdfrwt beam="2">  1       -2 0.13430342E+00 0.18147509E+04</pdfrwt>
<totfact> 0.10341141E+01</totfact>
</mgrwt>
</event>
<event>
 6    1  0.1588846E-005  0.2392079E+04  0.7818608E-02  0.8442475E-01
         -1   -1    0    0    0  501 -0.00000000000E+00  0.00000000000E+00  0.22499747350E+04  0.22499747350E+04  0.00000000000E+00 0.  1.
          1   -1    0    0  501    0  0.00000000000E+00 -0.00000000000E+00 -0.63578982369E+03  0.63578982369E+03  0.00000000000E+00 0. -1.
         23    2    1    2    0    0  0.10187124569E+04 -0.51757903385E+03  0.38980155610E+03  0.12110174952E+04  0.94630832839E+02 0.  0.
         11    1    3    3    0    0  0.65334883438E+03 -0.36628589128E+03  0.28973197147E+03  0.80310314956E+03  0.00000000000E+00 0. -1.
        -11    1    3    3    0    0  0.36536362250E+03 -0.15129314258E+03  0.10006958462E+03  0.40791434567E+03  0.00000000000E+00 0.  1.
         22    1    1    2    0    0 -0.10187124569E+04  0.51757903385E+03  0.12243833553E+04  0.16747470635E+04  0.00000000000E+00 0.  1.
<mgrwt>
<rscale>  0 0.23920795E+04</rscale>
<asrwt>0</asrwt>
<pdfrwt beam="1">  1        1 0.97813821E-01 0.23920795E+04</pdfrwt>
<pdfrwt beam="2">  1       -1 0.34614995E+00 0.23920795E+04</pdfrwt>
<totfact> 0.46520149E-01</totfact>
</mgrwt>
</event>
<event>
 6    1  0.1588846E-005  0.2573140E+04  0.7818608E-02  0.8377382E-01
          2   -1    0    0  501    0  0.00000000000E+00  0.00000000000E+00  0.21014726262E+04  0.21014726262E+04  0.00000000000E+00 0. -1.
         -2   -1    0    0    0  501 -0.00000000000E+00 -0.00000000000E+00 -0.78766796622E+03  0.78766796622E+03  0.00000000000E+00 0.  1.
         23    2    1    2    0    0 -0.10458056043E+04  0.40567581133E+03  0.13615093030E+04  0.17663948693E+04  0.90338398576E+02 0.  0.
         11    1    3    3    0    0 -0.64260856702E+03  0.29583865023E+03  0.84896220521E+03  0.11050805868E+04  0.00000000000E+00 0. -1.
        -11    1    3    3    0    0 -0.40319703728E+03  0.10983716110E+03  0.51254709775E+03  0.66131428250E+03  0.00000000000E+00 0.  1.
         22    1    1    2    0    0  0.10458056043E+04 -0.40567581133E+03 -0.47704642977E+02  0.11227457232E+04  0.00000000000E+00 0.  1.
<mgrwt>
<rscale>  0 0.25731402E+04</rscale>
<asrwt>0</asrwt>
<pdfrwt beam="1">  1        2 0.32330348E+00 0.25731402E+04</pdfrwt>
<pdfrwt beam="2">  1       -2 0.12117969E+00 0.25731402E+04</pdfrwt>
<totfact> 0.26942264E+00</totfact>
</mgrwt>
</event>
<event>
 6    1  0.1755104E-005  0.2140146E+04  0.7818608E-02  0.8543762E-01
          1   -1    0    0  501    0  0.00000000000E+00  0.00000000000E+00  0.14922685953E+04  0.14922685953E+04  0.00000000000E+00 0. -1.
         -1   -1    0    0    0  501 -0.00000000000E+00 -0.00000000000E+00 -0.76732583789E+03  0.76732583789E+03  0.00000000000E+00 0.  1.
         23    2    1    2    0    0  0.96399020068E+03  0.65613566067E+02 -0.11707983855E+03  0.97796098358E+03  0.95486908756E+02 0.  0.
         11    1    3    3    0    0  0.55532476256E+03  0.73390758290E+02 -0.98901938280E+02  0.56881753552E+03  0.00000000000E+00 0.  1.
        -11    1    3    3    0    0  0.40866543812E+03 -0.77771922230E+01 -0.18177900268E+02  0.40914344806E+03  0.00000000000E+00 0. -1.
         22    1    1    2    0    0 -0.96399020068E+03 -0.65613566067E+02  0.84202259595E+03  0.12816334496E+04  0.00000000000E+00 0. -1.
<mgrwt>
<rscale>  0 0.21401460E+04</rscale>
<asrwt>0</asrwt>
<pdfrwt beam="1">  1        1 0.22957978E+00 0.21401460E+04</pdfrwt>
<pdfrwt beam="2">  1       -1 0.11805013E+00 0.21401460E+04</pdfrwt>
<totfact> 0.39112614E+00</totfact>
</mgrwt>
</event>
<event>
 6    1  0.1588846E-005  0.2659279E+04  0.7818608E-02  0.8348340E-01
          1   -1    0    0  501    0  0.00000000000E+00  0.00000000000E+00  0.14536311830E+04  0.14536311830E+04  0.00000000000E+00 0. -1.
         -1   -1    0    0    0  501 -0.00000000000E+00 -0.00000000000E+00 -0.12162240903E+04  0.12162240903E+04  0.00000000000E+00 0.  1.
         23    2    1    2    0    0 -0.54394614245E+03  0.17741744541E+03  0.13223561685E+04  0.14432873571E+04  0.84250833734E+02 0.  0.
         13    1    3    3    0    0 -0.48099887783E+03  0.18078002131E+03  0.12070970967E+04  0.13119164369E+04  0.00000000000E+00 0. -1.
        -13    1    3    3    0    0 -0.62947264618E+02 -0.33625759021E+01  0.11525907179E+03  0.13137092019E+03  0.00000000000E+00 0.  1.
         22    1    1    2    0    0  0.54394614245E+03 -0.17741744541E+03 -0.10849490758E+04  0.12265679162E+04  0.00000000000E+00 0.  1.
<mgrwt>
<rscale>  0 0.26592790E+04</rscale>
<asrwt>0</asrwt>
<pdfrwt beam="1">  1        1 0.22363557E+00 0.26592790E+04</pdfrwt>
<pdfrwt beam="2">  1       -1 0.18711140E+00 0.26592790E+04</pdfrwt>
<totfact> 0.11433760E+00</totfact>
</mgrwt>
</event>
<event>
 6    1  0.1588846E-005  0.6682728E+03  0.7818608E-02  0.9773083E-01
         -1   -1    0    0    0  501 -0.00000000000E+00  0.00000000000E+00  0.51439109751E+02  0.51439109751E+02  0.00000000000E+00 0.  1.
          1   -1    0    0  501    0  0.00000000000E+00 -0.00000000000E+00 -0.21704718840E+04  0.21704718840E+04  0.00000000000E+00 0. -1.
         23    2    1    2    0    0  0.20622704260E+03  0.17577576930E+03 -0.16933841974E+04  0.17173285672E+04  0.90778046307E+02 0.  0.
         13    1    3    3    0    0  0.90734386183E+02  0.90610739602E+02 -0.10691970263E+04  0.10768590047E+04  0.00000000000E+00 0. -1.
        -13    1    3    3    0    0  0.11549265642E+03  0.85165029702E+02 -0.62418717108E+03  0.64046956251E+03  0.00000000000E+00 0.  1.
         22    1    1    2    0    0 -0.20622704260E+03 -0.17577576930E+03 -0.42564857689E+03  0.50458242655E+03  0.00000000000E+00 0.  1.
<mgrwt>
<rscale>  0 0.66827282E+03</rscale>
<asrwt>0</asrwt>
<pdfrwt beam="1">  1        1 0.33391881E+00 0.66827282E+03</pdfrwt>
<pdfrwt beam="2">  1       -1 0.79137078E-02 0.66827282E+03</pdfrwt>
<totfact> 0.21668842E+02</totfact>
</mgrwt>
</event>
<event>
 6    1  0.1588846E-005  0.1266147E+04  0.7818608E-02  0.9056850E-01
          2   -1    0    0  501    0  0.00000000000E+00  0.00000000000E+00  0.28415394692E+04  0.28415394692E+04  0.00000000000E+00 0. -1.
         -2   -1    0    0    0  501 -0.00000000000E+00 -0.00000000000E+00 -0.14104392272E+03  0.14104392272E+03  0.00000000000E+00 0.  1.
         23    2    1    2    0    0  0.18014673670E+03  0.48045428330E+03  0.22171613613E+04  0.22776712700E+04  0.93234901473E+02 0.  0.
         13    1    3    3    0    0  0.11112852897E+03  0.39556174892E+03  0.18117929404E+04  0.18577977032E+04  0.00000000000E+00 0. -1.
        -13    1    3    3    0    0  0.69018207723E+02  0.84892534388E+02  0.40536842098E+03  0.41987356682E+03  0.00000000000E+00 0.  1.
         22    1    1    2    0    0 -0.18014673670E+03 -0.48045428330E+03  0.48333418510E+03  0.70491212188E+03  0.00000000000E+00 0.  1.
<mgrwt>
<rscale>  0 0.12661467E+04</rscale>
<asrwt>0</asrwt>
<pdfrwt beam="1">  1        2 0.43715988E+00 0.12661467E+04</pdfrwt>
<pdfrwt beam="2">  1       -2 0.21699067E-01 0.12661467E+04</pdfrwt>
<totfact> 0.40052724E+01</totfact>
</mgrwt>
</event>
<event>
 6    1  0.1588846E-005  0.1362611E+04  0.7818608E-02  0.8981336E-01
         -2   -1    0    0    0  501 -0.00000000000E+00  0.00000000000E+00  0.37771820370E+03  0.37771820370E+03  0.00000000000E+00 0.  1.
          2   -1    0    0  501    0  0.00000000000E+00 -0.00000000000E+00 -0.12288987215E+04  0.12288987215E+04  0.00000000000E+00 0. -1.
         23    2    1    2    0    0  0.23917622251E+03 -0.11842278488E+03  0.30679221392E+03  0.41828613423E+03  0.98043899231E+02 0.  0.
         11    1    3    3    0    0  0.18795969173E+03 -0.10398598006E+03  0.17813599680E+03  0.27905978414E+03  0.00000000000E+00 0.  1.
        -11    1    3    3    0    0  0.51216530776E+02 -0.14436804818E+02  0.12865621711E+03  0.13922635009E+03  0.00000000000E+00 0. -1.
         22    1    1    2    0    0 -0.23917622251E+03  0.11842278488E+03 -0.11579727317E+04  0.11883307910E+04  0.00000000000E+00 0. -1.
<mgrwt>
<rscale>  0 0.13626113E+04</rscale>
<asrwt>0</asrwt>
<pdfrwt beam="1">  1        2 0.18906134E+00 0.13626113E+04</pdfrwt>
<pdfrwt beam="2">  1       -2 0.58110493E-01 0.13626113E+04</pdfrwt>
<totfact> 0.49223057E+01</totfact>
</mgrwt>
</event>
<event>
 6    1  0.1588846E-005  0.2087606E+04  0.7818608E-02  0.8566723E-01
          1   -1    0    0  501    0  0.00000000000E+00  0.00000000000E+00  0.22126725089E+04  0.22126725089E+04  0.00000000000E+00 0. -1.
         -1   -1    0    0    0  501 -0.00000000000E+00 -0.00000000000E+00 -0.49240236707E+03  0.49240236707E+03  0.00000000000E+00 0.  1.
         23    2    1    2    0    0  0.51294345074E+03  0.35231031652E+03  0.19444473856E+04  0.20436453791E+04  0.91527357895E+02 0.  0.
         13    1    3    3    0    0  0.21564915668E+01  0.42818931869E+01  0.19348949093E+01  0.51699983996E+01  0.00000000000E+00 0.  1.
        -13    1    3    3    0    0  0.51078695918E+03  0.34802842333E+03  0.19425124907E+04  0.20384753807E+04  0.00000000000E+00 0. -1.
         22    1    1    2    0    0 -0.51294345074E+03 -0.35231031652E+03 -0.22417724375E+03  0.66142949693E+03  0.00000000000E+00 0.  1.
<mgrwt>
<rscale>  0 0.20876065E+04</rscale>
<asrwt>0</asrwt>
<pdfrwt beam="1">  1        1 0.34041115E+00 0.20876065E+04</pdfrwt>
<pdfrwt beam="2">  1       -1 0.75754211E-01 0.20876065E+04</pdfrwt>
<totfact> 0.34421647E+00</totfact>
</mgrwt>
</event>
<event>
 6    1  0.1588846E-005  0.1429536E+04  0.7818608E-02  0.8932712E-01
         -2   -1    0    0    0  501 -0.00000000000E+00  0.00000000000E+00  0.63226730477E+03  0.63226730477E+03  0.00000000000E+00 0. -1.
          2   -1    0    0  501    0  0.00000000000E+00 -0.00000000000E+00 -0.80803329951E+03  0.80803329951E+03  0.00000000000E+00 0.  1.
         23    2    1    2    0    0 -0.39674855277E+03  0.49530017458E+03 -0.41259494550E+03  0.76293834596E+03  0.95439266691E+02 0.  0.
         13    1    3    3    0    0 -0.33847062862E+03  0.38440975627E+03 -0.29470646365E+03  0.59091888349E+03  0.00000000000E+00 0.  1.
        -13    1    3    3    0    0 -0.58277924159E+02  0.11089041831E+03 -0.11788848184E+03  0.17201946247E+03  0.00000000000E+00 0. -1.
         22    1    1    2    0    0  0.39674855277E+03 -0.49530017458E+03  0.23682895076E+03  0.67736225831E+03  0.00000000000E+00 0. -1.
<mgrwt>
<rscale>  0 0.14295356E+04</rscale>
<asrwt>0</asrwt>
<pdfrwt beam="1">  1        2 0.12431281E+00 0.14295356E+04</pdfrwt>
<pdfrwt beam="2">  1       -2 0.97271894E-01 0.14295356E+04</pdfrwt>
<totfact> 0.29115115E+01</totfact>
</mgrwt>
</event>
<event>
 6    1  0.1588846E-005  0.2438610E+04  0.7818608E-02  0.8425189E-01
          2   -1    0    0  501    0  0.00000000000E+00  0.00000000000E+00  0.18950187798E+04  0.18950187798E+04  0.00000000000E+00 0. -1.
         -2   -1    0    0    0  501 -0.00000000000E+00 -0.00000000000E+00 -0.78453270138E+03  0.78453270138E+03  0.00000000000E+00 0.  1.
         23    2    1    2    0    0  0.10162359605E+03 -0.11774552191E+04  0.23399998816E+03  0.12081725311E+04  0.90535750334E+02 0.  0.
         13    1    3    3    0    0  0.56441722391E+02 -0.88963098490E+03  0.14210902977E+03  0.90267598487E+03  0.00000000000E+00 0.  1.
        -13    1    3    3    0    0  0.45181873660E+02 -0.28782423423E+03  0.91890958388E+02  0.30549654622E+03  0.00000000000E+00 0. -1.
         22    1    1    2    0    0 -0.10162359605E+03  0.11774552191E+04  0.87648609024E+03  0.14713789501E+04  0.00000000000E+00 0. -1.
<mgrwt>
<rscale>  0 0.24386096E+04</rscale>
<asrwt>0</asrwt>
<pdfrwt beam="1">  1        2 0.29154135E+00 0.24386096E+04</pdfrwt>
<pdfrwt beam="2">  1       -2 0.12069734E+00 0.24386096E+04</pdfrwt>
<totfact> 0.35855268E+00</totfact>
</mgrwt>
</event>
<event>
 6    1  0.1588846E-005  0.2199901E+04  0.7818608E-02  0.8518469E-01
         -1   -1    0    0    0  501 -0.00000000000E+00  0.00000000000E+00  0.21468151481E+04  0.21468151481E+04  0.00000000000E+00 0.  1.
          1   -1    0    0  501    0  0.00000000000E+00 -0.00000000000E+00 -0.56357504930E+03  0.56357504930E+03  0.00000000000E+00 0. -1.
         23    2    1    2    0    0 -0.39694901865E+03  0.25232743808E+03  0.20154694574E+04  0.20715945510E+04  0.90272868544E+02 0.  0.
         11    1    3    3    0    0 -0.19901956644E+03  0.17445983901E+03  0.10329391703E+04  0.10663059377E+04  0.00000000000E+00 0. -1.
        -11    1    3    3    0    0 -0.19792945221E+03  0.77867599074E+02  0.98253028705E+03  0.10052886133E+04  0.00000000000E+00 0.  1.
         22    1    1    2    0    0  0.39694901865E+03 -0.25232743808E+03 -0.43222935857E+03  0.63879564638E+03  0.00000000000E+00 0. -1.
<mgrwt>
<rscale>  0 0.21999013E+04</rscale>
<asrwt>0</asrwt>
<pdfrwt beam="1">  1        1 0.86703855E-01 0.21999013E+04</pdfrwt>
<pdfrwt beam="2">  1       -1 0.33027925E+00 0.21999013E+04</pdfrwt>
<totfact> 0.71667793E-01</totfact>
</mgrwt>
</event>
<event>
 6    1  0.1588846E-005  0.2172638E+04  0.7818608E-02  0.8529904E-01
         -1   -1    0    0    0  501 -0.00000000000E+00  0.00000000000E+00  0.71040858266E+03  0.71040858266E+03  0.00000000000E+00 0.  1.
          1   -1    0    0  501    0  0.00000000000E+00 -0.00000000000E+00 -0.16611416221E+04  0.16611416221E+04  0.00000000000E+00 0. -1.
         23    2    1    2    0    0 -0.41010798012E+03 -0.10000843134E+04 -0.56455103952E+03  0.12237289093E+04  0.10216348639E+03 0.  0.
         13    1    3    3    0    0 -0.23459316364E+03 -0.47561852077E+03 -0.31652797095E+03  0.61760576917E+03  0.00000000000E+00 0. -1.
        -13    1    3    3    0    0 -0.17551481647E+03 -0.52446579262E+03 -0.24802306857E+03  0.60612314011E+03  0.00000000000E+00 0.  1.
         22    1    1    2    0    0  0.41010798012E+03  0.10000843134E+04 -0.38618199988E+03  0.11478212954E+04  0.00000000000E+00 0. -1.
<mgrwt>
<rscale>  0 0.21726383E+04</rscale>
<asrwt>0</asrwt>
<pdfrwt beam="1">  1        1 0.25556025E+00 0.21726383E+04</pdfrwt>
<pdfrwt beam="2">  1       -1 0.10929363E+00 0.21726383E+04</pdfrwt>
<totfact> 0.35877511E+00</totfact>
</mgrwt>
</event>
<event>
 6    1  0.1588846E-005  0.1535643E+04  0.7818608E-02  0.8861090E-01
          1   -1    0    0  501    0  0.00000000000E+00  0.00000000000E+00  0.56628167150E+03  0.56628167150E+03  0.00000000000E+00 0. -1.
         -1   -1    0    0    0  501 -0.00000000000E+00 -0.00000000000E+00 -0.10410899404E+04  0.10410899404E+04  0.00000000000E+00 0.  1.
         23    2    1    2    0    0  0.69540977703E+02 -0.59016047070E+03  0.26620504886E+03  0.65751579871E+03  0.91304812356E+02 0.  0.
         13    1    3    3    0    0 -0.22518503129E+02 -0.13034879962E+03  0.58960297126E+02  0.14482475335E+03  0.00000000000E+00 0. -1.
        -13    1    3    3    0    0  0.92059480833E+02 -0.45981167107E+03  0.20724475173E+03  0.51269104535E+03  0.00000000000E+00 0.  1.
         22    1    1    2    0    0 -0.69540977703E+02  0.59016047070E+03 -0.74101331772E+03  0.94985581316E+03  0.00000000000E+00 0.  1.
<mgrwt>
<rscale>  0 0.15356434E+04</rscale>
<asrwt>0</asrwt>
<pdfrwt beam="1">  1        1 0.87120258E-01 0.15356434E+04</pdfrwt>
<pdfrwt beam="2">  1       -1 0.16016768E+00 0.15356434E+04</pdfrwt>
<totfact> 0.10459873E+01</totfact>
</mgrwt>
</event>
<event>
 6    1  0.1588846E-005  0.3737208E+04  0.7818608E-02  0.8059766E-01
         -2   -1    0    0    0  501 -0.00000000000E+00  0.00000000000E+00  0.11330750447E+04  0.11330750447E+04  0.00000000000E+00 0.  1.
          2   -1    0    0  501    0  0.00000000000E+00 -0.00000000000E+00 -0.30815978729E+04  0.30815978729E+04  0.00000000000E+00 0. -1.
         23    2    1    2    0    0  0.16120867285E+04 -0.37753310088E+03 -0.58457901585E+00  0.16581482679E+04  0.90002634059E+02 0.  0.
         13    1    3    3    0    0  0.93480974154E+03 -0.17366567748E+03  0.59616937761E+01  0.95082309722E+03  0.00000000000E+00 0.  1.
        -13    1    3    3    0    0  0.67727698692E+03 -0.20386742340E+03 -0.65462727919E+01  0.70732517064E+03  0.00000000000E+00 0. -1.
         22    1    1    2    0    0 -0.16120867285E+04  0.37753310088E+03 -0.19479382491E+04  0.25565246497E+04  0.00000000000E+00 0.  1.
<mgrwt>
<rscale>  0 0.37372084E+04</rscale>
<asrwt>0</asrwt>
<pdfrwt beam="1">  1        2 0.47409198E+00 0.37372084E+04</pdfrwt>
<pdfrwt beam="2">  1       -2 0.17431924E+00 0.37372084E+04</pdfrwt>
<totfact> 0.24734429E-01</totfact>
</mgrwt>
</event>
<event>
 6    1  0.1588846E-005  0.3558197E+04  0.7818608E-02  0.8100135E-01
         -1   -1    0    0    0  501 -0.00000000000E+00  0.00000000000E+00  0.12964600879E+04  0.12964600879E+04  0.00000000000E+00 0.  1.
          1   -1    0    0  501    0  0.00000000000E+00 -0.00000000000E+00 -0.24414111512E+04  0.24414111512E+04  0.00000000000E+00 0. -1.
         23    2    1    2    0    0  0.83370793316E+02  0.16910167373E+04 -0.11430606535E+04  0.20447995133E+04  0.90161505877E+02 0.  0.
         13    1    3    3    0    0  0.77368326749E+02  0.10281551434E+04 -0.65329305391E+03  0.12206066816E+04  0.00000000000E+00 0.  1.
        -13    1    3    3    0    0  0.60024665665E+01  0.66286159392E+03 -0.48976759955E+03  0.82419283172E+03  0.00000000000E+00 0. -1.
         22    1    1    2    0    0 -0.83370793316E+02 -0.16910167373E+04 -0.18904098296E+01  0.16930717258E+04  0.00000000000E+00 0.  1.
<mgrwt>
<rscale>  0 0.35581974E+04</rscale>
<asrwt>0</asrwt>
<pdfrwt beam="1">  1        1 0.37560172E+00 0.35581974E+04</pdfrwt>
<pdfrwt beam="2">  1       -1 0.19945540E+00 0.35581974E+04</pdfrwt>
<totfact> 0.18332219E-01</totfact>
</mgrwt>
</event>
<event>
 6    1  0.1588846E-005  0.6047838E+03  0.7818608E-02  0.9895531E-01
         -1   -1    0    0    0  501 -0.00000000000E+00  0.00000000000E+00  0.18540633663E+03  0.18540633663E+03  0.00000000000E+00 0.  1.
          1   -1    0    0  501    0  0.00000000000E+00 -0.00000000000E+00 -0.49319167233E+03  0.49319167233E+03  0.00000000000E+00 0. -1.
         23    2    1    2    0    0  0.83634233683E+01 -0.22548808976E+03  0.57044747001E+02  0.24962736343E+03  0.90249055073E+02 0.  0.
         11    1    3    3    0    0 -0.17837494577E+02 -0.20983292923E+03  0.39000046134E+02  0.21417058155E+03  0.00000000000E+00 0. -1.
        -11    1    3    3    0    0  0.26200917945E+02 -0.15655160528E+02  0.18044700868E+02  0.35456781886E+02  0.00000000000E+00 0.  1.
         22    1    1    2    0    0 -0.83634233683E+01  0.22548808976E+03 -0.36483008271E+03  0.42897064553E+03  0.00000000000E+00 0. -1.
<mgrwt>
<rscale>  0 0.60478380E+03</rscale>
<asrwt>0</asrwt>
<pdfrwt beam="1">  1        1 0.75875641E-01 0.60478380E+03</pdfrwt>
<pdfrwt beam="2">  1       -1 0.28524052E-01 0.60478380E+03</pdfrwt>
<totfact> 0.50869932E+02</totfact>
</mgrwt>
</event>
<event>
 6    1  0.1868947E-005  0.4577611E+04  0.7818608E-02  0.7897188E-01
         -2   -1    0    0    0  501 -0.00000000000E+00  0.00000000000E+00  0.22280337000E+04  0.22280337000E+04  0.00000000000E+00 0.  1.
          2   -1    0    0  501    0  0.00000000000E+00 -0.00000000000E+00 -0.23512352963E+04  0.23512352963E+04  0.00000000000E+00 0. -1.
         23    2    1    2    0    0 -0.52687545099E+03 -0.85600369022E+03 -0.21176242903E+04  0.23458720452E+04  0.91885576070E+02 0.  0.
         13    1    3    3    0    0 -0.23691710092E+03 -0.38012801119E+03 -0.83859820473E+03  0.95072286528E+03  0.00000000000E+00 0.  1.
        -13    1    3    3    0    0 -0.28995835007E+03 -0.47587567903E+03 -0.12790260856E+04  0.13951491799E+04  0.00000000000E+00 0. -1.
         22    1    1    2    0    0  0.52687545099E+03  0.85600369022E+03  0.19944226940E+04  0.22333969510E+04  0.00000000000E+00 0.  1.
<mgrwt>
<rscale>  0 0.45776114E+04</rscale>
<asrwt>0</asrwt>
<pdfrwt beam="1">  1        2 0.36172850E+00 0.45776114E+04</pdfrwt>
<pdfrwt beam="2">  1       -2 0.34277442E+00 0.45776114E+04</pdfrwt>
<totfact> 0.55142848E-02</totfact>
</mgrwt>
</event>
<event>
 6    1  0.1588846E-005  0.1388540E+04  0.7818608E-02  0.8962156E-01
          3   -1    0    0  501    0  0.00000000000E+00  0.00000000000E+00  0.41147837558E+03  0.41147837558E+03  0.00000000000E+00 0. -1.
         -3   -1    0    0    0  501 -0.00000000000E+00 -0.00000000000E+00 -0.11714115863E+04  0.11714115863E+04  0.00000000000E+00 0.  1.
         23    2    1    2    0    0  0.23891099660E+03 -0.22777057039E+02  0.35711366377E+03  0.44035288221E+03  0.93718906314E+02 0.  0.
         13    1    3    3    0    0  0.17461844615E+03 -0.17695255635E+02  0.32248039715E+03  0.36714892122E+03  0.00000000000E+00 0.  1.
        -13    1    3    3    0    0  0.64292550445E+02 -0.50818014048E+01  0.34633266621E+02  0.73203960993E+02  0.00000000000E+00 0. -1.
         22    1    1    2    0    0 -0.23891099660E+03  0.22777057039E+02 -0.11170468745E+04  0.11425370796E+04  0.00000000000E+00 0.  1.
<mgrwt>
<rscale>  0 0.13885396E+04</rscale>
<asrwt>0</asrwt>
<pdfrwt beam="1">  1        3 0.63304367E-01 0.13885396E+04</pdfrwt>
<pdfrwt beam="2">  1       -3 0.18021716E+00 0.13885396E+04</pdfrwt>
<totfact> 0.12186370E+00</totfact>
</mgrwt>
</event>
<event>
 6    1  0.1588846E-005  0.2210987E+04  0.7818608E-02  0.8513869E-01
         -1   -1    0    0    0  501 -0.00000000000E+00  0.00000000000E+00  0.47552793826E+03  0.47552793826E+03  0.00000000000E+00 0.  1.
          1   -1    0    0  501    0  0.00000000000E+00 -0.00000000000E+00 -0.25700195428E+04  0.25700195428E+04  0.00000000000E+00 0. -1.
         23    2    1    2    0    0 -0.73744911737E+03 -0.53453578565E+03 -0.19074759320E+04  0.21157439703E+04  0.91369632080E+02 0.  0.
         13    1    3    3    0    0 -0.59326447446E+03 -0.38281180066E+03 -0.14764791616E+04  0.16366118434E+04  0.00000000000E+00 0.  1.
        -13    1    3    3    0    0 -0.14418464291E+03 -0.15172398499E+03 -0.43099677044E+03  0.47913212688E+03  0.00000000000E+00 0. -1.
         22    1    1    2    0    0  0.73744911737E+03  0.53453578565E+03 -0.18701567248E+03  0.92980351075E+03  0.00000000000E+00 0.  1.
<mgrwt>
<rscale>  0 0.22109872E+04</rscale>
<asrwt>0</asrwt>
<pdfrwt beam="1">  1        1 0.39538763E+00 0.22109872E+04</pdfrwt>
<pdfrwt beam="2">  1       -1 0.73158143E-01 0.22109872E+04</pdfrwt>
<totfact> 0.20772181E+00</totfact>
</mgrwt>
</event>
<event>
 6    1  0.1588846E-005  0.4792548E+04  0.7818608E-02  0.7861330E-01
         -2   -1    0    0    0  501 -0.00000000000E+00  0.00000000000E+00  0.25530886977E+04  0.25530886977E+04  0.00000000000E+00 0. -1.
          2   -1    0    0  501    0  0.00000000000E+00 -0.00000000000E+00 -0.22490914605E+04  0.22490914605E+04  0.00000000000E+00 0.  1.
         23    2    1    2    0    0  0.90275721644E+03  0.18410585622E+04  0.13929674586E+04  0.24804731645E+04  0.89003134936E+02 0.  0.
         13    1    3    3    0    0  0.23627594351E+03  0.57330283375E+03  0.42931037784E+03  0.75419484299E+03  0.00000000000E+00 0. -1.
        -13    1    3    3    0    0  0.66648127293E+03  0.12677557284E+04  0.96365708077E+03  0.17262783216E+04  0.00000000000E+00 0.  1.
         22    1    1    2    0    0 -0.90275721644E+03 -0.18410585622E+04 -0.10889702213E+04  0.23217069936E+04  0.00000000000E+00 0.  1.
<mgrwt>
<rscale>  0 0.47925484E+04</rscale>
<asrwt>0</asrwt>
<pdfrwt beam="1">  1        2 0.34601407E+00 0.47925484E+04</pdfrwt>
<pdfrwt beam="2">  1       -2 0.39278288E+00 0.47925484E+04</pdfrwt>
<totfact> 0.29675227E-02</totfact>
</mgrwt>
</event>
<event>
 6    1  0.1588846E-005  0.2629555E+04  0.7818608E-02  0.8358231E-01
          2   -1    0    0  501    0  0.00000000000E+00  0.00000000000E+00  0.23995251630E+04  0.23995251630E+04  0.00000000000E+00 0. -1.
         -2   -1    0    0    0  501 -0.00000000000E+00 -0.00000000000E+00 -0.72040939562E+03  0.72040939562E+03  0.00000000000E+00 0.  1.
         23    2    1    2    0    0 -0.62393749114E+03  0.10803050365E+04  0.13281419721E+04  0.18239640460E+04  0.80788479384E+02 0.  0.
         11    1    3    3    0    0 -0.41227170802E+03  0.74200866988E+03  0.85157336276E+03  0.12023818111E+04  0.00000000000E+00 0. -1.
        -11    1    3    3    0    0 -0.21166578312E+03  0.33829636658E+03  0.47656860931E+03  0.62158223492E+03  0.00000000000E+00 0.  1.
         22    1    1    2    0    0  0.62393749114E+03 -0.10803050365E+04  0.35097379532E+03  0.12959705126E+04  0.00000000000E+00 0.  1.
<mgrwt>
<rscale>  0 0.26295555E+04</rscale>
<asrwt>0</asrwt>
<pdfrwt beam="1">  1        2 0.36915771E+00 0.26295555E+04</pdfrwt>
<pdfrwt beam="2">  1       -2 0.11083222E+00 0.26295555E+04</pdfrwt>
<totfact> 0.22640419E+00</totfact>
</mgrwt>
</event>
<event>
 6    1  0.1588846E-005  0.2188875E+04  0.7818608E-02  0.8523073E-01
          2   -1    0    0  501    0  0.00000000000E+00  0.00000000000E+00  0.12928224282E+04  0.12928224282E+04  0.00000000000E+00 0. -1.
         -2   -1    0    0    0  501 -0.00000000000E+00 -0.00000000000E+00 -0.92649465240E+03  0.92649465240E+03  0.00000000000E+00 0.  1.
         23    2    1    2    0    0  0.87757943605E+03 -0.39471989508E+03  0.70803728499E+03  0.11981829803E+04  0.91521556193E+02 0.  0.
         11    1    3    3    0    0  0.39888752030E+03 -0.13993069422E+03  0.27601222136E+03  0.50485106652E+03  0.00000000000E+00 0.  1.
        -11    1    3    3    0    0  0.47869191576E+03 -0.25478920086E+03  0.43202506363E+03  0.69333191380E+03  0.00000000000E+00 0. -1.
         22    1    1    2    0    0 -0.87757943605E+03  0.39471989508E+03 -0.34170950915E+03  0.10211341003E+04  0.00000000000E+00 0.  1.
<mgrwt>
<rscale>  0 0.21888747E+04</rscale>
<asrwt>0</asrwt>
<pdfrwt beam="1">  1        2 0.19889576E+00 0.21888747E+04</pdfrwt>
<pdfrwt beam="2">  1       -2 0.14253764E+00 0.21888747E+04</pdfrwt>
<totfact> 0.52344889E+00</totfact>
</mgrwt>
</event>
<event>
 6    1  0.1588846E-005  0.2174580E+04  0.7818608E-02  0.8529084E-01
          2   -1    0    0  501    0  0.00000000000E+00  0.00000000000E+00  0.17669697602E+04  0.17669697602E+04  0.00000000000E+00 0. -1.
         -2   -1    0    0    0  501 -0.00000000000E+00 -0.00000000000E+00 -0.66905450153E+03  0.66905450153E+03  0.00000000000E+00 0.  1.
         23    2    1    2    0    0 -0.40442552825E+03  0.25227283165E+03  0.16421621712E+04  0.17125560238E+04  0.94604169059E+02 0.  0.
         11    1    3    3    0    0 -0.25056733079E+03  0.15245247862E+03  0.84126447547E+03  0.89092741746E+03  0.00000000000E+00 0.  1.
        -11    1    3    3    0    0 -0.15385819745E+03  0.99820353026E+02  0.80089769569E+03  0.82162860634E+03  0.00000000000E+00 0. -1.
         22    1    1    2    0    0  0.40442552825E+03 -0.25227283165E+03 -0.54424691251E+03  0.72346823791E+03  0.00000000000E+00 0.  1.
<mgrwt>
<rscale>  0 0.21745796E+04</rscale>
<asrwt>0</asrwt>
<pdfrwt beam="1">  1        2 0.27184150E+00 0.21745796E+04</pdfrwt>
<pdfrwt beam="2">  1       -2 0.10293146E+00 0.21745796E+04</pdfrwt>
<totfact> 0.63567401E+00</totfact>
</mgrwt>
</event>
<event>
 6    1  0.1588846E-005  0.3693850E+04  0.7818608E-02  0.8069326E-01
          2   -1    0    0  501    0  0.00000000000E+00  0.00000000000E+00  0.41039685923E+04  0.41039685923E+04  0.00000000000E+00 0. -1.
         -2   -1    0    0    0  501 -0.00000000000E+00 -0.00000000000E+00 -0.83117904143E+03  0.83117904143E+03  0.00000000000E+00 0.  1.
         23    2    1    2    0    0 -0.19942704889E+03  0.14428169704E+04  0.12259880331E+03  0.14645289995E+04  0.91229194388E+02 0.  0.
         11    1    3    3    0    0 -0.12305602142E+03  0.90692061172E+03  0.32786537934E+02  0.91581807006E+03  0.00000000000E+00 0.  1.
        -11    1    3    3    0    0 -0.76371027472E+02  0.53589635871E+03  0.89812265377E+02  0.54871092948E+03  0.00000000000E+00 0. -1.
         22    1    1    2    0    0  0.19942704889E+03 -0.14428169704E+04  0.31501907475E+04  0.34706186342E+04  0.00000000000E+00 0. -1.
<mgrwt>
<rscale>  0 0.36938504E+04</rscale>
<asrwt>0</asrwt>
<pdfrwt beam="1">  1        2 0.63137977E+00 0.36938504E+04</pdfrwt>
<pdfrwt beam="2">  1       -2 0.12787370E+00 0.36938504E+04</pdfrwt>
<totfact> 0.10248441E-01</totfact>
</mgrwt>
</event>
<event>
 6    1  0.1588846E-005  0.1287105E+04  0.7818608E-02  0.9039854E-01
          1   -1    0    0  501    0  0.00000000000E+00  0.00000000000E+00  0.11128253421E+04  0.11128253421E+04  0.00000000000E+00 0. -1.
         -1   -1    0    0    0  501 -0.00000000000E+00 -0.00000000000E+00 -0.37216952979E+03  0.37216952979E+03  0.00000000000E+00 0.  1.
         23    2    1    2    0    0  0.18999176591E+03 -0.26041520035E+02  0.10772039788E+04  0.10976452879E+04  0.87645503453E+02 0.  0.
         11    1    3    3    0    0  0.17468348196E+03  0.38927931600E+01  0.83217229336E+03  0.85031770448E+03  0.00000000000E+00 0.  1.
        -11    1    3    3    0    0  0.15308283948E+02 -0.29934313195E+02  0.24503168541E+03  0.24732758341E+03  0.00000000000E+00 0. -1.
         22    1    1    2    0    0 -0.18999176591E+03  0.26041520035E+02 -0.33654816646E+03  0.38734958400E+03  0.00000000000E+00 0.  1.
<mgrwt>
<rscale>  0 0.12871048E+04</rscale>
<asrwt>0</asrwt>
<pdfrwt beam="1">  1        1 0.17120390E+00 0.12871048E+04</pdfrwt>
<pdfrwt beam="2">  1       -1 0.57256851E-01 0.12871048E+04</pdfrwt>
<totfact> 0.37665772E+01</totfact>
</mgrwt>
</event>
<event>
 6    1  0.1588846E-005  0.2135945E+04  0.7818608E-02  0.8545573E-01
         -1   -1    0    0    0  501 -0.00000000000E+00  0.00000000000E+00  0.39790176110E+03  0.39790176110E+03  0.00000000000E+00 0.  1.
          1   -1    0    0  501    0  0.00000000000E+00 -0.00000000000E+00 -0.28664495687E+04  0.28664495687E+04  0.00000000000E+00 0. -1.
         23    2    1    2    0    0  0.36022910318E+03  0.99631316191E+03 -0.10506311196E+04  0.14943534040E+04  0.82833707260E+02 0.  0.
         11    1    3    3    0    0  0.13266014774E+03  0.41920029874E+03 -0.38456410155E+03  0.58413795756E+03  0.00000000000E+00 0.  1.
        -11    1    3    3    0    0  0.22756895544E+03  0.57711286318E+03 -0.66606701806E+03  0.91021544640E+03  0.00000000000E+00 0. -1.
         22    1    1    2    0    0 -0.36022910318E+03 -0.99631316191E+03 -0.14179166880E+04  0.17699979259E+04  0.00000000000E+00 0.  1.
<mgrwt>
<rscale>  0 0.21359451E+04</rscale>
<asrwt>0</asrwt>
<pdfrwt beam="1">  1        1 0.44099223E+00 0.21359451E+04</pdfrwt>
<pdfrwt beam="2">  1       -1 0.61215657E-01 0.21359451E+04</pdfrwt>
<totfact> 0.18548841E+00</totfact>
</mgrwt>
</event>
<event>
 6    1  0.1588846E-005  0.3376445E+04  0.7818608E-02  0.8143712E-01
          1   -1    0    0  501    0  0.00000000000E+00  0.00000000000E+00  0.15198241002E+04  0.15198241002E+04  0.00000000000E+00 0. -1.
         -1   -1    0    0    0  501 -0.00000000000E+00 -0.00000000000E+00 -0.18752799941E+04  0.18752799941E+04  0.00000000000E+00 0.  1.
         23    2    1    2    0    0 -0.25564659889E+03  0.63535557812E+03 -0.17280803440E+04  0.18611126422E+04  0.91905916798E+02 0.  0.
         11    1    3    3    0    0 -0.21243210059E+03  0.53152679572E+03 -0.15263574096E+04  0.16301579904E+04  0.00000000000E+00 0. -1.
        -11    1    3    3    0    0 -0.43214498298E+02  0.10382878240E+03 -0.20172293434E+03  0.23095465173E+03  0.00000000000E+00 0.  1.
         22    1    1    2    0    0  0.25564659889E+03 -0.63535557812E+03  0.13726244501E+04  0.15339914521E+04  0.00000000000E+00 0. -1.
<mgrwt>
<rscale>  0 0.33764453E+04</rscale>
<asrwt>0</asrwt>
<pdfrwt beam="1">  1        1 0.23381909E+00 0.33764453E+04</pdfrwt>
<pdfrwt beam="2">  1       -1 0.28850461E+00 0.33764453E+04</pdfrwt>
<totfact> 0.20480869E-01</totfact>
</mgrwt>
</event>
<event>
 6    1  0.2104914E-005  0.4463908E+04  0.7818608E-02  0.7916986E-01
         -2   -1    0    0    0  501 -0.00000000000E+00  0.00000000000E+00  0.20145324815E+04  0.20145324815E+04  0.00000000000E+00 0.  1.
          2   -1    0    0  501    0  0.00000000000E+00 -0.00000000000E+00 -0.24728416113E+04  0.24728416113E+04  0.00000000000E+00 0. -1.
         23    2    1    2    0    0  0.21127167826E+04 -0.57692969407E+02 -0.94755802019E+03  0.23179812840E+04  0.90941459101E+02 0.  0.
         11    1    3    3    0    0  0.11226507953E+04 -0.24315586279E+02 -0.45414004505E+03  0.12112717434E+04  0.00000000000E+00 0. -1.
        -11    1    3    3    0    0  0.99006598735E+03 -0.33377383128E+02 -0.49341797514E+03  0.11067095406E+04  0.00000000000E+00 0.  1.
         22    1    1    2    0    0 -0.21127167826E+04  0.57692969407E+02  0.48924889042E+03  0.21693928088E+04  0.00000000000E+00 0. -1.
<mgrwt>
<rscale>  0 0.44639085E+04</rscale>
<asrwt>0</asrwt>
<pdfrwt beam="1">  1        2 0.38043717E+00 0.44639085E+04</pdfrwt>
<pdfrwt beam="2">  1       -2 0.30992807E+00 0.44639085E+04</pdfrwt>
<totfact> 0.75769519E-02</totfact>
</mgrwt>
</event>
<event>
 6    1  0.1588846E-005  0.1814061E+04  0.7818608E-02  0.8698858E-01
          1   -1    0    0  501    0  0.00000000000E+00  0.00000000000E+00  0.95464032116E+03  0.95464032116E+03  0.00000000000E+00 0. -1.
         -1   -1    0    0    0  501 -0.00000000000E+00 -0.00000000000E+00 -0.86179506855E+03  0.86179506855E+03  0.00000000000E+00 0.  1.
         23    2    1    2    0    0 -0.37385116109E+03 -0.65157795853E+03 -0.45835110428E+03  0.88469725561E+03  0.91021824809E+02 0.  0.
         11    1    3    3    0    0 -0.21619767607E+03 -0.45820182691E+03 -0.29096513241E+03  0.58425256320E+03  0.00000000000E+00 0. -1.
        -11    1    3    3    0    0 -0.15765348502E+03 -0.19337613162E+03 -0.16738597187E+03  0.30044469241E+03  0.00000000000E+00 0.  1.
         22    1    1    2    0    0  0.37385116109E+03  0.65157795853E+03  0.55119635689E+03  0.93173813410E+03  0.00000000000E+00 0. -1.
<mgrwt>
<rscale>  0 0.18140610E+04</rscale>
<asrwt>0</asrwt>
<pdfrwt beam="1">  1        1 0.14686774E+00 0.18140610E+04</pdfrwt>
<pdfrwt beam="2">  1       -1 0.13258386E+00 0.18140610E+04</pdfrwt>
<totfact> 0.74730784E+00</totfact>
</mgrwt>
</event>
<event>
 6    1  0.1588846E-005  0.2527813E+04  0.7818608E-02  0.8393143E-01
         -2   -1    0    0    0  501 -0.00000000000E+00  0.00000000000E+00  0.19773193721E+04  0.19773193721E+04  0.00000000000E+00 0. -1.
          2   -1    0    0  501    0  0.00000000000E+00 -0.00000000000E+00 -0.80789177480E+03  0.80789177480E+03  0.00000000000E+00 0.  1.
         23    2    1    2    0    0 -0.11178813528E+02  0.11058904079E+04  0.12558665774E+04  0.16758914196E+04  0.91063878822E+02 0.  0.
         13    1    3    3    0    0  0.24095426799E+02  0.66779291177E+03  0.80567596893E+03  0.10467290621E+04  0.00000000000E+00 0. -1.
        -13    1    3    3    0    0 -0.35274240327E+02  0.43809749608E+03  0.45019060843E+03  0.62916235745E+03  0.00000000000E+00 0.  1.
         22    1    1    2    0    0  0.11178813528E+02 -0.11058904079E+04 -0.86438980090E+02  0.11093197273E+04  0.00000000000E+00 0.  1.
<mgrwt>
<rscale>  0 0.25278133E+04</rscale>
<asrwt>0</asrwt>
<pdfrwt beam="1">  1        2 0.12429104E+00 0.25278133E+04</pdfrwt>
<pdfrwt beam="2">  1       -2 0.30420298E+00 0.25278133E+04</pdfrwt>
<totfact> 0.90631627E-01</totfact>
</mgrwt>
</event>
<event>
 6    1  0.1588846E-005  0.1469465E+04  0.7818608E-02  0.8905016E-01
          2   -1    0    0  501    0  0.00000000000E+00  0.00000000000E+00  0.64493809950E+03  0.64493809950E+03  0.00000000000E+00 0. -1.
         -2   -1    0    0    0  501 -0.00000000000E+00 -0.00000000000E+00 -0.83702887878E+03  0.83702887878E+03  0.00000000000E+00 0.  1.
         23    2    1    2    0    0 -0.14309643792E+03  0.53784636828E+03  0.38287591085E+03  0.68175325609E+03  0.91859853387E+02 0.  0.
         13    1    3    3    0    0 -0.96131211069E+02  0.25161453355E+03  0.14070735596E+03  0.30389084102E+03  0.00000000000E+00 0. -1.
        -13    1    3    3    0    0 -0.46965226856E+02  0.28623183473E+03  0.24216855488E+03  0.37786241507E+03  0.00000000000E+00 0.  1.
         22    1    1    2    0    0  0.14309643792E+03 -0.53784636828E+03 -0.57496669013E+03  0.80021372219E+03  0.00000000000E+00 0. -1.
<mgrwt>
<rscale>  0 0.14694650E+04</rscale>
<asrwt>0</asrwt>
<pdfrwt beam="1">  1        2 0.99221246E-01 0.14694650E+04</pdfrwt>
<pdfrwt beam="2">  1       -2 0.12877367E+00 0.14694650E+04</pdfrwt>
<totfact> 0.19551103E+01</totfact>
</mgrwt>
</event>
<event>
 6    1  0.1588846E-005  0.2005483E+04  0.7818608E-02  0.8604061E-01
          2   -1    0    0  501    0  0.00000000000E+00  0.00000000000E+00  0.18115241130E+04  0.18115241130E+04  0.00000000000E+00 0. -1.
         -2   -1    0    0    0  501 -0.00000000000E+00 -0.00000000000E+00 -0.55505223240E+03  0.55505223240E+03  0.00000000000E+00 0.  1.
         23    2    1    2    0    0 -0.69066228344E+03 -0.65879128752E+03  0.27474316741E+03  0.99733874127E+03  0.90445599741E+02 0.  0.
         13    1    3    3    0    0 -0.34540773300E+03 -0.32497298467E+03  0.18343673263E+03  0.50849088257E+03  0.00000000000E+00 0.  1.
        -13    1    3    3    0    0 -0.34525455044E+03 -0.33381830286E+03  0.91306434784E+02  0.48884785870E+03  0.00000000000E+00 0. -1.
         22    1    1    2    0    0  0.69066228344E+03  0.65879128752E+03  0.98172871319E+03  0.13692376041E+04  0.00000000000E+00 0. -1.
<mgrwt>
<rscale>  0 0.20054830E+04</rscale>
<asrwt>0</asrwt>
<pdfrwt beam="1">  1        2 0.27869601E+00 0.20054830E+04</pdfrwt>
<pdfrwt beam="2">  1       -2 0.85392652E-01 0.20054830E+04</pdfrwt>
<totfact> 0.94138674E+00</totfact>
</mgrwt>
</event>
<event>
 6    1  0.1588846E-005  0.2010647E+04  0.7818608E-02  0.8601659E-01
          1   -1    0    0  501    0  0.00000000000E+00  0.00000000000E+00  0.22249736309E+04  0.22249736309E+04  0.00000000000E+00 0. -1.
         -1   -1    0    0    0  501 -0.00000000000E+00 -0.00000000000E+00 -0.45424142619E+03  0.45424142619E+03  0.00000000000E+00 0.  1.
         23    2    1    2    0    0 -0.92969073585E+03 -0.37294860758E+03  0.81153909051E+03  0.12923239444E+04  0.89944169051E+02 0.  0.
         11    1    3    3    0    0 -0.36707776073E+03 -0.19337855159E+03  0.32038535937E+03  0.52420237040E+03  0.00000000000E+00 0. -1.
        -11    1    3    3    0    0 -0.56261297512E+03 -0.17957005599E+03  0.49115373114E+03  0.76812157397E+03  0.00000000000E+00 0.  1.
         22    1    1    2    0    0  0.92969073585E+03  0.37294860758E+03  0.95919311419E+03  0.13868911127E+04  0.00000000000E+00 0. -1.
<mgrwt>
<rscale>  0 0.20106469E+04</rscale>
<asrwt>0</asrwt>
<pdfrwt beam="1">  1        1 0.34230363E+00 0.20106469E+04</pdfrwt>
<pdfrwt beam="2">  1       -1 0.69883298E-01 0.20106469E+04</pdfrwt>
<totfact> 0.40195147E+00</totfact>
</mgrwt>
</event>
<event>
 6    1  0.1588846E-005  0.2434104E+04  0.7818608E-02  0.8426845E-01
         -2   -1    0    0    0  501 -0.00000000000E+00  0.00000000000E+00  0.57565410934E+03  0.57565410934E+03  0.00000000000E+00 0.  1.
          2   -1    0    0  501    0  0.00000000000E+00 -0.00000000000E+00 -0.25730993484E+04  0.25730993484E+04  0.00000000000E+00 0. -1.
         23    2    1    2    0    0 -0.19733124619E+03 -0.78542647090E+03  0.17208998020E+03  0.83299927615E+03  0.91861149987E+02 0.  0.
         13    1    3    3    0    0 -0.12315580620E+03 -0.37513459123E+03  0.12088216457E+03  0.41292349394E+03  0.00000000000E+00 0. -1.
        -13    1    3    3    0    0 -0.74175439983E+02 -0.41029187967E+03  0.51207815635E+02  0.42007578221E+03  0.00000000000E+00 0.  1.
         22    1    1    2    0    0  0.19733124619E+03  0.78542647090E+03 -0.21695352192E+04  0.23157541816E+04  0.00000000000E+00 0. -1.
<mgrwt>
<rscale>  0 0.24341037E+04</rscale>
<asrwt>0</asrwt>
<pdfrwt beam="1">  1        2 0.39586144E+00 0.24341037E+04</pdfrwt>
<pdfrwt beam="2">  1       -2 0.88562171E-01 0.24341037E+04</pdfrwt>
<totfact> 0.31034653E+00</totfact>
</mgrwt>
</event>
<event>
 6    1  0.1588846E-005  0.4504050E+04  0.7818608E-02  0.7909928E-01
         -2   -1    0    0    0  501 -0.00000000000E+00  0.00000000000E+00  0.16804853512E+04  0.16804853512E+04  0.00000000000E+00 0. -1.
          2   -1    0    0  501    0  0.00000000000E+00 -0.00000000000E+00 -0.30179478234E+04  0.30179478234E+04  0.00000000000E+00 0.  1.
         23    2    1    2    0    0  0.14704475173E+04 -0.15741150061E+04  0.13113572141E+02  0.21559718465E+04  0.89379434083E+02 0.  0.
         11    1    3    3    0    0  0.92430513553E+03 -0.10331864571E+04 -0.22267073586E+02  0.13864739671E+04  0.00000000000E+00 0. -1.
        -11    1    3    3    0    0  0.54614238180E+03 -0.54092854899E+03  0.35380645727E+02  0.76949787940E+03  0.00000000000E+00 0.  1.
         22    1    1    2    0    0 -0.14704475173E+04  0.15741150061E+04 -0.13505760443E+04  0.25424613282E+04  0.00000000000E+00 0.  1.
<mgrwt>
<rscale>  0 0.45040502E+04</rscale>
<asrwt>0</asrwt>
<pdfrwt beam="1">  1        2 0.46429967E+00 0.45040502E+04</pdfrwt>
<pdfrwt beam="2">  1       -2 0.25853621E+00 0.45040502E+04</pdfrwt>
<totfact> 0.73149663E-02</totfact>
</mgrwt>
</event>
<event>
 6    1  0.1588846E-005  0.2010423E+04  0.7818608E-02  0.8601763E-01
          1   -1    0    0  501    0  0.00000000000E+00  0.00000000000E+00  0.22380180211E+04  0.22380180211E+04  0.00000000000E+00 0. -1.
         -1   -1    0    0    0  501 -0.00000000000E+00 -0.00000000000E+00 -0.45149310906E+03  0.45149310906E+03  0.00000000000E+00 0.  1.
         23    2    1    2    0    0  0.44526360767E+03  0.20999679893E+03  0.20644603638E+04  0.21241736635E+04  0.88084181734E+02 0.  0.
         11    1    3    3    0    0  0.26278669254E+03  0.13845447156E+03  0.14122948942E+04  0.14431920713E+04  0.00000000000E+00 0.  1.
        -11    1    3    3    0    0  0.18247691513E+03  0.71542327369E+02  0.65216546954E+03  0.68098159213E+03  0.00000000000E+00 0. -1.
         22    1    1    2    0    0 -0.44526360767E+03 -0.20999679893E+03 -0.27793545177E+03  0.56533746667E+03  0.00000000000E+00 0.  1.
<mgrwt>
<rscale>  0 0.20104226E+04</rscale>
<asrwt>0</asrwt>
<pdfrwt beam="1">  1        1 0.34431046E+00 0.20104226E+04</pdfrwt>
<pdfrwt beam="2">  1       -1 0.69460480E-01 0.20104226E+04</pdfrwt>
<totfact> 0.39874172E+00</totfact>
</mgrwt>
</event>
<event>
 6    1  0.1588846E-005  0.6750198E+03  0.7818608E-02  0.9760932E-01
         -4   -1    0    0    0  501 -0.00000000000E+00  0.00000000000E+00  0.11965991780E+04  0.11965991780E+04  0.00000000000E+00 0.  1.
          4   -1    0    0  501    0  0.00000000000E+00 -0.00000000000E+00 -0.95197229704E+02  0.95197229704E+02  0.00000000000E+00 0. -1.
         23    2    1    2    0    0  0.10544570488E+03  0.46264785177E+02  0.11561243175E+04  0.11643061542E+04  0.75671370347E+02 0.  0.
         11    1    3    3    0    0  0.64317317342E+02 -0.56612938104E+01  0.75432248739E+03  0.75708069751E+03  0.00000000000E+00 0. -1.
        -11    1    3    3    0    0  0.41128387539E+02  0.51926078988E+02  0.40180183009E+03  0.40722545672E+03  0.00000000000E+00 0.  1.
         22    1    1    2    0    0 -0.10544570488E+03 -0.46264785177E+02 -0.54722369227E+02  0.12749025343E+03  0.00000000000E+00 0. -1.
<mgrwt>
<rscale>  0 0.67501978E+03</rscale>
<asrwt>0</asrwt>
<pdfrwt beam="1">  1        4 0.14645729E-01 0.67501978E+03</pdfrwt>
<pdfrwt beam="2">  1       -4 0.18409217E+00 0.67501978E+03</pdfrwt>
<totfact> 0.13701496E+01</totfact>
</mgrwt>
</event>
<event>
 6    1  0.1588846E-005  0.2576900E+04  0.7818608E-02  0.8376090E-01
          2   -1    0    0  501    0  0.00000000000E+00  0.00000000000E+00  0.27557225940E+04  0.27557225940E+04  0.00000000000E+00 0. -1.
         -2   -1    0    0    0  501 -0.00000000000E+00 -0.00000000000E+00 -0.60242018895E+03  0.60242018895E+03  0.00000000000E+00 0.  1.
         23    2    1    2    0    0  0.47410303866E+03  0.82222443432E+03  0.22108064203E+04  0.24072834750E+04  0.80758836176E+02 0.  0.
         11    1    3    3    0    0  0.11072754123E+03  0.25477012910E+03  0.69454527241E+03  0.74803846325E+03  0.00000000000E+00 0. -1.
        -11    1    3    3    0    0  0.36337549742E+03  0.56745430522E+03  0.15162611479E+04  0.16592450118E+04  0.00000000000E+00 0.  1.
         22    1    1    2    0    0 -0.47410303866E+03 -0.82222443432E+03 -0.57504015235E+02  0.95085930790E+03  0.00000000000E+00 0.  1.
<mgrwt>
<rscale>  0 0.25768996E+04</rscale>
<asrwt>0</asrwt>
<pdfrwt beam="1">  1        2 0.42395732E+00 0.25768996E+04</pdfrwt>
<pdfrwt beam="2">  1       -2 0.92680031E-01 0.25768996E+04</pdfrwt>
<totfact> 0.21514091E+00</totfact>
</mgrwt>
</event>
<event>
 6    1  0.1588846E-005  0.3608314E+04  0.7818608E-02  0.8088590E-01
          2   -1    0    0  501    0  0.00000000000E+00  0.00000000000E+00  0.17212197947E+04  0.17212197947E+04  0.00000000000E+00 0. -1.
         -2   -1    0    0    0  501 -0.00000000000E+00 -0.00000000000E+00 -0.18910903032E+04  0.18910903032E+04  0.00000000000E+00 0.  1.
         23    2    1    2    0    0  0.22590469245E+03 -0.25752673922E+03 -0.18571213955E+04  0.18906340230E+04  0.90797467013E+02 0.  0.
         11    1    3    3    0    0  0.47092663434E+02 -0.85535539954E+01 -0.24841041384E+03  0.25297947731E+03  0.00000000000E+00 0.  1.
        -11    1    3    3    0    0  0.17881202901E+03 -0.24897318523E+03 -0.16087109816E+04  0.16376545457E+04  0.00000000000E+00 0. -1.
         22    1    1    2    0    0 -0.22590469245E+03  0.25752673922E+03  0.16872508870E+04  0.17216760749E+04  0.00000000000E+00 0. -1.
<mgrwt>
<rscale>  0 0.36083138E+04</rscale>
<asrwt>0</asrwt>
<pdfrwt beam="1">  1        2 0.26480305E+00 0.36083138E+04</pdfrwt>
<pdfrwt beam="2">  1       -2 0.29093697E+00 0.36083138E+04</pdfrwt>
<totfact> 0.28068811E-01</totfact>
</mgrwt>
</event>
<event>
 6    1  0.1588846E-005  0.3726681E+04  0.7818608E-02  0.8062075E-01
         -1   -1    0    0    0  501 -0.00000000000E+00  0.00000000000E+00  0.18503179245E+04  0.18503179245E+04  0.00000000000E+00 0.  1.
          1   -1    0    0  501    0  0.00000000000E+00 -0.00000000000E+00 -0.18764551031E+04  0.18764551031E+04  0.00000000000E+00 0. -1.
         23    2    1    2    0    0 -0.37817406711E+03 -0.76591741498E+03 -0.16678429761E+04  0.18761398826E+04  0.92496241302E+02 0.  0.
         11    1    3    3    0    0 -0.74670774750E+02 -0.24176649885E+03 -0.46351915991E+03  0.52808784892E+03  0.00000000000E+00 0.  1.
        -11    1    3    3    0    0 -0.30350329236E+03 -0.52415091613E+03 -0.12043238162E+04  0.13480520337E+04  0.00000000000E+00 0. -1.
         22    1    1    2    0    0  0.37817406711E+03  0.76591741498E+03  0.16417057975E+04  0.18506331449E+04  0.00000000000E+00 0.  1.
<mgrwt>
<rscale>  0 0.37266814E+04</rscale>
<asrwt>0</asrwt>
<pdfrwt beam="1">  1        1 0.28868540E+00 0.37266814E+04</pdfrwt>
<pdfrwt beam="2">  1       -1 0.28466430E+00 0.37266814E+04</pdfrwt>
<totfact> 0.12014017E-01</totfact>
</mgrwt>
</event>
<event>
 6    1  0.1588846E-005  0.1063557E+04  0.7818608E-02  0.9241458E-01
          2   -1    0    0  501    0  0.00000000000E+00  0.00000000000E+00  0.37621459281E+04  0.37621459281E+04  0.00000000000E+00 0. -1.
         -2   -1    0    0    0  501 -0.00000000000E+00 -0.00000000000E+00 -0.75166796478E+02  0.75166796478E+02  0.00000000000E+00 0.  1.
         23    2    1    2    0    0  0.42597783958E+03 -0.17788001521E+03  0.27813050178E+04  0.28207774226E+04  0.89606062668E+02 0.  0.
         13    1    3    3    0    0  0.16871127211E+03 -0.11100959025E+03  0.10597675906E+04  0.10788391764E+04  0.00000000000E+00 0.  1.
        -13    1    3    3    0    0  0.25726656747E+03 -0.66870424955E+02  0.17215374272E+04  0.17419382462E+04  0.00000000000E+00 0. -1.
         22    1    1    2    0    0 -0.42597783958E+03  0.17788001521E+03  0.90567411386E+03  0.10165353020E+04  0.00000000000E+00 0.  1.
<mgrwt>
<rscale>  0 0.10635572E+04</rscale>
<asrwt>0</asrwt>
<pdfrwt beam="1">  1        2 0.57879154E+00 0.10635572E+04</pdfrwt>
<pdfrwt beam="2">  1       -2 0.11564125E-01 0.10635572E+04</pdfrwt>
<totfact> 0.29542608E+01</totfact>
</mgrwt>
</event>
<event>
 6    1  0.1588846E-005  0.1584863E+04  0.7818608E-02  0.8829902E-01
          2   -1    0    0  501    0  0.00000000000E+00  0.00000000000E+00  0.29453379950E+04  0.29453379950E+04  0.00000000000E+00 0. -1.
         -2   -1    0    0    0  501 -0.00000000000E+00 -0.00000000000E+00 -0.21320056460E+03  0.21320056460E+03  0.00000000000E+00 0.  1.
         23    2    1    2    0    0  0.78277694121E+03  0.93822713918E+02  0.12914073902E+04  0.15162092716E+04  0.98056446147E+02 0.  0.
         11    1    3    3    0    0  0.38783437060E+03  0.52786927873E+01  0.58049942417E+03  0.69815681983E+03  0.00000000000E+00 0.  1.
        -11    1    3    3    0    0  0.39494257061E+03  0.88544021131E+02  0.71090796599E+03  0.81805245178E+03  0.00000000000E+00 0. -1.
         22    1    1    2    0    0 -0.78277694121E+03 -0.93822713918E+02  0.14407300403E+04  0.16423292880E+04  0.00000000000E+00 0.  1.
<mgrwt>
<rscale>  0 0.15848631E+04</rscale>
<asrwt>0</asrwt>
<pdfrwt beam="1">  1        2 0.45312889E+00 0.15848631E+04</pdfrwt>
<pdfrwt beam="2">  1       -2 0.32800089E-01 0.15848631E+04</pdfrwt>
<totfact> 0.15764569E+01</totfact>
</mgrwt>
</event>
<event>
 6    1  0.1588846E-005  0.3317763E+04  0.7818608E-02  0.8158390E-01
          2   -1    0    0  501    0  0.00000000000E+00  0.00000000000E+00  0.98760752041E+03  0.98760752041E+03  0.00000000000E+00 0. -1.
         -2   -1    0    0    0  501 -0.00000000000E+00 -0.00000000000E+00 -0.27864184651E+04  0.27864184651E+04  0.00000000000E+00 0.  1.
         23    2    1    2    0    0  0.92846347786E+03  0.10107490203E+04 -0.19574109620E+04  0.23924283678E+04  0.92724372374E+02 0.  0.
         13    1    3    3    0    0  0.25737826320E+03  0.27534783532E+03 -0.46773973850E+03  0.60069997815E+03  0.00000000000E+00 0. -1.
        -13    1    3    3    0    0  0.67108521466E+03  0.73540118498E+03 -0.14896712235E+04  0.17917283897E+04  0.00000000000E+00 0.  1.
         22    1    1    2    0    0 -0.92846347786E+03 -0.10107490203E+04  0.15860001729E+03  0.13815976177E+04  0.00000000000E+00 0. -1.
<mgrwt>
<rscale>  0 0.33177630E+04</rscale>
<asrwt>0</asrwt>
<pdfrwt beam="1">  1        2 0.15193962E+00 0.33177630E+04</pdfrwt>
<pdfrwt beam="2">  1       -2 0.42867976E+00 0.33177630E+04</pdfrwt>
<totfact> 0.10267841E-01</totfact>
</mgrwt>
</event>
<event>
 6    1  0.1588846E-005  0.2495035E+04  0.7818608E-02  0.8404756E-01
          2   -1    0    0  501    0  0.00000000000E+00  0.00000000000E+00  0.16502636431E+04  0.16502636431E+04  0.00000000000E+00 0. -1.
         -2   -1    0    0    0  501 -0.00000000000E+00 -0.00000000000E+00 -0.94306155958E+03  0.94306155958E+03  0.00000000000E+00 0.  1.
         23    2    1    2    0    0 -0.84633361225E+03 -0.81300400174E+03  0.78873697279E+03  0.14169306990E+04  0.91271591345E+02 0.  0.
         11    1    3    3    0    0 -0.65138977083E+03 -0.61224477194E+03  0.55416274204E+03  0.10517835514E+04  0.00000000000E+00 0. -1.
        -11    1    3    3    0    0 -0.19494384141E+03 -0.20075922980E+03  0.23457423076E+03  0.36514714759E+03  0.00000000000E+00 0.  1.
         22    1    1    2    0    0  0.84633361225E+03  0.81300400174E+03 -0.81534889325E+02  0.11763945037E+04  0.00000000000E+00 0.  1.
<mgrwt>
<rscale>  0 0.24950352E+04</rscale>
<asrwt>0</asrwt>
<pdfrwt beam="1">  1        2 0.25388672E+00 0.24950352E+04</pdfrwt>
<pdfrwt beam="2">  1       -2 0.14508639E+00 0.24950352E+04</pdfrwt>
<totfact> 0.30519237E+00</totfact>
</mgrwt>
</event>
<event>
 6    1  0.1588846E-005  0.2553945E+04  0.7818608E-02  0.8384016E-01
         -1   -1    0    0    0  501 -0.00000000000E+00  0.00000000000E+00  0.14197612864E+04  0.14197612864E+04  0.00000000000E+00 0.  1.
          1   -1    0    0  501    0  0.00000000000E+00 -0.00000000000E+00 -0.11485440865E+04  0.11485440865E+04  0.00000000000E+00 0. -1.
         23    2    1    2    0    0 -0.11484571495E+04 -0.28495176124E+03 -0.34226841483E+03  0.12354453165E+04  0.95005956999E+02 0.  0.
         13    1    3    3    0    0 -0.63174159084E+03 -0.15736475259E+03 -0.23739340105E+03  0.69297671665E+03  0.00000000000E+00 0.  1.
        -13    1    3    3    0    0 -0.51671555866E+03 -0.12758700865E+03 -0.10487501378E+03  0.54246859987E+03  0.00000000000E+00 0. -1.
         22    1    1    2    0    0  0.11484571495E+04  0.28495176124E+03  0.61348561466E+03  0.13328600564E+04  0.00000000000E+00 0.  1.
<mgrwt>
<rscale>  0 0.25539447E+04</rscale>
<asrwt>0</asrwt>
<pdfrwt beam="1">  1        1 0.17669909E+00 0.25539447E+04</pdfrwt>
<pdfrwt beam="2">  1       -1 0.21842481E+00 0.25539447E+04</pdfrwt>
<totfact> 0.11627612E+00</totfact>
</mgrwt>
</event>
<event>
 6    1  0.1588846E-005  0.1398625E+04  0.7818608E-02  0.8954815E-01
          2   -1    0    0  501    0  0.00000000000E+00  0.00000000000E+00  0.45313668273E+03  0.45313668273E+03  0.00000000000E+00 0. -1.
         -2   -1    0    0    0  501 -0.00000000000E+00 -0.00000000000E+00 -0.10792276306E+04  0.10792276306E+04  0.00000000000E+00 0.  1.
         23    2    1    2    0    0 -0.94937482897E+02  0.27954659921E+03 -0.10052530342E+04  0.10518195032E+04  0.92904131774E+02 0.  0.
         11    1    3    3    0    0 -0.91899462126E+02  0.18153861912E+03 -0.55791943807E+03  0.59386520419E+03  0.00000000000E+00 0. -1.
        -11    1    3    3    0    0 -0.30380207706E+01  0.98007980088E+02 -0.44733359613E+03  0.45795429899E+03  0.00000000000E+00 0.  1.
         22    1    1    2    0    0  0.94937482897E+02 -0.27954659921E+03  0.37916208637E+03  0.48054481011E+03  0.00000000000E+00 0. -1.
<mgrwt>
<rscale>  0 0.13986245E+04</rscale>
<asrwt>0</asrwt>
<pdfrwt beam="1">  1        2 0.69713337E-01 0.13986245E+04</pdfrwt>
<pdfrwt beam="2">  1       -2 0.16603502E+00 0.13986245E+04</pdfrwt>
<totfact> 0.15266030E+01</totfact>
</mgrwt>
</event>
<event>
 6    1  0.1588846E-005  0.3554474E+04  0.7818608E-02  0.8101000E-01
          2   -1    0    0  501    0  0.00000000000E+00  0.00000000000E+00  0.29838347802E+04  0.29838347802E+04  0.00000000000E+00 0.  1.
         -2   -1    0    0    0  501 -0.00000000000E+00 -0.00000000000E+00 -0.10585612713E+04  0.10585612713E+04  0.00000000000E+00 0. -1.
         23    2    1    2    0    0  0.36231269959E+03 -0.72326504225E+02  0.29389394300E+04  0.29634983662E+04  0.91956390036E+02 0.  0.
         11    1    3    3    0    0  0.14955190470E+03 -0.58888061328E+02  0.99409865535E+03  0.10070082982E+04  0.00000000000E+00 0. -1.
        -11    1    3    3    0    0  0.21276079489E+03 -0.13438442897E+02  0.19448407747E+04  0.19564900681E+04  0.00000000000E+00 0.  1.
         22    1    1    2    0    0 -0.36231269959E+03  0.72326504225E+02 -0.10136659212E+04  0.10788976853E+04  0.00000000000E+00 0. -1.
<mgrwt>
<rscale>  0 0.35544743E+04</rscale>
<asrwt>0</asrwt>
<pdfrwt beam="1">  1        2 0.45905150E+00 0.35544743E+04</pdfrwt>
<pdfrwt beam="2">  1       -2 0.16285558E+00 0.35544743E+04</pdfrwt>
<totfact> 0.34967419E-01</totfact>
</mgrwt>
</event>
<event>
 6    1  0.1588846E-005  0.2218307E+04  0.7818608E-02  0.8510847E-01
          2   -1    0    0  501    0  0.00000000000E+00  0.00000000000E+00  0.31422056195E+04  0.31422056195E+04  0.00000000000E+00 0. -1.
         -2   -1    0    0    0  501 -0.00000000000E+00 -0.00000000000E+00 -0.39151539092E+03  0.39151539092E+03  0.00000000000E+00 0.  1.
         23    2    1    2    0    0 -0.91053972805E+03  0.56037913358E+03  0.92062653506E+03  0.14142303895E+04  0.96886572376E+02 0.  0.
         11    1    3    3    0    0 -0.33383465060E+03  0.17561449977E+03  0.37614590611E+03  0.53270232697E+03  0.00000000000E+00 0.  1.
        -11    1    3    3    0    0 -0.57670507745E+03  0.38476463382E+03  0.54448062894E+03  0.88152806256E+03  0.00000000000E+00 0. -1.
         22    1    1    2    0    0  0.91053972805E+03 -0.56037913358E+03  0.18300636935E+04  0.21194906209E+04  0.00000000000E+00 0. -1.
<mgrwt>
<rscale>  0 0.22183073E+04</rscale>
<asrwt>0</asrwt>
<pdfrwt beam="1">  1        2 0.48341623E+00 0.22183073E+04</pdfrwt>
<pdfrwt beam="2">  1       -2 0.60233139E-01 0.22183073E+04</pdfrwt>
<totfact> 0.33199152E+00</totfact>
</mgrwt>
</event>
<event>
 6    1  0.1588846E-005  0.8553193E+03  0.7818608E-02  0.9483225E-01
         -2   -1    0    0    0  501 -0.00000000000E+00  0.00000000000E+00  0.43419537349E+03  0.43419537349E+03  0.00000000000E+00 0.  1.
          2   -1    0    0  501    0  0.00000000000E+00 -0.00000000000E+00 -0.42122228311E+03  0.42122228311E+03  0.00000000000E+00 0. -1.
         23    2    1    2    0    0  0.22759293236E+03  0.19427450012E+03  0.30530806363E+03  0.43708661444E+03  0.91052570226E+02 0.  0.
         13    1    3    3    0    0  0.16522321075E+03  0.11610246183E+03  0.14675737751E+03  0.24963216713E+03  0.00000000000E+00 0. -1.
        -13    1    3    3    0    0  0.62369721604E+02  0.78172038293E+02  0.15855068612E+03  0.18745444731E+03  0.00000000000E+00 0.  1.
         22    1    1    2    0    0 -0.22759293236E+03 -0.19427450012E+03 -0.29233497325E+03  0.41833104216E+03  0.00000000000E+00 0. -1.
<mgrwt>
<rscale>  0 0.85531928E+03</rscale>
<asrwt>0</asrwt>
<pdfrwt beam="1">  1        2 0.64803428E-01 0.85531928E+03</pdfrwt>
<pdfrwt beam="2">  1       -2 0.66799288E-01 0.85531928E+03</pdfrwt>
<totfact> 0.15525804E+02</totfact>
</mgrwt>
</event>
<event>
 6    1  0.1588846E-005  0.2225603E+04  0.7818608E-02  0.8507847E-01
         -2   -1    0    0    0  501 -0.00000000000E+00  0.00000000000E+00  0.35510172600E+03  0.35510172600E+03  0.00000000000E+00 0.  1.
          2   -1    0    0  501    0  0.00000000000E+00 -0.00000000000E+00 -0.34872451805E+04  0.34872451805E+04  0.00000000000E+00 0. -1.
         23    2    1    2    0    0 -0.31622718684E+03 -0.10592527748E+04 -0.13767133570E+04  0.17678467494E+04  0.89030261366E+02 0.  0.
         13    1    3    3    0    0 -0.26129084433E+02 -0.12853933837E+03 -0.12403963520E+03  0.18052955897E+03  0.00000000000E+00 0.  1.
        -13    1    3    3    0    0 -0.29009810240E+03 -0.93071343643E+03 -0.12526737218E+04  0.15873171905E+04  0.00000000000E+00 0. -1.
         22    1    1    2    0    0  0.31622718684E+03  0.10592527748E+04 -0.17554300975E+04  0.20745001571E+04  0.00000000000E+00 0. -1.
<mgrwt>
<rscale>  0 0.22256026E+04</rscale>
<asrwt>0</asrwt>
<pdfrwt beam="1">  1        2 0.53649927E+00 0.22256026E+04</pdfrwt>
<pdfrwt beam="2">  1       -2 0.54631033E-01 0.22256026E+04</pdfrwt>
<totfact> 0.23941107E+00</totfact>
</mgrwt>
</event>
<event>
 6    1  0.1588846E-005  0.1334780E+04  0.7818608E-02  0.9002430E-01
          1   -1    0    0  501    0  0.00000000000E+00  0.00000000000E+00  0.78610807756E+03  0.78610807756E+03  0.00000000000E+00 0. -1.
         -1   -1    0    0    0  501 -0.00000000000E+00 -0.00000000000E+00 -0.56660074216E+03  0.56660074216E+03  0.00000000000E+00 0.  1.
         23    2    1    2    0    0 -0.25243170220E+03  0.41187218703E+03  0.57231618185E+03  0.75451608751E+03  0.91587398613E+02 0.  0.
         11    1    3    3    0    0 -0.15461996473E+03  0.29682545792E+03  0.44621491206E+03  0.55778170793E+03  0.00000000000E+00 0.  1.
        -11    1    3    3    0    0 -0.97811737468E+02  0.11504672911E+03  0.12610126979E+03  0.19673437958E+03  0.00000000000E+00 0. -1.
         22    1    1    2    0    0  0.25243170220E+03 -0.41187218703E+03 -0.35280884645E+03  0.59819273220E+03  0.00000000000E+00 0.  1.
<mgrwt>
<rscale>  0 0.13347800E+04</rscale>
<asrwt>0</asrwt>
<pdfrwt beam="1">  1        1 0.12093970E+00 0.13347800E+04</pdfrwt>
<pdfrwt beam="2">  1       -1 0.87169345E-01 0.13347800E+04</pdfrwt>
<totfact> 0.28889533E+01</totfact>
</mgrwt>
</event>
<event>
 6    1  0.1588846E-005  0.5205801E+04  0.7818608E-02  0.7797522E-01
         -2   -1    0    0    0  501 -0.00000000000E+00  0.00000000000E+00  0.15822769950E+04  0.15822769950E+04  0.00000000000E+00 0.  1.
          2   -1    0    0  501    0  0.00000000000E+00 -0.00000000000E+00 -0.42818615331E+04  0.42818615331E+04  0.00000000000E+00 0. -1.
         23    2    1    2    0    0 -0.68188750204E+03 -0.24740098738E+04 -0.86593751262E+03  0.27101003490E+04  0.95397612811E+02 0.  0.
         11    1    3    3    0    0 -0.16452368618E+03 -0.55135507054E+03 -0.23444358133E+03  0.62130849821E+03  0.00000000000E+00 0.  1.
        -11    1    3    3    0    0 -0.51736381586E+03 -0.19226548033E+04 -0.63149393130E+03  0.20887918508E+04  0.00000000000E+00 0. -1.
         22    1    1    2    0    0  0.68188750204E+03  0.24740098738E+04 -0.18336470255E+04  0.31540381791E+04  0.00000000000E+00 0.  1.
<mgrwt>
<rscale>  0 0.52058010E+04</rscale>
<asrwt>0</asrwt>
<pdfrwt beam="1">  1        2 0.65874791E+00 0.52058010E+04</pdfrwt>
<pdfrwt beam="2">  1       -2 0.24342724E+00 0.52058010E+04</pdfrwt>
<totfact> 0.98766315E-03</totfact>
</mgrwt>
</event>
<event>
 6    1  0.1588846E-005  0.2835731E+04  0.7818608E-02  0.8292260E-01
          1   -1    0    0  501    0  0.00000000000E+00  0.00000000000E+00  0.16722062815E+04  0.16722062815E+04  0.00000000000E+00 0. -1.
         -1   -1    0    0    0  501 -0.00000000000E+00 -0.00000000000E+00 -0.12022094890E+04  0.12022094890E+04  0.00000000000E+00 0.  1.
         23    2    1    2    0    0 -0.97269814137E+03  0.45849922380E+03 -0.69919128270E+03  0.12859057870E+04  0.91225165039E+02 0.  0.
         13    1    3    3    0    0 -0.65608502234E+03  0.29345488310E+03 -0.51467051308E+03  0.88399607577E+03  0.00000000000E+00 0.  1.
        -13    1    3    3    0    0 -0.31661311903E+03  0.16504434071E+03 -0.18452076963E+03  0.40190971121E+03  0.00000000000E+00 0. -1.
         22    1    1    2    0    0  0.97269814137E+03 -0.45849922380E+03  0.11691880752E+04  0.15885099835E+04  0.00000000000E+00 0.  1.
<mgrwt>
<rscale>  0 0.28357308E+04</rscale>
<asrwt>0</asrwt>
<pdfrwt beam="1">  1        1 0.25726251E+00 0.28357308E+04</pdfrwt>
<pdfrwt beam="2">  1       -1 0.18495531E+00 0.28357308E+04</pdfrwt>
<totfact> 0.82432115E-01</totfact>
</mgrwt>
</event>
<event>
 6    1  0.1588846E-005  0.2772169E+04  0.7818608E-02  0.8311961E-01
         -2   -1    0    0    0  501 -0.00000000000E+00  0.00000000000E+00  0.91795474040E+03  0.91795474040E+03  0.00000000000E+00 0.  1.
          2   -1    0    0  501    0  0.00000000000E+00 -0.00000000000E+00 -0.20929463840E+04  0.20929463840E+04  0.00000000000E+00 0. -1.
         23    2    1    2    0    0 -0.13830687393E+03  0.17169509627E+03 -0.20726804511E+04  0.20865347509E+04  0.94947441705E+02 0.  0.
         11    1    3    3    0    0 -0.52434245485E+02  0.12613918818E+03 -0.14350551694E+04  0.14415421548E+04  0.00000000000E+00 0. -1.
        -11    1    3    3    0    0 -0.85872628443E+02  0.45555908088E+02 -0.63762528170E+03  0.64499259604E+03  0.00000000000E+00 0.  1.
         22    1    1    2    0    0  0.13830687393E+03 -0.17169509627E+03  0.89768880750E+03  0.92436637356E+03  0.00000000000E+00 0.  1.
<mgrwt>
<rscale>  0 0.27721689E+04</rscale>
<asrwt>0</asrwt>
<pdfrwt beam="1">  1        2 0.32199175E+00 0.27721689E+04</pdfrwt>
<pdfrwt beam="2">  1       -2 0.14122381E+00 0.27721689E+04</pdfrwt>
<totfact> 0.18157325E+00</totfact>
</mgrwt>
</event>
<event>
 6    1  0.1588846E-005  0.2330897E+04  0.7818608E-02  0.8465838E-01
         -2   -1    0    0    0  501 -0.00000000000E+00  0.00000000000E+00  0.11536069230E+04  0.11536069230E+04  0.00000000000E+00 0.  1.
          2   -1    0    0  501    0  0.00000000000E+00 -0.00000000000E+00 -0.11774116451E+04  0.11774116451E+04  0.00000000000E+00 0. -1.
         23    2    1    2    0    0 -0.14335306159E+03 -0.87697332514E+03 -0.76331423620E+03  0.11749447665E+04  0.90632598291E+02 0.  0.
         13    1    3    3    0    0 -0.67208672100E+02 -0.60334111474E+03 -0.48164198385E+03  0.77493000133E+03  0.00000000000E+00 0.  1.
        -13    1    3    3    0    0 -0.76144389492E+02 -0.27363221040E+03 -0.28167225234E+03  0.40001476517E+03  0.00000000000E+00 0. -1.
         22    1    1    2    0    0  0.14335306159E+03  0.87697332514E+03  0.73950951408E+03  0.11560738016E+04  0.00000000000E+00 0.  1.
<mgrwt>
<rscale>  0 0.23308970E+04</rscale>
<asrwt>0</asrwt>
<pdfrwt beam="1">  1        2 0.18114025E+00 0.23308970E+04</pdfrwt>
<pdfrwt beam="2">  1       -2 0.17747799E+00 0.23308970E+04</pdfrwt>
<totfact> 0.33362560E+00</totfact>
</mgrwt>
</event>
<event>
 6    1  0.1588846E-005  0.1218972E+04  0.7818608E-02  0.9096410E-01
         -2   -1    0    0    0  501 -0.00000000000E+00  0.00000000000E+00  0.17861082459E+03  0.17861082459E+03  0.00000000000E+00 0.  1.
          2   -1    0    0  501    0  0.00000000000E+00 -0.00000000000E+00 -0.20797914634E+04  0.20797914634E+04  0.00000000000E+00 0. -1.
         23    2    1    2    0    0 -0.49608691841E+03  0.27985594794E+03 -0.13394947651E+04  0.14584569130E+04  0.91808274290E+02 0.  0.
         13    1    3    3    0    0 -0.27593254269E+03  0.11553478577E+03 -0.77302722872E+03  0.82888970990E+03  0.00000000000E+00 0. -1.
        -13    1    3    3    0    0 -0.22015437572E+03  0.16432116217E+03 -0.56646753634E+03  0.62956720309E+03  0.00000000000E+00 0.  1.
         22    1    1    2    0    0  0.49608691841E+03 -0.27985594794E+03 -0.56168587375E+03  0.79994537500E+03  0.00000000000E+00 0.  1.
<mgrwt>
<rscale>  0 0.12189721E+04</rscale>
<asrwt>0</asrwt>
<pdfrwt beam="1">  1        2 0.31996790E+00 0.12189721E+04</pdfrwt>
<pdfrwt beam="2">  1       -2 0.27478590E-01 0.12189721E+04</pdfrwt>
<totfact> 0.71857490E+01</totfact>
</mgrwt>
</event>
<event>
 6    1  0.1588846E-005  0.1289814E+04  0.7818608E-02  0.9037682E-01
          2   -1    0    0  501    0  0.00000000000E+00  0.00000000000E+00  0.90215315064E+03  0.90215315064E+03  0.00000000000E+00 0. -1.
         -2   -1    0    0    0  501 -0.00000000000E+00 -0.00000000000E+00 -0.46101406620E+03  0.46101406620E+03  0.00000000000E+00 0.  1.
         23    2    1    2    0    0  0.28457901020E+03 -0.22105213380E+03  0.78270662039E+03  0.86666178835E+03  0.92864109691E+02 0.  0.
         13    1    3    3    0    0  0.12988625823E+03 -0.15656961897E+03  0.46197474955E+03  0.50478228464E+03  0.00000000000E+00 0.  1.
        -13    1    3    3    0    0  0.15469275197E+03 -0.64482514831E+02  0.32073187084E+03  0.36187950371E+03  0.00000000000E+00 0. -1.
         22    1    1    2    0    0 -0.28457901020E+03  0.22105213380E+03 -0.34156753596E+03  0.49650542849E+03  0.00000000000E+00 0.  1.
<mgrwt>
<rscale>  0 0.12898144E+04</rscale>
<asrwt>0</asrwt>
<pdfrwt beam="1">  1        2 0.13879279E+00 0.12898144E+04</pdfrwt>
<pdfrwt beam="2">  1       -2 0.70925241E-01 0.12898144E+04</pdfrwt>
<totfact> 0.51790957E+01</totfact>
</mgrwt>
</event>
<event>
 6    1  0.1588846E-005  0.1597503E+04  0.7818608E-02  0.8822083E-01
          2   -1    0    0  501    0  0.00000000000E+00  0.00000000000E+00  0.97050210863E+03  0.97050210863E+03  0.00000000000E+00 0. -1.
         -2   -1    0    0    0  501 -0.00000000000E+00 -0.00000000000E+00 -0.65739580883E+03  0.65739580883E+03  0.00000000000E+00 0.  1.
         23    2    1    2    0    0  0.77591200265E+03 -0.13099420498E+03  0.32305110342E+02  0.79240511342E+03  0.87540425022E+02 0.  0.
         11    1    3    3    0    0  0.69698776928E+03 -0.14040601179E+03  0.42564640251E+02  0.71226227421E+03  0.00000000000E+00 0. -1.
        -11    1    3    3    0    0  0.78924233377E+02  0.94118068082E+01 -0.10259529909E+02  0.80142839203E+02  0.00000000000E+00 0.  1.
         22    1    1    2    0    0 -0.77591200265E+03  0.13099420498E+03  0.28080118946E+03  0.83549280404E+03  0.00000000000E+00 0. -1.
<mgrwt>
<rscale>  0 0.15975031E+04</rscale>
<asrwt>0</asrwt>
<pdfrwt beam="1">  1        2 0.14930802E+00 0.15975031E+04</pdfrwt>
<pdfrwt beam="2">  1       -2 0.10113782E+00 0.15975031E+04</pdfrwt>
<totfact> 0.20303093E+01</totfact>
</mgrwt>
</event>
<event>
 6    1  0.1588846E-005  0.1099551E+04  0.7818608E-02  0.9205629E-01
          1   -1    0    0  501    0  0.00000000000E+00  0.00000000000E+00  0.41911894325E+03  0.41911894325E+03  0.00000000000E+00 0. -1.
         -1   -1    0    0    0  501 -0.00000000000E+00 -0.00000000000E+00 -0.72116359704E+03  0.72116359704E+03  0.00000000000E+00 0.  1.
         23    2    1    2    0    0 -0.27484135244E+03  0.27201497758E+03  0.24773075238E+03  0.46813455489E+03  0.90826861469E+02 0.  0.
         11    1    3    3    0    0 -0.45411412292E+02  0.71876441162E+02  0.95095121892E+02  0.12755979527E+03  0.00000000000E+00 0.  1.
        -11    1    3    3    0    0 -0.22942994015E+03  0.20013853642E+03  0.15263563049E+03  0.34057475962E+03  0.00000000000E+00 0. -1.
         22    1    1    2    0    0  0.27484135244E+03 -0.27201497758E+03 -0.54977540617E+03  0.67214798539E+03  0.00000000000E+00 0.  1.
<mgrwt>
<rscale>  0 0.10995514E+04</rscale>
<asrwt>0</asrwt>
<pdfrwt beam="1">  1        1 0.64479837E-01 0.10995514E+04</pdfrwt>
<pdfrwt beam="2">  1       -1 0.11094825E+00 0.10995514E+04</pdfrwt>
<totfact> 0.42020558E+01</totfact>
</mgrwt>
</event>
<event>
 6    1  0.1893720E-005  0.2633911E+04  0.7818608E-02  0.8356773E-01
         -2   -1    0    0    0  501 -0.00000000000E+00  0.00000000000E+00  0.11351947862E+04  0.11351947862E+04  0.00000000000E+00 0.  1.
          2   -1    0    0  501    0  0.00000000000E+00 -0.00000000000E+00 -0.15278190000E+04  0.15278190000E+04  0.00000000000E+00 0. -1.
         23    2    1    2    0    0  0.10392982872E+04  0.52052509134E+03 -0.81907757222E+03  0.14248902998E+04  0.91307156082E+02 0.  0.
         11    1    3    3    0    0  0.74735760414E+03  0.36753074686E+03 -0.53599127689E+03  0.99040844466E+03  0.00000000000E+00 0.  1.
        -11    1    3    3    0    0  0.29194068303E+03  0.15299434448E+03 -0.28308629533E+03  0.43448185515E+03  0.00000000000E+00 0. -1.
         22    1    1    2    0    0 -0.10392982872E+04 -0.52052509134E+03  0.42645335846E+03  0.12381234863E+04  0.00000000000E+00 0.  1.
<mgrwt>
<rscale>  0 0.26339113E+04</rscale>
<asrwt>0</asrwt>
<pdfrwt beam="1">  1        2 0.23504908E+00 0.26339113E+04</pdfrwt>
<pdfrwt beam="2">  1       -2 0.17464535E+00 0.26339113E+04</pdfrwt>
<totfact> 0.21344131E+00</totfact>
</mgrwt>
</event>
<event>
 6    1  0.1588846E-005  0.2284579E+04  0.7818608E-02  0.8484026E-01
          1   -1    0    0  501    0  0.00000000000E+00  0.00000000000E+00  0.11304104435E+04  0.11304104435E+04  0.00000000000E+00 0. -1.
         -1   -1    0    0    0  501 -0.00000000000E+00 -0.00000000000E+00 -0.11542932806E+04  0.11542932806E+04  0.00000000000E+00 0.  1.
         23    2    1    2    0    0  0.41795909942E+02  0.65898380705E+03 -0.94180631527E+03  0.11539561538E+04  0.92785308272E+02 0.  0.
         11    1    3    3    0    0  0.34650365055E+02  0.82017488946E+02 -0.14529186543E+03  0.17040317618E+03  0.00000000000E+00 0. -1.
        -11    1    3    3    0    0  0.71455448861E+01  0.57696631811E+03 -0.79651444984E+03  0.98355297765E+03  0.00000000000E+00 0.  1.
         22    1    1    2    0    0 -0.41795909942E+02 -0.65898380705E+03  0.91792347813E+03  0.11307475703E+04  0.00000000000E+00 0. -1.
<mgrwt>
<rscale>  0 0.22845789E+04</rscale>
<asrwt>0</asrwt>
<pdfrwt beam="1">  1        1 0.17390930E+00 0.22845789E+04</pdfrwt>
<pdfrwt beam="2">  1       -1 0.17758358E+00 0.22845789E+04</pdfrwt>
<totfact> 0.23587697E+00</totfact>
</mgrwt>
</event>
<event>
 6    1  0.1588846E-005  0.2498051E+04  0.7818608E-02  0.8403680E-01
         -4   -1    0    0    0  501 -0.00000000000E+00  0.00000000000E+00  0.14409041627E+04  0.14409041627E+04  0.00000000000E+00 0.  1.
          4   -1    0    0  501    0  0.00000000000E+00 -0.00000000000E+00 -0.10826985648E+04  0.10826985648E+04  0.00000000000E+00 0. -1.
         23    2    1    2    0    0 -0.35308213824E+03 -0.17771133551E+03 -0.10158016235E+04  0.10938670317E+04  0.91890313733E+02 0.  0.
         11    1    3    3    0    0 -0.19856430969E+03 -0.79656609761E+02 -0.65918969999E+03  0.69303969665E+03  0.00000000000E+00 0. -1.
        -11    1    3    3    0    0 -0.15451782855E+03 -0.98054725752E+02 -0.35661192348E+03  0.40082733508E+03  0.00000000000E+00 0.  1.
         22    1    1    2    0    0  0.35308213824E+03  0.17771133551E+03  0.13740072214E+04  0.14297356957E+04  0.00000000000E+00 0.  1.
<mgrwt>
<rscale>  0 0.24980511E+04</rscale>
<asrwt>0</asrwt>
<pdfrwt beam="1">  1        4 0.16656901E+00 0.24980511E+04</pdfrwt>
<pdfrwt beam="2">  1       -4 0.22167756E+00 0.24980511E+04</pdfrwt>
<totfact> 0.37911887E-02</totfact>
</mgrwt>
</event>
<event>
 6    1  0.1588846E-005  0.3465740E+04  0.7818608E-02  0.8121957E-01
         -2   -1    0    0    0  501 -0.00000000000E+00  0.00000000000E+00  0.11844169576E+04  0.11844169576E+04  0.00000000000E+00 0.  1.
          2   -1    0    0  501    0  0.00000000000E+00 -0.00000000000E+00 -0.25352889836E+04  0.25352889836E+04  0.00000000000E+00 0. -1.
         23    2    1    2    0    0  0.15584134359E+04  0.99880965518E+02  0.12738175603E+03  0.15693890137E+04  0.90150541668E+02 0.  0.
         11    1    3    3    0    0  0.91438324503E+03  0.10089708011E+03  0.61203013448E+02  0.92196678271E+03  0.00000000000E+00 0. -1.
        -11    1    3    3    0    0  0.64403019089E+03 -0.10161145947E+01  0.66178742581E+02  0.64742223103E+03  0.00000000000E+00 0.  1.
         22    1    1    2    0    0 -0.15584134359E+04 -0.99880965518E+02 -0.14782537820E+04  0.21503169274E+04  0.00000000000E+00 0. -1.
<mgrwt>
<rscale>  0 0.34657405E+04</rscale>
<asrwt>0</asrwt>
<pdfrwt beam="1">  1        2 0.39004446E+00 0.34657405E+04</pdfrwt>
<pdfrwt beam="2">  1       -2 0.18221799E+00 0.34657405E+04</pdfrwt>
<totfact> 0.47890086E-01</totfact>
</mgrwt>
</event>
<event>
 6    1  0.1588846E-005  0.2603546E+04  0.7818608E-02  0.8366998E-01
         -1   -1    0    0    0  501 -0.00000000000E+00  0.00000000000E+00  0.12358076218E+04  0.12358076218E+04  0.00000000000E+00 0.  1.
          1   -1    0    0  501    0  0.00000000000E+00 -0.00000000000E+00 -0.13712597894E+04  0.13712597894E+04  0.00000000000E+00 0. -1.
         23    2    1    2    0    0  0.19965521813E+03 -0.12765577485E+04  0.77110957994E+02  0.12976228824E+04  0.91745047948E+02 0.  0.
         13    1    3    3    0    0  0.12885266584E+03 -0.58044041859E+03  0.61466511989E+02  0.59773925848E+03  0.00000000000E+00 0.  1.
        -13    1    3    3    0    0  0.70802552292E+02 -0.69611732990E+03  0.15644446005E+02  0.69988362396E+03  0.00000000000E+00 0. -1.
         22    1    1    2    0    0 -0.19965521813E+03  0.12765577485E+04 -0.21256312558E+03  0.13094445287E+04  0.00000000000E+00 0.  1.
<mgrwt>
<rscale>  0 0.26035463E+04</rscale>
<asrwt>0</asrwt>
<pdfrwt beam="1">  1        1 0.21096304E+00 0.26035463E+04</pdfrwt>
<pdfrwt beam="2">  1       -1 0.19012425E+00 0.26035463E+04</pdfrwt>
<totfact> 0.12499079E+00</totfact>
</mgrwt>
</event>
<event>
 6    1  0.1588846E-005  0.5435880E+04  0.7818608E-02  0.7764574E-01
          2   -1    0    0  501    0  0.00000000000E+00  0.00000000000E+00  0.24596988947E+04  0.24596988947E+04  0.00000000000E+00 0. -1.
         -2   -1    0    0    0  501 -0.00000000000E+00 -0.00000000000E+00 -0.30032934015E+04  0.30032934015E+04  0.00000000000E+00 0.  1.
         23    2    1    2    0    0 -0.11823051226E+04  0.14203182580E+04 -0.22737507191E+04  0.29314730141E+04  0.91882220421E+02 0.  0.
         11    1    3    3    0    0 -0.68255545802E+03  0.88778427059E+03 -0.13945460029E+04  0.17885193370E+04  0.00000000000E+00 0. -1.
        -11    1    3    3    0    0 -0.49974966458E+03  0.53253398742E+03 -0.87920471620E+03  0.11429536771E+04  0.00000000000E+00 0.  1.
         22    1    1    2    0    0  0.11823051226E+04 -0.14203182580E+04  0.17301562124E+04  0.25315192822E+04  0.00000000000E+00 0. -1.
<mgrwt>
<rscale>  0 0.54358799E+04</rscale>
<asrwt>0</asrwt>
<pdfrwt beam="1">  1        2 0.37841521E+00 0.54358799E+04</pdfrwt>
<pdfrwt beam="2">  1       -2 0.46204514E+00 0.54358799E+04</pdfrwt>
<totfact> 0.75047821E-03</totfact>
</mgrwt>
</event>
<event>
 6    1  0.1588846E-005  0.2938173E+04  0.7818608E-02  0.8261610E-01
          2   -1    0    0  501    0  0.00000000000E+00  0.00000000000E+00  0.25059547579E+04  0.25059547579E+04  0.00000000000E+00 0.  1.
         -2   -1    0    0    0  501 -0.00000000000E+00 -0.00000000000E+00 -0.86123496697E+03  0.86123496697E+03  0.00000000000E+00 0. -1.
         23    2    1    2    0    0 -0.12837878094E+04  0.30683552273E+03  0.87819717958E+02  0.13260633165E+04  0.92045852566E+02 0.  0.
         11    1    3    3    0    0 -0.72381484891E+03  0.19980205367E+03  0.87382761640E+02  0.75595273872E+03  0.00000000000E+00 0. -1.
        -11    1    3    3    0    0 -0.55997296050E+03  0.10703346906E+03  0.43695631779E+00  0.57011057780E+03  0.00000000000E+00 0.  1.
         22    1    1    2    0    0  0.12837878094E+04 -0.30683552273E+03  0.15569000730E+04  0.20411264084E+04  0.00000000000E+00 0.  1.
<mgrwt>
<rscale>  0 0.29381735E+04</rscale>
<asrwt>0</asrwt>
<pdfrwt beam="1">  1        2 0.38553150E+00 0.29381735E+04</pdfrwt>
<pdfrwt beam="2">  1       -2 0.13249769E+00 0.29381735E+04</pdfrwt>
<totfact> 0.12292693E+00</totfact>
</mgrwt>
</event>
<event>
 6    1  0.1588846E-005  0.1768828E+04  0.7818608E-02  0.8723054E-01
         -2   -1    0    0    0  501 -0.00000000000E+00  0.00000000000E+00  0.65672306908E+03  0.65672306908E+03  0.00000000000E+00 0.  1.
          2   -1    0    0  501    0  0.00000000000E+00 -0.00000000000E+00 -0.11910473019E+04  0.11910473019E+04  0.00000000000E+00 0. -1.
         23    2    1    2    0    0  0.51607965788E+03 -0.88659719724E+02 -0.10093523718E+04  0.11407693159E+04  0.91453061677E+02 0.  0.
         13    1    3    3    0    0  0.23126292437E+03 -0.39126004619E+02 -0.55126994804E+03  0.59909259721E+03  0.00000000000E+00 0. -1.
        -13    1    3    3    0    0  0.28481673352E+03 -0.49533715105E+02 -0.45808242374E+03  0.54167671869E+03  0.00000000000E+00 0.  1.
         22    1    1    2    0    0 -0.51607965788E+03  0.88659719724E+02  0.47502813892E+03  0.70700105513E+03  0.00000000000E+00 0.  1.
<mgrwt>
<rscale>  0 0.17688281E+04</rscale>
<asrwt>0</asrwt>
<pdfrwt beam="1">  1        2 0.18323804E+00 0.17688281E+04</pdfrwt>
<pdfrwt beam="2">  1       -2 0.10103432E+00 0.17688281E+04</pdfrwt>
<totfact> 0.14630913E+01</totfact>
</mgrwt>
</event>
<event>
 6    1  0.1588846E-005  0.1218819E+04  0.7818608E-02  0.9096542E-01
          2   -1    0    0  501    0  0.00000000000E+00  0.00000000000E+00  0.71102340200E+03  0.71102340200E+03  0.00000000000E+00 0. -1.
         -2   -1    0    0    0  501 -0.00000000000E+00 -0.00000000000E+00 -0.52231724926E+03  0.52231724926E+03  0.00000000000E+00 0.  1.
         23    2    1    2    0    0 -0.56514207012E+01 -0.10795565246E+03  0.69844230419E+03  0.71226742651E+03  0.88413082333E+02 0.  0.
         13    1    3    3    0    0  0.40431266189E+02 -0.37467948456E+02  0.25320863068E+03  0.25913923882E+03  0.00000000000E+00 0. -1.
        -13    1    3    3    0    0 -0.46082686890E+02 -0.70487704004E+02  0.44523367351E+03  0.45312818769E+03  0.00000000000E+00 0.  1.
         22    1    1    2    0    0  0.56514207012E+01  0.10795565246E+03 -0.50973615145E+03  0.52107322475E+03  0.00000000000E+00 0.  1.
<mgrwt>
<rscale>  0 0.12188188E+04</rscale>
<asrwt>0</asrwt>
<pdfrwt beam="1">  1        2 0.10938822E+00 0.12188188E+04</pdfrwt>
<pdfrwt beam="2">  1       -2 0.80356499E-01 0.12188188E+04</pdfrwt>
<totfact> 0.54200924E+01</totfact>
</mgrwt>
</event>
<event>
 6    1  0.1588846E-005  0.3633384E+04  0.7818608E-02  0.8082887E-01
         -1   -1    0    0    0  501 -0.00000000000E+00  0.00000000000E+00  0.11681822656E+04  0.11681822656E+04  0.00000000000E+00 0.  1.
          1   -1    0    0  501    0  0.00000000000E+00 -0.00000000000E+00 -0.28252180966E+04  0.28252180966E+04  0.00000000000E+00 0. -1.
         23    2    1    2    0    0 -0.38513143076E+03 -0.17284271775E+04 -0.38926182518E+03  0.18155487473E+04  0.94370326121E+02 0.  0.
         11    1    3    3    0    0 -0.34066182085E+03 -0.13509785183E+04 -0.30685083710E+03  0.14266572361E+04  0.00000000000E+00 0. -1.
        -11    1    3    3    0    0 -0.44469609905E+02 -0.37744865913E+03 -0.82410988075E+02  0.38889151115E+03  0.00000000000E+00 0.  1.
         22    1    1    2    0    0  0.38513143076E+03  0.17284271775E+04 -0.12677740058E+04  0.21778516149E+04  0.00000000000E+00 0. -1.
<mgrwt>
<rscale>  0 0.36333839E+04</rscale>
<asrwt>0</asrwt>
<pdfrwt beam="1">  1        1 0.43464894E+00 0.36333839E+04</pdfrwt>
<pdfrwt beam="2">  1       -1 0.17972035E+00 0.36333839E+04</pdfrwt>
<totfact> 0.13480487E-01</totfact>
</mgrwt>
</event>
<event>
 6    1  0.1588846E-005  0.3119377E+04  0.7818608E-02  0.8210440E-01
         -2   -1    0    0    0  501 -0.00000000000E+00  0.00000000000E+00  0.11315018844E+04  0.11315018844E+04  0.00000000000E+00 0.  1.
          2   -1    0    0  501    0  0.00000000000E+00 -0.00000000000E+00 -0.21499109526E+04  0.21499109526E+04  0.00000000000E+00 0. -1.
         23    2    1    2    0    0  0.15287630829E+04 -0.27551361731E+03 -0.37930429524E+03  0.16016868987E+04  0.92221776291E+02 0.  0.
         11    1    3    3    0    0  0.11805024522E+04 -0.17316217883E+03 -0.29189594180E+03  0.12283217903E+04  0.00000000000E+00 0. -1.
        -11    1    3    3    0    0  0.34826063075E+03 -0.10235143849E+03 -0.87408353442E+02  0.37336510836E+03  0.00000000000E+00 0.  1.
         22    1    1    2    0    0 -0.15287630829E+04  0.27551361731E+03 -0.63910477300E+03  0.16797259383E+04  0.00000000000E+00 0. -1.
<mgrwt>
<rscale>  0 0.31193770E+04</rscale>
<asrwt>0</asrwt>
<pdfrwt beam="1">  1        2 0.33075553E+00 0.31193770E+04</pdfrwt>
<pdfrwt beam="2">  1       -2 0.17407721E+00 0.31193770E+04</pdfrwt>
<totfact> 0.93145472E-01</totfact>
</mgrwt>
</event>
<event>
 6    1  0.2040686E-005  0.3048665E+04  0.7818608E-02  0.8229969E-01
         -1   -1    0    0    0  501 -0.00000000000E+00  0.00000000000E+00  0.94048644048E+03  0.94048644048E+03  0.00000000000E+00 0.  1.
          1   -1    0    0  501    0  0.00000000000E+00 -0.00000000000E+00 -0.24706246179E+04  0.24706246179E+04  0.00000000000E+00 0. -1.
         23    2    1    2    0    0 -0.78319886332E+03 -0.33339091572E+03  0.64738802886E+03  0.10731268110E+04  0.89106286496E+02 0.  0.
         11    1    3    3    0    0 -0.39023611807E+03 -0.18683835748E+03  0.37916712847E+03  0.57529167470E+03  0.00000000000E+00 0. -1.
        -11    1    3    3    0    0 -0.39296274525E+03 -0.14655255824E+03  0.26822090039E+03  0.49783513625E+03  0.00000000000E+00 0.  1.
         22    1    1    2    0    0  0.78319886332E+03  0.33339091572E+03 -0.21775262063E+04  0.23379842475E+04  0.00000000000E+00 0. -1.
<mgrwt>
<rscale>  0 0.30486646E+04</rscale>
<asrwt>0</asrwt>
<pdfrwt beam="1">  1        1 0.38009610E+00 0.30486646E+04</pdfrwt>
<pdfrwt beam="2">  1       -1 0.14469022E+00 0.30486646E+04</pdfrwt>
<totfact> 0.46222577E-01</totfact>
</mgrwt>
</event>
<event>
 6    1  0.1588846E-005  0.4823198E+04  0.7818608E-02  0.7856375E-01
          2   -1    0    0  501    0  0.00000000000E+00  0.00000000000E+00  0.40687559407E+04  0.40687559407E+04  0.00000000000E+00 0. -1.
         -2   -1    0    0    0  501 -0.00000000000E+00 -0.00000000000E+00 -0.14293825771E+04  0.14293825771E+04  0.00000000000E+00 0.  1.
         23    2    1    2    0    0  0.10923345671E+04  0.67657853421E+03  0.36453826445E+04  0.38662659759E+04  0.90800063580E+02 0.  0.
         11    1    3    3    0    0  0.95312244084E+03  0.57098902872E+03  0.30658805289E+04  0.32609959025E+04  0.00000000000E+00 0.  1.
        -11    1    3    3    0    0  0.13921212631E+03  0.10558950549E+03  0.57950211560E+03  0.60527007341E+03  0.00000000000E+00 0. -1.
         22    1    1    2    0    0 -0.10923345671E+04 -0.67657853421E+03 -0.10060092810E+04  0.16318725419E+04  0.00000000000E+00 0.  1.
<mgrwt>
<rscale>  0 0.48231976E+04</rscale>
<asrwt>0</asrwt>
<pdfrwt beam="1">  1        2 0.62596245E+00 0.48231976E+04</pdfrwt>
<pdfrwt beam="2">  1       -2 0.21990501E+00 0.48231976E+04</pdfrwt>
<totfact> 0.21847209E-02</totfact>
</mgrwt>
</event>
<event>
 6    1  0.1588846E-005  0.2254554E+04  0.7818608E-02  0.8496059E-01
         -1   -1    0    0    0  501 -0.00000000000E+00  0.00000000000E+00  0.15252434272E+04  0.15252434272E+04  0.00000000000E+00 0.  1.
          1   -1    0    0  501    0  0.00000000000E+00 -0.00000000000E+00 -0.83314758266E+03  0.83314758266E+03  0.00000000000E+00 0. -1.
         23    2    1    2    0    0  0.10229601469E+04  0.42653611324E+03  0.13952588003E+03  0.11199589028E+04  0.80373844110E+02 0.  0.
         13    1    3    3    0    0  0.18393036147E+03  0.61317499639E+02  0.51859160624E+02  0.20069774830E+03  0.00000000000E+00 0. -1.
        -13    1    3    3    0    0  0.83902978541E+03  0.36521861360E+03  0.87666719402E+02  0.91926115453E+03  0.00000000000E+00 0.  1.
         22    1    1    2    0    0 -0.10229601469E+04 -0.42653611324E+03  0.55256996448E+03  0.12384321070E+04  0.00000000000E+00 0.  1.
<mgrwt>
<rscale>  0 0.22545535E+04</rscale>
<asrwt>0</asrwt>
<pdfrwt beam="1">  1        1 0.12817655E+00 0.22545535E+04</pdfrwt>
<pdfrwt beam="2">  1       -1 0.23465284E+00 0.22545535E+04</pdfrwt>
<totfact> 0.16514101E+00</totfact>
</mgrwt>
</event>
<event>
 6    1  0.1588846E-005  0.1093882E+04  0.7818608E-02  0.9211176E-01
         -1   -1    0    0    0  501 -0.00000000000E+00  0.00000000000E+00  0.12308681261E+04  0.12308681261E+04  0.00000000000E+00 0.  1.
          1   -1    0    0  501    0  0.00000000000E+00 -0.00000000000E+00 -0.24303519822E+03  0.24303519822E+03  0.00000000000E+00 0. -1.
         23    2    1    2    0    0  0.40194821678E+03 -0.11336360130E+02  0.98938728465E+03  0.10717922724E+04  0.90336006633E+02 0.  0.
         11    1    3    3    0    0  0.36764084931E+03 -0.34068334474E+02  0.85685502285E+03  0.93301713579E+03  0.00000000000E+00 0. -1.
        -11    1    3    3    0    0  0.34307367465E+02  0.22731974344E+02  0.13253226180E+03  0.13877513660E+03  0.00000000000E+00 0.  1.
         22    1    1    2    0    0 -0.40194821678E+03  0.11336360130E+02 -0.15543567994E+01  0.40211105189E+03  0.00000000000E+00 0. -1.
<mgrwt>
<rscale>  0 0.10938817E+04</rscale>
<asrwt>0</asrwt>
<pdfrwt beam="1">  1        1 0.37390031E-01 0.10938817E+04</pdfrwt>
<pdfrwt beam="2">  1       -1 0.18936432E+00 0.10938817E+04</pdfrwt>
<totfact> 0.20545687E+01</totfact>
</mgrwt>
</event>
<event>
 6    1  0.1588846E-005  0.2255060E+04  0.7818608E-02  0.8495854E-01
          2   -1    0    0  501    0  0.00000000000E+00  0.00000000000E+00  0.16071937416E+04  0.16071937416E+04  0.00000000000E+00 0. -1.
         -2   -1    0    0    0  501 -0.00000000000E+00 -0.00000000000E+00 -0.79102100225E+03  0.79102100225E+03  0.00000000000E+00 0.  1.
         23    2    1    2    0    0 -0.14782077338E+03 -0.10556727436E+04  0.79344637588E+03  0.13320006892E+04  0.91502798464E+02 0.  0.
         11    1    3    3    0    0 -0.99326210499E+02 -0.54950699171E+03  0.46494292692E+03  0.72663302659E+03  0.00000000000E+00 0. -1.
        -11    1    3    3    0    0 -0.48494562879E+02 -0.50616575188E+03  0.32850344896E+03  0.60536766265E+03  0.00000000000E+00 0.  1.
         22    1    1    2    0    0  0.14782077338E+03  0.10556727436E+04  0.22726363448E+02  0.10662140546E+04  0.00000000000E+00 0. -1.
<mgrwt>
<rscale>  0 0.22550601E+04</rscale>
<asrwt>0</asrwt>
<pdfrwt beam="1">  1        2 0.24726057E+00 0.22550601E+04</pdfrwt>
<pdfrwt beam="2">  1       -2 0.12169554E+00 0.22550601E+04</pdfrwt>
<totfact> 0.51559380E+00</totfact>
</mgrwt>
</event>
<event>
 6    1  0.1588846E-005  0.1097458E+04  0.7818608E-02  0.9207673E-01
          1   -1    0    0  501    0  0.00000000000E+00  0.00000000000E+00  0.10832808225E+04  0.10832808225E+04  0.00000000000E+00 0. -1.
         -1   -1    0    0    0  501 -0.00000000000E+00 -0.00000000000E+00 -0.27795525360E+03  0.27795525360E+03  0.00000000000E+00 0.  1.
         23    2    1    2    0    0 -0.42584017549E+03 -0.33834059060E+03  0.35977122266E+03  0.65814796941E+03  0.88933720747E+02 0.  0.
         11    1    3    3    0    0 -0.22164790996E+03 -0.18258312175E+03  0.13698819925E+03  0.31816687299E+03  0.00000000000E+00 0. -1.
        -11    1    3    3    0    0 -0.20419226553E+03 -0.15575746884E+03  0.22278302341E+03  0.33998109642E+03  0.00000000000E+00 0.  1.
         22    1    1    2    0    0  0.42584017549E+03  0.33834059060E+03  0.44555434622E+03  0.70308810667E+03  0.00000000000E+00 0. -1.
<mgrwt>
<rscale>  0 0.10974581E+04</rscale>
<asrwt>0</asrwt>
<pdfrwt beam="1">  1        1 0.16665859E+00 0.10974581E+04</pdfrwt>
<pdfrwt beam="2">  1       -1 0.42762347E-01 0.10974581E+04</pdfrwt>
<totfact> 0.70015455E+01</totfact>
</mgrwt>
</event>
<event>
 6    1  0.1588846E-005  0.8139903E+03  0.7818608E-02  0.9539985E-01
         -3   -1    0    0    0  501 -0.00000000000E+00  0.00000000000E+00  0.38941503085E+03  0.38941503085E+03  0.00000000000E+00 0.  1.
          3   -1    0    0  501    0  0.00000000000E+00 -0.00000000000E+00 -0.42536894465E+03  0.42536894465E+03  0.00000000000E+00 0. -1.
         23    2    1    2    0    0 -0.13596123886E+03 -0.30414991513E+03  0.21111135687E+03  0.40001430771E+03  0.66714406453E+02 0.  0.
         13    1    3    3    0    0 -0.47202398189E+02 -0.15332273864E+03  0.69247889450E+02  0.17473179096E+03  0.00000000000E+00 0. -1.
        -13    1    3    3    0    0 -0.88758840673E+02 -0.15082717649E+03  0.14186346742E+03  0.22528251675E+03  0.00000000000E+00 0.  1.
         22    1    1    2    0    0  0.13596123886E+03  0.30414991513E+03 -0.24706527068E+03  0.41476966779E+03  0.00000000000E+00 0. -1.
<mgrwt>
<rscale>  0 0.81399032E+03</rscale>
<asrwt>0</asrwt>
<pdfrwt beam="1">  1        3 0.65441376E-01 0.81399032E+03</pdfrwt>
<pdfrwt beam="2">  1       -3 0.59910004E-01 0.81399032E+03</pdfrwt>
<totfact> 0.16195831E+01</totfact>
</mgrwt>
</event>
<event>
 6    1  0.1588846E-005  0.3958396E+04  0.7818608E-02  0.8012992E-01
         -1   -1    0    0    0  501 -0.00000000000E+00  0.00000000000E+00  0.24126096373E+04  0.24126096373E+04  0.00000000000E+00 0.  1.
          1   -1    0    0  501    0  0.00000000000E+00 -0.00000000000E+00 -0.16236463653E+04  0.16236463653E+04  0.00000000000E+00 0. -1.
         23    2    1    2    0    0  0.13086456292E+04 -0.94580555602E+02  0.19041968487E+04  0.23142673862E+04  0.91482412801E+02 0.  0.
         11    1    3    3    0    0  0.52206462499E+03 -0.39255484912E+02  0.68195146228E+03  0.85973848504E+03  0.00000000000E+00 0.  1.
        -11    1    3    3    0    0  0.78658100418E+03 -0.55325070689E+02  0.12222453865E+04  0.14545289012E+04  0.00000000000E+00 0. -1.
         22    1    1    2    0    0 -0.13086456292E+04  0.94580555602E+02 -0.11152335768E+04  0.17219886164E+04  0.00000000000E+00 0. -1.
<mgrwt>
<rscale>  0 0.39583961E+04</rscale>
<asrwt>0</asrwt>
<pdfrwt beam="1">  1        1 0.24979175E+00 0.39583961E+04</pdfrwt>
<pdfrwt beam="2">  1       -1 0.37117072E+00 0.39583961E+04</pdfrwt>
<totfact> 0.47341383E-02</totfact>
</mgrwt>
</event>
<event>
 6    1  0.1588846E-005  0.4195542E+03  0.7818608E-02  0.1037212E+00
         -1   -1    0    0    0  501 -0.00000000000E+00  0.00000000000E+00  0.37138818828E+02  0.37138818828E+02  0.00000000000E+00 0.  1.
          1   -1    0    0  501    0  0.00000000000E+00 -0.00000000000E+00 -0.11849171996E+04  0.11849171996E+04  0.00000000000E+00 0. -1.
         23    2    1    2    0    0  0.16245480714E+03  0.11623452672E+03 -0.57941457107E+03  0.61961145688E+03  0.91077344916E+02 0.  0.
         13    1    3    3    0    0  0.16835621644E+02  0.61649791663E+02 -0.17810459519E+03  0.18922310059E+03  0.00000000000E+00 0. -1.
        -13    1    3    3    0    0  0.14561918550E+03  0.54584735053E+02 -0.40130997588E+03  0.43038835629E+03  0.00000000000E+00 0.  1.
         22    1    1    2    0    0 -0.16245480714E+03 -0.11623452672E+03 -0.56836380969E+03  0.60244456154E+03  0.00000000000E+00 0. -1.
<mgrwt>
<rscale>  0 0.41955417E+03</rscale>
<asrwt>0</asrwt>
<pdfrwt beam="1">  1        1 0.18229494E+00 0.41955417E+03</pdfrwt>
<pdfrwt beam="2">  1       -1 0.57136649E-02 0.41955417E+03</pdfrwt>
<totfact> 0.16856663E+03</totfact>
</mgrwt>
</event>
<event>
 6    1  0.1588846E-005  0.4900171E+03  0.7818608E-02  0.1016418E+00
          1   -1    0    0  501    0  0.00000000000E+00  0.00000000000E+00  0.46516560266E+03  0.46516560266E+03  0.00000000000E+00 0. -1.
         -1   -1    0    0    0  501 -0.00000000000E+00 -0.00000000000E+00 -0.12904904633E+03  0.12904904633E+03  0.00000000000E+00 0.  1.
         23    2    1    2    0    0 -0.12031901291E+03 -0.15926938864E+03  0.32766928477E+03  0.39442786409E+03  0.91448219039E+02 0.  0.
         11    1    3    3    0    0 -0.45061001863E+02 -0.10147735042E+03  0.24337353482E+03  0.26750481115E+03  0.00000000000E+00 0. -1.
        -11    1    3    3    0    0 -0.75258011049E+02 -0.57792038222E+02  0.84295749947E+02  0.12692305294E+03  0.00000000000E+00 0.  1.
         22    1    1    2    0    0  0.12031901291E+03  0.15926938864E+03  0.84472715595E+01  0.19978678490E+03  0.00000000000E+00 0.  1.
<mgrwt>
<rscale>  0 0.49001705E+03</rscale>
<asrwt>0</asrwt>
<pdfrwt beam="1">  1        1 0.71563938E-01 0.49001705E+03</pdfrwt>
<pdfrwt beam="2">  1       -1 0.19853700E-01 0.49001705E+03</pdfrwt>
<totfact> 0.10166248E+03</totfact>
</mgrwt>
</event>
<event>
 6    1  0.1588846E-005  0.5198954E+04  0.7818608E-02  0.7798529E-01
         -2   -1    0    0    0  501 -0.00000000000E+00  0.00000000000E+00  0.26058526962E+04  0.26058526962E+04  0.00000000000E+00 0.  1.
          2   -1    0    0  501    0  0.00000000000E+00 -0.00000000000E+00 -0.25931165860E+04  0.25931165860E+04  0.00000000000E+00 0. -1.
         23    2    1    2    0    0  0.22154659351E+03  0.19006145172E+04  0.17645474620E+04  0.26046945381E+04  0.96888879453E+02 0.  0.
         11    1    3    3    0    0  0.17073574248E+03  0.10717509934E+04  0.97876540298E+03  0.14614316952E+04  0.00000000000E+00 0.  1.
        -11    1    3    3    0    0  0.50810851029E+02  0.82886352375E+03  0.78578205905E+03  0.11432628429E+04  0.00000000000E+00 0. -1.
         22    1    1    2    0    0 -0.22154659351E+03 -0.19006145172E+04 -0.17518113518E+04  0.25942747442E+04  0.00000000000E+00 0. -1.
<mgrwt>
<rscale>  0 0.51989537E+04</rscale>
<asrwt>0</asrwt>
<pdfrwt beam="1">  1        2 0.39894101E+00 0.51989537E+04</pdfrwt>
<pdfrwt beam="2">  1       -2 0.40090041E+00 0.51989537E+04</pdfrwt>
<totfact> 0.16132827E-02</totfact>
</mgrwt>
</event>
<event>
 6    1  0.1588846E-005  0.1330313E+04  0.7818608E-02  0.9005866E-01
         -1   -1    0    0    0  501 -0.00000000000E+00  0.00000000000E+00  0.32090843029E+03  0.32090843029E+03  0.00000000000E+00 0.  1.
          1   -1    0    0  501    0  0.00000000000E+00 -0.00000000000E+00 -0.13786897412E+04  0.13786897412E+04  0.00000000000E+00 0. -1.
         23    2    1    2    0    0  0.12423961500E+02  0.31852178768E+03 -0.12716374185E+04  0.13157428357E+04  0.11183470666E+03 0.  0.
         11    1    3    3    0    0  0.34776663362E+01 -0.59324903469E+01 -0.92289251717E+02  0.92545094885E+02  0.00000000000E+00 0. -1.
        -11    1    3    3    0    0  0.89462951635E+01  0.32445427802E+03 -0.11793481668E+04  0.12231977408E+04  0.00000000000E+00 0.  1.
         22    1    1    2    0    0 -0.12423961500E+02 -0.31852178768E+03  0.21385610759E+03  0.38385533577E+03  0.00000000000E+00 0.  1.
<mgrwt>
<rscale>  0 0.13303130E+04</rscale>
<asrwt>0</asrwt>
<pdfrwt beam="1">  1        1 0.21210612E+00 0.13303130E+04</pdfrwt>
<pdfrwt beam="2">  1       -1 0.49370526E-01 0.13303130E+04</pdfrwt>
<totfact> 0.32052198E+01</totfact>
</mgrwt>
</event>
<event>
 6    1  0.1588846E-005  0.4952563E+03  0.7818608E-02  0.1015025E+00
          1   -1    0    0  501    0  0.00000000000E+00  0.00000000000E+00  0.89123961254E+03  0.89123961254E+03  0.00000000000E+00 0. -1.
         -1   -1    0    0    0  501 -0.00000000000E+00 -0.00000000000E+00 -0.68802719430E+02  0.68802719430E+02  0.00000000000E+00 0.  1.
         23    2    1    2    0    0 -0.11777816274E+03  0.20396134505E+03  0.51004585440E+03  0.56881338754E+03  0.89050381051E+02 0.  0.
         13    1    3    3    0    0 -0.45364926014E+02  0.16005996613E+03  0.35826729631E+03  0.39500965162E+03  0.00000000000E+00 0. -1.
        -13    1    3    3    0    0 -0.72413236723E+02  0.43901378914E+02  0.15177855810E+03  0.17380373592E+03  0.00000000000E+00 0.  1.
         22    1    1    2    0    0  0.11777816274E+03 -0.20396134505E+03  0.31239103871E+03  0.39122894443E+03  0.00000000000E+00 0. -1.
<mgrwt>
<rscale>  0 0.49525633E+03</rscale>
<asrwt>0</asrwt>
<pdfrwt beam="1">  1        1 0.13711378E+00 0.49525633E+03</pdfrwt>
<pdfrwt beam="2">  1       -1 0.10585034E-01 0.49525633E+03</pdfrwt>
<totfact> 0.10785981E+03</totfact>
</mgrwt>
</event>
<event>
 6    1  0.1588846E-005  0.1279491E+04  0.7818608E-02  0.9045989E-01
          1   -1    0    0  501    0  0.00000000000E+00  0.00000000000E+00  0.90348811954E+03  0.90348811954E+03  0.00000000000E+00 0. -1.
         -1   -1    0    0    0  501 -0.00000000000E+00 -0.00000000000E+00 -0.45299390406E+03  0.45299390406E+03  0.00000000000E+00 0.  1.
         23    2    1    2    0    0 -0.11791416680E+03  0.62527153150E+03  0.21302758048E+03  0.67732177625E+03  0.92281090676E+02 0.  0.
         11    1    3    3    0    0 -0.11013906416E+03  0.55758410065E+03  0.15846834258E+03  0.59003631952E+03  0.00000000000E+00 0. -1.
        -11    1    3    3    0    0 -0.77751026450E+01  0.67687430854E+02  0.54559237899E+02  0.87285456732E+02  0.00000000000E+00 0.  1.
         22    1    1    2    0    0  0.11791416680E+03 -0.62527153150E+03  0.23746663501E+03  0.67916024735E+03  0.00000000000E+00 0.  1.
<mgrwt>
<rscale>  0 0.12794915E+04</rscale>
<asrwt>0</asrwt>
<pdfrwt beam="1">  1        1 0.13899817E+00 0.12794915E+04</pdfrwt>
<pdfrwt beam="2">  1       -1 0.69691370E-01 0.12794915E+04</pdfrwt>
<totfact> 0.37044755E+01</totfact>
</mgrwt>
</event>
<event>
 6    1  0.1588846E-005  0.1060798E+04  0.7818608E-02  0.9244267E-01
          1   -1    0    0  501    0  0.00000000000E+00  0.00000000000E+00  0.88795089593E+03  0.88795089593E+03  0.00000000000E+00 0. -1.
         -1   -1    0    0    0  501 -0.00000000000E+00 -0.00000000000E+00 -0.31682260445E+03  0.31682260445E+03  0.00000000000E+00 0.  1.
         23    2    1    2    0    0  0.51901074759E+03 -0.76844768671E+02  0.24038153710E+03  0.58455524032E+03  0.92974571866E+02 0.  0.
         11    1    3    3    0    0  0.19182828986E+03 -0.67556328717E+02  0.66824174161E+02  0.21407340001E+03  0.00000000000E+00 0. -1.
        -11    1    3    3    0    0  0.32718245773E+03 -0.92884399542E+01  0.17355736294E+03  0.37048184030E+03  0.00000000000E+00 0.  1.
         22    1    1    2    0    0 -0.51901074759E+03  0.76844768671E+02  0.33074675437E+03  0.62021826006E+03  0.00000000000E+00 0.  1.
<mgrwt>
<rscale>  0 0.10607977E+04</rscale>
<asrwt>0</asrwt>
<pdfrwt beam="1">  1        1 0.13660783E+00 0.10607977E+04</pdfrwt>
<pdfrwt beam="2">  1       -1 0.48741940E-01 0.10607977E+04</pdfrwt>
<totfact> 0.78326453E+01</totfact>
</mgrwt>
</event>
<event>
 6    1  0.1588846E-005  0.1122551E+04  0.7818608E-02  0.9183487E-01
          1   -1    0    0  501    0  0.00000000000E+00  0.00000000000E+00  0.20015109052E+04  0.20015109052E+04  0.00000000000E+00 0. -1.
         -1   -1    0    0    0  501 -0.00000000000E+00 -0.00000000000E+00 -0.15739610519E+03  0.15739610519E+03  0.00000000000E+00 0.  1.
         23    2    1    2    0    0  0.43552195679E+03 -0.31814795674E+02  0.26250448123E+03  0.51811977355E+03  0.94063494573E+02 0.  0.
         11    1    3    3    0    0  0.34989650658E+03 -0.63041875158E+02  0.21119204588E+03  0.41352620665E+03  0.00000000000E+00 0.  1.
        -11    1    3    3    0    0  0.85625450209E+02  0.31227079484E+02  0.51312435348E+02  0.10459356690E+03  0.00000000000E+00 0. -1.
         22    1    1    2    0    0 -0.43552195679E+03  0.31814795674E+02  0.15816103188E+04  0.16407872369E+04  0.00000000000E+00 0. -1.
<mgrwt>
<rscale>  0 0.11225507E+04</rscale>
<asrwt>0</asrwt>
<pdfrwt beam="1">  1        1 0.30792474E+00 0.11225507E+04</pdfrwt>
<pdfrwt beam="2">  1       -1 0.24214787E-01 0.11225507E+04</pdfrwt>
<totfact> 0.43882516E+01</totfact>
</mgrwt>
</event>
<event>
 6    1  0.1588846E-005  0.4967221E+04  0.7818608E-02  0.7833584E-01
         -1   -1    0    0    0  501 -0.00000000000E+00  0.00000000000E+00  0.17828302444E+04  0.17828302444E+04  0.00000000000E+00 0.  1.
          1   -1    0    0  501    0  0.00000000000E+00 -0.00000000000E+00 -0.34598481222E+04  0.34598481222E+04  0.00000000000E+00 0. -1.
         23    2    1    2    0    0  0.21366482232E+04 -0.10911907385E+04 -0.16437361965E+03  0.24064739471E+04  0.90195974732E+02 0.  0.
         13    1    3    3    0    0  0.10563348393E+04 -0.55690536309E+03 -0.12424817446E+03  0.12005933887E+04  0.00000000000E+00 0. -1.
        -13    1    3    3    0    0  0.10803133839E+04 -0.53428537538E+03 -0.40125445192E+02  0.12058805584E+04  0.00000000000E+00 0.  1.
         22    1    1    2    0    0 -0.21366482232E+04  0.10911907385E+04 -0.15126442582E+04  0.28362044195E+04  0.00000000000E+00 0.  1.
<mgrwt>
<rscale>  0 0.49672213E+04</rscale>
<asrwt>0</asrwt>
<pdfrwt beam="1">  1        1 0.53228432E+00 0.49672213E+04</pdfrwt>
<pdfrwt beam="2">  1       -1 0.27428158E+00 0.49672213E+04</pdfrwt>
<totfact> 0.94184080E-03</totfact>
</mgrwt>
</event>
<event>
 6    1  0.1588846E-005  0.2025269E+04  0.7818608E-02  0.8594897E-01
         -1   -1    0    0    0  501 -0.00000000000E+00  0.00000000000E+00  0.16887242373E+04  0.16887242373E+04  0.00000000000E+00 0.  1.
          1   -1    0    0  501    0  0.00000000000E+00 -0.00000000000E+00 -0.60722080119E+03  0.60722080119E+03  0.00000000000E+00 0. -1.
         23    2    1    2    0    0  0.16809692675E+03  0.60636364165E+03 -0.35444924628E+03  0.72817798030E+03  0.93142150026E+02 0.  0.
         13    1    3    3    0    0  0.59692891980E+02  0.87590989868E+02 -0.64248297687E+02  0.12394864507E+03  0.00000000000E+00 0.  1.
        -13    1    3    3    0    0  0.10840403477E+03  0.51877265178E+03 -0.29020094859E+03  0.60422933523E+03  0.00000000000E+00 0. -1.
         22    1    1    2    0    0 -0.16809692675E+03 -0.60636364165E+03  0.14359526824E+04  0.15677670582E+04  0.00000000000E+00 0.  1.
<mgrwt>
<rscale>  0 0.20252689E+04</rscale>
<asrwt>0</asrwt>
<pdfrwt beam="1">  1        1 0.93418586E-01 0.20252689E+04</pdfrwt>
<pdfrwt beam="2">  1       -1 0.25980373E+00 0.20252689E+04</pdfrwt>
<totfact> 0.18750560E+00</totfact>
</mgrwt>
</event>
<event>
 6    1  0.1588846E-005  0.9841471E+03  0.7818608E-02  0.9326105E-01
         -2   -1    0    0    0  501 -0.00000000000E+00  0.00000000000E+00  0.18069788474E+03  0.18069788474E+03  0.00000000000E+00 0.  1.
          2   -1    0    0  501    0  0.00000000000E+00 -0.00000000000E+00 -0.13400066185E+04  0.13400066185E+04  0.00000000000E+00 0. -1.
         23    2    1    2    0    0  0.36260470256E+03 -0.20351419977E+03 -0.19560046650E+03  0.47111704893E+03  0.10388229625E+03 0.  0.
         11    1    3    3    0    0  0.20501380248E+03 -0.97173399704E+02 -0.51726214240E+02  0.23269922659E+03  0.00000000000E+00 0.  1.
        -11    1    3    3    0    0  0.15759090008E+03 -0.10634080007E+03 -0.14387425226E+03  0.23841782234E+03  0.00000000000E+00 0. -1.
         22    1    1    2    0    0 -0.36260470256E+03  0.20351419977E+03 -0.96370826722E+03  0.10495874543E+04  0.00000000000E+00 0.  1.
<mgrwt>
<rscale>  0 0.98414707E+03</rscale>
<asrwt>0</asrwt>
<pdfrwt beam="1">  1        2 0.20615487E+00 0.98414707E+03</pdfrwt>
<pdfrwt beam="2">  1       -2 0.27799674E-01 0.98414707E+03</pdfrwt>
<totfact> 0.18468780E+02</totfact>
</mgrwt>
</event>
<event>
 6    1  0.1588846E-005  0.1017557E+04  0.7818608E-02  0.9289496E-01
         -2   -1    0    0    0  501 -0.00000000000E+00  0.00000000000E+00  0.38391732355E+03  0.38391732355E+03  0.00000000000E+00 0.  1.
          2   -1    0    0  501    0  0.00000000000E+00 -0.00000000000E+00 -0.67424768855E+03  0.67424768855E+03  0.00000000000E+00 0. -1.
         23    2    1    2    0    0  0.33135657402E+03  0.20191940903E+03  0.18909124960E+03  0.44138813880E+03  0.92191981804E+02 0.  0.
         13    1    3    3    0    0  0.11226839522E+03  0.86200581086E+02  0.11616065179E+03  0.18310660766E+03  0.00000000000E+00 0.  1.
        -13    1    3    3    0    0  0.21908817881E+03  0.11571882794E+03  0.72930597813E+02  0.25828153115E+03  0.00000000000E+00 0. -1.
         22    1    1    2    0    0 -0.33135657402E+03 -0.20191940903E+03 -0.47942161460E+03  0.61677687330E+03  0.00000000000E+00 0. -1.
<mgrwt>
<rscale>  0 0.10175566E+04</rscale>
<asrwt>0</asrwt>
<pdfrwt beam="1">  1        2 0.10373041E+00 0.10175566E+04</pdfrwt>
<pdfrwt beam="2">  1       -2 0.59064204E-01 0.10175566E+04</pdfrwt>
<totfact> 0.11477975E+02</totfact>
</mgrwt>
</event>
<event>
 6    1  0.1588846E-005  0.3173106E+04  0.7818608E-02  0.8195956E-01
          1   -1    0    0  501    0  0.00000000000E+00  0.00000000000E+00  0.91292732409E+03  0.91292732409E+03  0.00000000000E+00 0. -1.
         -1   -1    0    0    0  501 -0.00000000000E+00 -0.00000000000E+00 -0.27572291424E+04  0.27572291424E+04  0.00000000000E+00 0.  1.
         23    2    1    2    0    0  0.14754756092E+04 -0.56768436669E+03 -0.78923617531E+03  0.17695099121E+04  0.94751121802E+02 0.  0.
         11    1    3    3    0    0  0.95408164006E+03 -0.38213725047E+03 -0.46461786726E+03  0.11279053226E+04  0.00000000000E+00 0. -1.
        -11    1    3    3    0    0  0.52139396916E+03 -0.18554711623E+03 -0.32461830805E+03  0.64160458956E+03  0.00000000000E+00 0.  1.
         22    1    1    2    0    0 -0.14754756092E+04  0.56768436669E+03 -0.10550656430E+04  0.19006465544E+04  0.00000000000E+00 0. -1.
<mgrwt>
<rscale>  0 0.31731056E+04</rscale>
<asrwt>0</asrwt>
<pdfrwt beam="1">  1        1 0.14045036E+00 0.31731056E+04</pdfrwt>
<pdfrwt beam="2">  1       -1 0.42418909E+00 0.31731056E+04</pdfrwt>
<totfact> 0.72573686E-02</totfact>
</mgrwt>
</event>
<event>
 6    1  0.1588846E-005  0.1700807E+04  0.7818608E-02  0.8760904E-01
         -2   -1    0    0    0  501 -0.00000000000E+00  0.00000000000E+00  0.19058709618E+04  0.19058709618E+04  0.00000000000E+00 0.  1.
          2   -1    0    0  501    0  0.00000000000E+00 -0.00000000000E+00 -0.37945177953E+03  0.37945177953E+03  0.00000000000E+00 0. -1.
         23    2    1    2    0    0 -0.69400199674E+03  0.35847843684E+03  0.32159044783E+03  0.84944048971E+03  0.89348577300E+02 0.  0.
         11    1    3    3    0    0 -0.50973118320E+03  0.26291344992E+03  0.27787456770E+03  0.63730968661E+03  0.00000000000E+00 0.  1.
        -11    1    3    3    0    0 -0.18427081355E+03  0.95564986922E+02  0.43715880135E+02  0.21213080311E+03  0.00000000000E+00 0. -1.
         22    1    1    2    0    0  0.69400199674E+03 -0.35847843684E+03  0.12048287344E+04  0.14358822516E+04  0.00000000000E+00 0.  1.
<mgrwt>
<rscale>  0 0.17008070E+04</rscale>
<asrwt>0</asrwt>
<pdfrwt beam="1">  1        2 0.58377198E-01 0.17008070E+04</pdfrwt>
<pdfrwt beam="2">  1       -2 0.29321091E+00 0.17008070E+04</pdfrwt>
<totfact> 0.28136357E+00</totfact>
</mgrwt>
</event>
<event>
 6    1  0.1588846E-005  0.2363896E+04  0.7818608E-02  0.8453146E-01
         -2   -1    0    0    0  501 -0.00000000000E+00  0.00000000000E+00  0.11116958409E+04  0.11116958409E+04  0.00000000000E+00 0.  1.
          2   -1    0    0  501    0  0.00000000000E+00 -0.00000000000E+00 -0.12566392199E+04  0.12566392199E+04  0.00000000000E+00 0. -1.
         23    2    1    2    0    0  0.55163212765E+03  0.10341850321E+04  0.65565091332E+02  0.11774738174E+04  0.91154400197E+02 0.  0.
         11    1    3    3    0    0  0.52354960678E+03  0.98297218417E+03  0.42013170175E+02  0.11144970220E+04  0.00000000000E+00 0. -1.
        -11    1    3    3    0    0  0.28082520873E+02  0.51212847917E+02  0.23551921157E+02  0.62976795413E+02  0.00000000000E+00 0.  1.
         22    1    1    2    0    0 -0.55163212765E+03 -0.10341850321E+04 -0.21050847039E+03  0.11908612434E+04  0.00000000000E+00 0. -1.
<mgrwt>
<rscale>  0 0.23638956E+04</rscale>
<asrwt>0</asrwt>
<pdfrwt beam="1">  1        2 0.19332911E+00 0.23638956E+04</pdfrwt>
<pdfrwt beam="2">  1       -2 0.17103013E+00 0.23638956E+04</pdfrwt>
<totfact> 0.33133201E+00</totfact>
</mgrwt>
</event>
<event>
 6    1  0.1588846E-005  0.2507527E+04  0.7818608E-02  0.8400309E-01
         -2   -1    0    0    0  501 -0.00000000000E+00  0.00000000000E+00  0.73918066804E+03  0.73918066804E+03  0.00000000000E+00 0.  1.
          2   -1    0    0  501    0  0.00000000000E+00 -0.00000000000E+00 -0.21265748088E+04  0.21265748088E+04  0.00000000000E+00 0. -1.
         23    2    1    2    0    0 -0.99600594090E+03 -0.11220798682E+03 -0.15521977605E+04  0.18499903959E+04  0.92347769683E+02 0.  0.
         13    1    3    3    0    0 -0.52771085461E+03 -0.13046025783E+02 -0.81276272794E+03  0.96913992632E+03  0.00000000000E+00 0.  1.
        -13    1    3    3    0    0 -0.46829508628E+03 -0.99161961036E+02 -0.73943503256E+03  0.88085046956E+03  0.00000000000E+00 0. -1.
         22    1    1    2    0    0  0.99600594090E+03  0.11220798682E+03  0.16480361975E+03  0.10157650810E+04  0.00000000000E+00 0.  1.
<mgrwt>
<rscale>  0 0.25075271E+04</rscale>
<asrwt>0</asrwt>
<pdfrwt beam="1">  1        2 0.32716535E+00 0.25075271E+04</pdfrwt>
<pdfrwt beam="2">  1       -2 0.11372010E+00 0.25075271E+04</pdfrwt>
<totfact> 0.30666377E+00</totfact>
</mgrwt>
</event>
<event>
 6    1  0.1588846E-005  0.2532195E+04  0.7818608E-02  0.8391605E-01
          2   -1    0    0  501    0  0.00000000000E+00  0.00000000000E+00  0.31533403025E+04  0.31533403025E+04  0.00000000000E+00 0. -1.
         -2   -1    0    0    0  501 -0.00000000000E+00 -0.00000000000E+00 -0.50835078142E+03  0.50835078142E+03  0.00000000000E+00 0.  1.
         23    2    1    2    0    0 -0.93718718521E+03 -0.63223943103E+03  0.50613972985E+03  0.12424505114E+04  0.97259081288E+02 0.  0.
         11    1    3    3    0    0 -0.49889252300E+03 -0.38239340668E+03  0.31342101669E+03  0.70238963594E+03  0.00000000000E+00 0.  1.
        -11    1    3    3    0    0 -0.43829466221E+03 -0.24984602434E+03  0.19271871317E+03  0.54006087547E+03  0.00000000000E+00 0. -1.
         22    1    1    2    0    0  0.93718718521E+03  0.63223943103E+03  0.21388497913E+04  0.24192405725E+04  0.00000000000E+00 0. -1.
<mgrwt>
<rscale>  0 0.25321951E+04</rscale>
<asrwt>0</asrwt>
<pdfrwt beam="1">  1        2 0.48512927E+00 0.25321951E+04</pdfrwt>
<pdfrwt beam="2">  1       -2 0.78207814E-01 0.25321951E+04</pdfrwt>
<totfact> 0.17995778E+00</totfact>
</mgrwt>
</event>
<event>
 6    1  0.1588846E-005  0.3931046E+04  0.7818608E-02  0.8018603E-01
          2   -1    0    0  501    0  0.00000000000E+00  0.00000000000E+00  0.15729294645E+04  0.15729294645E+04  0.00000000000E+00 0. -1.
         -2   -1    0    0    0  501 -0.00000000000E+00 -0.00000000000E+00 -0.24561052371E+04  0.24561052371E+04  0.00000000000E+00 0.  1.
         23    2    1    2    0    0 -0.11768742808E+04  0.91766150780E+03  0.86796140955E+03  0.17282484999E+04  0.79687847830E+02 0.  0.
         11    1    3    3    0    0 -0.23906087009E+03  0.19319372334E+03  0.21623901867E+03  0.37581009505E+03  0.00000000000E+00 0. -1.
        -11    1    3    3    0    0 -0.93781341073E+03  0.72446778446E+03  0.65172239088E+03  0.13524384048E+04  0.00000000000E+00 0.  1.
         22    1    1    2    0    0  0.11768742808E+04 -0.91766150780E+03 -0.17511371821E+04  0.23007862018E+04  0.00000000000E+00 0.  1.
<mgrwt>
<rscale>  0 0.39310458E+04</rscale>
<asrwt>0</asrwt>
<pdfrwt beam="1">  1        2 0.24198915E+00 0.39310458E+04</pdfrwt>
<pdfrwt beam="2">  1       -2 0.37786234E+00 0.39310458E+04</pdfrwt>
<totfact> 0.94637813E-02</totfact>
</mgrwt>
</event>
<event>
 6    1  0.1588846E-005  0.6575394E+03  0.7818608E-02  0.9792734E-01
          1   -1    0    0  501    0  0.00000000000E+00  0.00000000000E+00  0.21657532638E+04  0.21657532638E+04  0.00000000000E+00 0. -1.
         -1   -1    0    0    0  501 -0.00000000000E+00 -0.00000000000E+00 -0.49908505106E+02  0.49908505106E+02  0.00000000000E+00 0.  1.
         23    2    1    2    0    0 -0.63531315903E+02  0.30383143938E+03  0.13738815073E+04  0.14113861706E+04  0.90059728643E+02 0.  0.
         11    1    3    3    0    0 -0.37121818047E+00  0.19080519207E+03  0.90906398691E+03  0.92887248394E+03  0.00000000000E+00 0. -1.
        -11    1    3    3    0    0 -0.63160097722E+02  0.11302624731E+03  0.46481752039E+03  0.48251368663E+03  0.00000000000E+00 0.  1.
         22    1    1    2    0    0  0.63531315903E+02 -0.30383143938E+03  0.74196325142E+03  0.80427559836E+03  0.00000000000E+00 0. -1.
<mgrwt>
<rscale>  0 0.65753938E+03</rscale>
<asrwt>0</asrwt>
<pdfrwt beam="1">  1        1 0.33319274E+00 0.65753938E+03</pdfrwt>
<pdfrwt beam="2">  1       -1 0.76782332E-02 0.65753938E+03</pdfrwt>
<totfact> 0.22903259E+02</totfact>
</mgrwt>
</event>
<event>
 6    1  0.1588846E-005  0.1447634E+04  0.7818608E-02  0.8920042E-01
          2   -1    0    0  501    0  0.00000000000E+00  0.00000000000E+00  0.21977867492E+04  0.21977867492E+04  0.00000000000E+00 0. -1.
         -2   -1    0    0    0  501 -0.00000000000E+00 -0.00000000000E+00 -0.23838118442E+03  0.23838118442E+03  0.00000000000E+00 0.  1.
         23    2    1    2    0    0 -0.23612665870E+03 -0.47574928546E+03  0.18040385898E+04  0.18827855355E+04  0.90735647573E+02 0.  0.
         13    1    3    3    0    0 -0.47006204542E+02 -0.18744579227E+03  0.60035056551E+03  0.63068717270E+03  0.00000000000E+00 0.  1.
        -13    1    3    3    0    0 -0.18912045416E+03 -0.28830349319E+03  0.12036880243E+04  0.12520983628E+04  0.00000000000E+00 0. -1.
         22    1    1    2    0    0  0.23612665870E+03  0.47574928546E+03  0.15536697494E+03  0.55338239805E+03  0.00000000000E+00 0.  1.
<mgrwt>
<rscale>  0 0.14476339E+04</rscale>
<asrwt>0</asrwt>
<pdfrwt beam="1">  1        2 0.33812103E+00 0.14476339E+04</pdfrwt>
<pdfrwt beam="2">  1       -2 0.36674030E-01 0.14476339E+04</pdfrwt>
<totfact> 0.35219297E+01</totfact>
</mgrwt>
</event>
<event>
 6    1  0.1588846E-005  0.2942215E+04  0.7818608E-02  0.8260427E-01
          1   -1    0    0  501    0  0.00000000000E+00  0.00000000000E+00  0.10670601184E+04  0.10670601184E+04  0.00000000000E+00 0. -1.
         -1   -1    0    0    0  501 -0.00000000000E+00 -0.00000000000E+00 -0.20281499018E+04  0.20281499018E+04  0.00000000000E+00 0.  1.
         23    2    1    2    0    0 -0.12211465021E+04  0.46114007548E+03  0.22905372942E+03  0.13287756088E+04  0.96592228898E+02 0.  0.
         11    1    3    3    0    0 -0.80498400584E+03  0.25463443998E+03  0.14582415406E+03  0.85679789425E+03  0.00000000000E+00 0. -1.
        -11    1    3    3    0    0 -0.41616249631E+03  0.20650563550E+03  0.83229575366E+02  0.47197771456E+03  0.00000000000E+00 0.  1.
         22    1    1    2    0    0  0.12211465021E+04 -0.46114007548E+03 -0.11901435128E+04  0.17664344115E+04  0.00000000000E+00 0.  1.
<mgrwt>
<rscale>  0 0.29422154E+04</rscale>
<asrwt>0</asrwt>
<pdfrwt beam="1">  1        1 0.16416310E+00 0.29422154E+04</pdfrwt>
<pdfrwt beam="2">  1       -1 0.31202306E+00 0.29422154E+04</pdfrwt>
<totfact> 0.31682414E-01</totfact>
</mgrwt>
</event>
<event>
 6    1  0.1588846E-005  0.1109435E+04  0.7818608E-02  0.9196045E-01
         -2   -1    0    0    0  501 -0.00000000000E+00  0.00000000000E+00  0.30047990433E+03  0.30047990433E+03  0.00000000000E+00 0.  1.
          2   -1    0    0  501    0  0.00000000000E+00 -0.00000000000E+00 -0.10240659495E+04  0.10240659495E+04  0.00000000000E+00 0. -1.
         23    2    1    2    0    0  0.30924638680E+03  0.24408469962E+03 -0.82415461256E+03  0.91794444577E+03  0.90446181715E+02 0.  0.
         11    1    3    3    0    0  0.14589221557E+03  0.15926179775E+03 -0.37873537064E+03  0.43599236204E+03  0.00000000000E+00 0. -1.
        -11    1    3    3    0    0  0.16335417122E+03  0.84822901869E+02 -0.44541924192E+03  0.48195208373E+03  0.00000000000E+00 0.  1.
         22    1    1    2    0    0 -0.30924638680E+03 -0.24408469962E+03  0.10056856734E+03  0.40660140810E+03  0.00000000000E+00 0.  1.
<mgrwt>
<rscale>  0 0.11094345E+04</rscale>
<asrwt>0</asrwt>
<pdfrwt beam="1">  1        2 0.15754861E+00 0.11094345E+04</pdfrwt>
<pdfrwt beam="2">  1       -2 0.46227677E-01 0.11094345E+04</pdfrwt>
<totfact> 0.10698880E+02</totfact>
</mgrwt>
</event>
<event>
 6    1  0.1588846E-005  0.3218168E+04  0.7818608E-02  0.8184035E-01
         -2   -1    0    0    0  501 -0.00000000000E+00  0.00000000000E+00  0.19213472280E+04  0.19213472280E+04  0.00000000000E+00 0.  1.
          2   -1    0    0  501    0  0.00000000000E+00 -0.00000000000E+00 -0.13475707898E+04  0.13475707898E+04  0.00000000000E+00 0. -1.
         23    2    1    2    0    0 -0.13645152807E+04  0.79042327066E+03 -0.31300934866E+02  0.15798977321E+04  0.91794320931E+02 0.  0.
         13    1    3    3    0    0 -0.37016040239E+03  0.25999612837E+03  0.39199643405E+01  0.45236277078E+03  0.00000000000E+00 0.  1.
        -13    1    3    3    0    0 -0.99435487833E+03  0.53042714229E+03 -0.35220899206E+02  0.11275349614E+04  0.00000000000E+00 0. -1.
         22    1    1    2    0    0  0.13645152807E+04 -0.79042327066E+03  0.60507737303E+03  0.16890202857E+04  0.00000000000E+00 0.  1.
<mgrwt>
<rscale>  0 0.32181681E+04</rscale>
<asrwt>0</asrwt>
<pdfrwt beam="1">  1        2 0.20731858E+00 0.32181681E+04</pdfrwt>
<pdfrwt beam="2">  1       -2 0.29559188E+00 0.32181681E+04</pdfrwt>
<totfact> 0.44106008E-01</totfact>
</mgrwt>
</event>
<event>
 6    1  0.1588846E-005  0.2724363E+04  0.7818608E-02  0.8327143E-01
         -1   -1    0    0    0  501 -0.00000000000E+00  0.00000000000E+00  0.86356426689E+03  0.86356426689E+03  0.00000000000E+00 0.  1.
          1   -1    0    0  501    0  0.00000000000E+00 -0.00000000000E+00 -0.21486981569E+04  0.21486981569E+04  0.00000000000E+00 0. -1.
         23    2    1    2    0    0 -0.11284174026E+04  0.75982543364E+03 -0.61518617428E+03  0.14958553327E+04  0.92025122632E+02 0.  0.
         11    1    3    3    0    0 -0.15602859176E+03  0.14414344489E+03 -0.87479706162E+02  0.22972799816E+03  0.00000000000E+00 0. -1.
        -11    1    3    3    0    0 -0.97238881086E+03  0.61568198876E+03 -0.52770646811E+03  0.12661273345E+04  0.00000000000E+00 0.  1.
         22    1    1    2    0    0  0.11284174026E+04 -0.75982543364E+03 -0.66994771577E+03  0.15164070911E+04  0.00000000000E+00 0. -1.
<mgrwt>
<rscale>  0 0.27243634E+04</rscale>
<asrwt>0</asrwt>
<pdfrwt beam="1">  1        1 0.33056894E+00 0.27243634E+04</pdfrwt>
<pdfrwt beam="2">  1       -1 0.13285604E+00 0.27243634E+04</pdfrwt>
<totfact> 0.98714965E-01</totfact>
</mgrwt>
</event>
<event>
 6    1  0.1588846E-005  0.2090472E+04  0.7818608E-02  0.8565452E-01
          1   -1    0    0  501    0  0.00000000000E+00  0.00000000000E+00  0.12292081196E+04  0.12292081196E+04  0.00000000000E+00 0. -1.
         -1   -1    0    0    0  501 -0.00000000000E+00 -0.00000000000E+00 -0.88879876271E+03  0.88879876271E+03  0.00000000000E+00 0.  1.
         23    2    1    2    0    0 -0.77252803956E+03 -0.91057619556E+02  0.87485883029E+03  0.11742233788E+04  0.91277096977E+02 0.  0.
         11    1    3    3    0    0 -0.30610877627E+03  0.64373625764E+01  0.36357663698E+03  0.47532304121E+03  0.00000000000E+00 0. -1.
        -11    1    3    3    0    0 -0.46641926330E+03 -0.97494982132E+02  0.51128219331E+03  0.69890033761E+03  0.00000000000E+00 0.  1.
         22    1    1    2    0    0  0.77252803956E+03  0.91057619556E+02 -0.53444947335E+03  0.94378350354E+03  0.00000000000E+00 0.  1.
<mgrwt>
<rscale>  0 0.20904723E+04</rscale>
<asrwt>0</asrwt>
<pdfrwt beam="1">  1        1 0.18910894E+00 0.20904723E+04</pdfrwt>
<pdfrwt beam="2">  1       -1 0.13673827E+00 0.20904723E+04</pdfrwt>
<totfact> 0.41742804E+00</totfact>
</mgrwt>
</event>
<event>
 6    1  0.1588846E-005  0.9510607E+03  0.7818608E-02  0.9363912E-01
          1   -1    0    0  501    0  0.00000000000E+00  0.00000000000E+00  0.42795537805E+03  0.42795537805E+03  0.00000000000E+00 0. -1.
         -1   -1    0    0    0  501 -0.00000000000E+00 -0.00000000000E+00 -0.52839416382E+03  0.52839416382E+03  0.00000000000E+00 0.  1.
         23    2    1    2    0    0  0.10700239952E+03 -0.31569995532E+02  0.40953590742E+03  0.43431470988E+03  0.91996900118E+02 0.  0.
         11    1    3    3    0    0  0.36249561912E+01  0.13354068611E+02  0.15887744204E+03  0.15947887962E+03  0.00000000000E+00 0. -1.
        -11    1    3    3    0    0  0.10337744333E+03 -0.44924064143E+02  0.25065846538E+03  0.27483583026E+03  0.00000000000E+00 0.  1.
         22    1    1    2    0    0 -0.10700239952E+03  0.31569995532E+02 -0.50997469319E+03  0.52203483199E+03  0.00000000000E+00 0.  1.
<mgrwt>
<rscale>  0 0.95106072E+03</rscale>
<asrwt>0</asrwt>
<pdfrwt beam="1">  1        1 0.65839289E-01 0.95106072E+03</pdfrwt>
<pdfrwt beam="2">  1       -1 0.81291410E-01 0.95106072E+03</pdfrwt>
<totfact> 0.83099728E+01</totfact>
</mgrwt>
</event>
<event>
 6    1  0.1588846E-005  0.4125465E+04  0.7818608E-02  0.7979704E-01
          2   -1    0    0  501    0  0.00000000000E+00  0.00000000000E+00  0.29815430000E+04  0.29815430000E+04  0.00000000000E+00 0. -1.
         -2   -1    0    0    0  501 -0.00000000000E+00 -0.00000000000E+00 -0.14270682490E+04  0.14270682490E+04  0.00000000000E+00 0.  1.
         23    2    1    2    0    0 -0.22159142404E+03  0.10459440903E+04 -0.11061696579E+04  0.15411854923E+04  0.92410012156E+02 0.  0.
         13    1    3    3    0    0 -0.12081247050E+03  0.62058645054E+03 -0.71679193622E+03  0.95577919806E+03  0.00000000000E+00 0. -1.
        -13    1    3    3    0    0 -0.10077895354E+03  0.42535763977E+03 -0.38937772168E+03  0.58540629423E+03  0.00000000000E+00 0.  1.
         22    1    1    2    0    0  0.22159142404E+03 -0.10459440903E+04  0.26606444089E+04  0.28674257566E+04  0.00000000000E+00 0. -1.
<mgrwt>
<rscale>  0 0.41254650E+04</rscale>
<asrwt>0</asrwt>
<pdfrwt beam="1">  1        2 0.45869892E+00 0.41254650E+04</pdfrwt>
<pdfrwt beam="2">  1       -2 0.21954896E+00 0.41254650E+04</pdfrwt>
<totfact> 0.13885167E-01</totfact>
</mgrwt>
</event>
<event>
 6    1  0.1588846E-005  0.2835020E+04  0.7818608E-02  0.8292478E-01
         -2   -1    0    0    0  501 -0.00000000000E+00  0.00000000000E+00  0.78008597618E+03  0.78008597618E+03  0.00000000000E+00 0.  1.
          2   -1    0    0  501    0  0.00000000000E+00 -0.00000000000E+00 -0.25757854403E+04  0.25757854403E+04  0.00000000000E+00 0. -1.
         23    2    1    2    0    0  0.41541030291E+03  0.13491516576E+04 -0.10295332929E+04  0.17497000318E+04  0.93463817115E+02 0.  0.
         13    1    3    3    0    0  0.26621017243E+03  0.99472182771E+03 -0.72944211014E+03  0.12619132944E+04  0.00000000000E+00 0. -1.
        -13    1    3    3    0    0  0.14920013048E+03  0.35442982990E+03 -0.30009118279E+03  0.48778673746E+03  0.00000000000E+00 0.  1.
         22    1    1    2    0    0 -0.41541030291E+03 -0.13491516576E+04 -0.76616617117E+03  0.16061713846E+04  0.00000000000E+00 0.  1.
<mgrwt>
<rscale>  0 0.28350196E+04</rscale>
<asrwt>0</asrwt>
<pdfrwt beam="1">  1        2 0.39627469E+00 0.28350196E+04</pdfrwt>
<pdfrwt beam="2">  1       -2 0.12001322E+00 0.28350196E+04</pdfrwt>
<totfact> 0.14479567E+00</totfact>
</mgrwt>
</event>
<event>
 6    1  0.1588846E-005  0.1226511E+04  0.7818608E-02  0.9089962E-01
          2   -1    0    0  501    0  0.00000000000E+00  0.00000000000E+00  0.60534096205E+03  0.60534096205E+03  0.00000000000E+00 0. -1.
         -2   -1    0    0    0  501 -0.00000000000E+00 -0.00000000000E+00 -0.62127400346E+03  0.62127400346E+03  0.00000000000E+00 0.  1.
         23    2    1    2    0    0 -0.34209919780E+03  0.48277204775E+03  0.14019548351E+03  0.61466984744E+03  0.89797196686E+02 0.  0.
         11    1    3    3    0    0 -0.10632769955E+03  0.18462365404E+03  0.89928265002E+02  0.23125433222E+03  0.00000000000E+00 0. -1.
        -11    1    3    3    0    0 -0.23577149825E+03  0.29814839371E+03  0.50267218511E+02  0.38341551522E+03  0.00000000000E+00 0.  1.
         22    1    1    2    0    0  0.34209919780E+03 -0.48277204775E+03 -0.15612852492E+03  0.61194511806E+03  0.00000000000E+00 0.  1.
<mgrwt>
<rscale>  0 0.12265115E+04</rscale>
<asrwt>0</asrwt>
<pdfrwt beam="1">  1        2 0.93129378E-01 0.12265115E+04</pdfrwt>
<pdfrwt beam="2">  1       -2 0.95580616E-01 0.12265115E+04</pdfrwt>
<totfact> 0.44422236E+01</totfact>
</mgrwt>
</event>
<event>
 6    1  0.1588846E-005  0.2907655E+04  0.7818608E-02  0.8270604E-01
         -1   -1    0    0    0  501 -0.00000000000E+00  0.00000000000E+00  0.13855171673E+04  0.13855171673E+04  0.00000000000E+00 0.  1.
          1   -1    0    0  501    0  0.00000000000E+00 -0.00000000000E+00 -0.15255053889E+04  0.15255053889E+04  0.00000000000E+00 0. -1.
         23    2    1    2    0    0  0.38257921200E+03 -0.13552359810E+04  0.28589935575E+03  0.14398286036E+04  0.91304700272E+02 0.  0.
         11    1    3    3    0    0  0.24544110532E+03 -0.83482102861E+03  0.13226762679E+03  0.88014897096E+03  0.00000000000E+00 0. -1.
        -11    1    3    3    0    0  0.13713810668E+03 -0.52041495241E+03  0.15363172896E+03  0.55967963259E+03  0.00000000000E+00 0.  1.
         22    1    1    2    0    0 -0.38257921200E+03  0.13552359810E+04 -0.42588757730E+03  0.14711939526E+04  0.00000000000E+00 0.  1.
<mgrwt>
<rscale>  0 0.29076547E+04</rscale>
<asrwt>0</asrwt>
<pdfrwt beam="1">  1        1 0.23469314E+00 0.29076547E+04</pdfrwt>
<pdfrwt beam="2">  1       -1 0.21315649E+00 0.29076547E+04</pdfrwt>
<totfact> 0.65934304E-01</totfact>
</mgrwt>
</event>
<event>
 6    1  0.1588846E-005  0.3906047E+04  0.7818608E-02  0.8023773E-01
          2   -1    0    0  501    0  0.00000000000E+00  0.00000000000E+00  0.15212339310E+04  0.15212339310E+04  0.00000000000E+00 0. -1.
         -2   -1    0    0    0  501 -0.00000000000E+00 -0.00000000000E+00 -0.25073724191E+04  0.25073724191E+04  0.00000000000E+00 0.  1.
         23    2    1    2    0    0  0.29309668368E+03  0.19283984980E+04 -0.41676777088E+03  0.19966591444E+04  0.91246539990E+02 0.  0.
         11    1    3    3    0    0  0.75507990377E+02  0.58630143884E+03 -0.16707527654E+03  0.61430040032E+03  0.00000000000E+00 0. -1.
        -11    1    3    3    0    0  0.21758869330E+03  0.13420970592E+04 -0.24969249434E+03  0.13823587441E+04  0.00000000000E+00 0.  1.
         22    1    1    2    0    0 -0.29309668368E+03 -0.19283984980E+04 -0.56937071716E+03  0.20319472057E+04  0.00000000000E+00 0.  1.
<mgrwt>
<rscale>  0 0.39060466E+04</rscale>
<asrwt>0</asrwt>
<pdfrwt beam="1">  1        2 0.23403599E+00 0.39060466E+04</pdfrwt>
<pdfrwt beam="2">  1       -2 0.38574960E+00 0.39060466E+04</pdfrwt>
<totfact> 0.90160709E-02</totfact>
</mgrwt>
</event>
<event>
 6    1  0.1588846E-005  0.1995462E+04  0.7818608E-02  0.8608745E-01
         -1   -1    0    0    0  501 -0.00000000000E+00  0.00000000000E+00  0.45901246055E+03  0.45901246055E+03  0.00000000000E+00 0.  1.
          1   -1    0    0  501    0  0.00000000000E+00 -0.00000000000E+00 -0.21687157539E+04  0.21687157539E+04  0.00000000000E+00 0. -1.
         23    2    1    2    0    0  0.85752575888E+03 -0.49513592397E+03 -0.71966476996E+03  0.12274831330E+04  0.91035434340E+02 0.  0.
         13    1    3    3    0    0  0.66489879487E+03 -0.35900509462E+03 -0.58715931310E+03  0.95693841199E+03  0.00000000000E+00 0. -1.
        -13    1    3    3    0    0  0.19262696401E+03 -0.13613082935E+03 -0.13250545686E+03  0.27054472100E+03  0.00000000000E+00 0.  1.
         22    1    1    2    0    0 -0.85752575888E+03  0.49513592397E+03 -0.99003852338E+03  0.14002450815E+04  0.00000000000E+00 0. -1.
<mgrwt>
<rscale>  0 0.19954624E+04</rscale>
<asrwt>0</asrwt>
<pdfrwt beam="1">  1        1 0.33364858E+00 0.19954624E+04</pdfrwt>
<pdfrwt beam="2">  1       -1 0.70617302E-01 0.19954624E+04</pdfrwt>
<totfact> 0.43029234E+00</totfact>
</mgrwt>
</event>
<event>
 6    1  0.1588846E-005  0.1182294E+04  0.7818608E-02  0.9128497E-01
         -2   -1    0    0    0  501 -0.00000000000E+00  0.00000000000E+00  0.27520697324E+03  0.27520697324E+03  0.00000000000E+00 0.  1.
          2   -1    0    0  501    0  0.00000000000E+00 -0.00000000000E+00 -0.12697899700E+04  0.12697899700E+04  0.00000000000E+00 0. -1.
         23    2    1    2    0    0 -0.57156643977E+03 -0.13532054394E+03 -0.51446330528E+03  0.78637005021E+03  0.93303369236E+02 0.  0.
         13    1    3    3    0    0 -0.14819424160E+03 -0.40592274110E+02 -0.83577466694E+02  0.17491271795E+03  0.00000000000E+00 0. -1.
        -13    1    3    3    0    0 -0.42337219816E+03 -0.94728269828E+02 -0.43088583858E+03  0.61145733226E+03  0.00000000000E+00 0.  1.
         22    1    1    2    0    0  0.57156643977E+03  0.13532054394E+03 -0.48011969150E+03  0.75862689304E+03  0.00000000000E+00 0.  1.
<mgrwt>
<rscale>  0 0.11822945E+04</rscale>
<asrwt>0</asrwt>
<pdfrwt beam="1">  1        2 0.19535230E+00 0.11822945E+04</pdfrwt>
<pdfrwt beam="2">  1       -2 0.42339535E-01 0.11822945E+04</pdfrwt>
<totfact> 0.89889109E+01</totfact>
</mgrwt>
</event>
<event>
 6    1  0.1588846E-005  0.1890133E+04  0.7818608E-02  0.8659783E-01
         -3   -1    0    0    0  501 -0.00000000000E+00  0.00000000000E+00  0.72419214695E+03  0.72419214695E+03  0.00000000000E+00 0.  1.
          3   -1    0    0  501    0  0.00000000000E+00 -0.00000000000E+00 -0.12333062055E+04  0.12333062055E+04  0.00000000000E+00 0. -1.
         23    2    1    2    0    0  0.28191703341E+02 -0.71109369321E+03 -0.89598327502E+03  0.11474879801E+04  0.86565713090E+02 0.  0.
         11    1    3    3    0    0  0.27500427261E+02 -0.22654269193E+03 -0.23122071378E+03  0.32487056384E+03  0.00000000000E+00 0. -1.
        -11    1    3    3    0    0  0.69127608036E+00 -0.48455100128E+03 -0.66476256123E+03  0.82261741625E+03  0.00000000000E+00 0.  1.
         22    1    1    2    0    0 -0.28191703341E+02  0.71109369321E+03  0.38686921648E+03  0.81001037235E+03  0.00000000000E+00 0.  1.
<mgrwt>
<rscale>  0 0.18901330E+04</rscale>
<asrwt>0</asrwt>
<pdfrwt beam="1">  1        3 0.18973941E+00 0.18901330E+04</pdfrwt>
<pdfrwt beam="2">  1       -3 0.11141418E+00 0.18901330E+04</pdfrwt>
<totfact> 0.28397206E-01</totfact>
</mgrwt>
</event>
<event>
 6    1  0.1588846E-005  0.1825711E+04  0.7818608E-02  0.8692745E-01
          2   -1    0    0  501    0  0.00000000000E+00  0.00000000000E+00  0.36935279611E+04  0.36935279611E+04  0.00000000000E+00 0. -1.
         -2   -1    0    0    0  501 -0.00000000000E+00 -0.00000000000E+00 -0.22561228661E+03  0.22561228661E+03  0.00000000000E+00 0.  1.
         23    2    1    2    0    0 -0.87907399389E+02 -0.27992160781E+03  0.35887137345E+04  0.36018454500E+04  0.91326669789E+02 0.  0.
         11    1    3    3    0    0 -0.57849503354E+02 -0.55789446969E+02  0.83250607536E+03  0.83637634648E+03  0.00000000000E+00 0.  1.
        -11    1    3    3    0    0 -0.30057896036E+02 -0.22413216084E+03  0.27562076591E+04  0.27654691035E+04  0.00000000000E+00 0. -1.
         22    1    1    2    0    0  0.87907399389E+02  0.27992160781E+03 -0.12079805992E+03  0.31729479773E+03  0.00000000000E+00 0.  1.
<mgrwt>
<rscale>  0 0.18257111E+04</rscale>
<asrwt>0</asrwt>
<pdfrwt beam="1">  1        2 0.56823502E+00 0.18257111E+04</pdfrwt>
<pdfrwt beam="2">  1       -2 0.34709585E-01 0.18257111E+04</pdfrwt>
<totfact> 0.43714236E+00</totfact>
</mgrwt>
</event>
<event>
 6    1  0.1588846E-005  0.3531870E+03  0.7818608E-02  0.1061315E+00
          2   -1    0    0  501    0  0.00000000000E+00  0.00000000000E+00  0.14107870301E+03  0.14107870301E+03  0.00000000000E+00 0. -1.
         -2   -1    0    0    0  501 -0.00000000000E+00 -0.00000000000E+00 -0.22104873760E+03  0.22104873760E+03  0.00000000000E+00 0.  1.
         23    2    1    2    0    0  0.12420834309E+03  0.10885894929E+03 -0.38814021812E+02  0.19191639302E+03  0.89707247690E+02 0.  0.
         13    1    3    3    0    0  0.57398482664E+02  0.96211854659E+02  0.30350665144E+01  0.11207371868E+03  0.00000000000E+00 0. -1.
        -13    1    3    3    0    0  0.66809860430E+02  0.12647094626E+02 -0.41849088327E+02  0.79842674348E+02  0.00000000000E+00 0.  1.
         22    1    1    2    0    0 -0.12420834309E+03 -0.10885894929E+03 -0.41156012774E+02  0.17021104759E+03  0.00000000000E+00 0.  1.
<mgrwt>
<rscale>  0 0.35318703E+03</rscale>
<asrwt>0</asrwt>
<pdfrwt beam="1">  1        2 0.21704416E-01 0.35318703E+03</pdfrwt>
<pdfrwt beam="2">  1       -2 0.34007498E-01 0.35318703E+03</pdfrwt>
<totfact> 0.20587590E+03</totfact>
</mgrwt>
</event>
<event>
 6    1  0.1588846E-005  0.4377435E+04  0.7818608E-02  0.7932453E-01
          2   -1    0    0  501    0  0.00000000000E+00  0.00000000000E+00  0.16438151272E+04  0.16438151272E+04  0.00000000000E+00 0. -1.
         -2   -1    0    0    0  501 -0.00000000000E+00 -0.00000000000E+00 -0.29142479843E+04  0.29142479843E+04  0.00000000000E+00 0.  1.
         23    2    1    2    0    0  0.56861151267E+03 -0.10932849066E+03 -0.28323020488E+04  0.28923178899E+04  0.91082979887E+02 0.  0.
         13    1    3    3    0    0  0.59840152191E+02  0.15977493892E+02 -0.32549854384E+03  0.33133883891E+03  0.00000000000E+00 0. -1.
        -13    1    3    3    0    0  0.50877136048E+03 -0.12530598455E+03 -0.25068035049E+04  0.25609790509E+04  0.00000000000E+00 0.  1.
         22    1    1    2    0    0 -0.56861151267E+03  0.10932849066E+03  0.15618691918E+04  0.16657452216E+04  0.00000000000E+00 0. -1.
<mgrwt>
<rscale>  0 0.43774353E+04</rscale>
<asrwt>0</asrwt>
<pdfrwt beam="1">  1        2 0.25289464E+00 0.43774353E+04</pdfrwt>
<pdfrwt beam="2">  1       -2 0.44834584E+00 0.43774353E+04</pdfrwt>
<totfact> 0.28736327E-02</totfact>
</mgrwt>
</event>
<event>
 6    1  0.1588846E-005  0.1331673E+04  0.7818608E-02  0.9004818E-01
          1   -1    0    0  501    0  0.00000000000E+00  0.00000000000E+00  0.40973294848E+03  0.40973294848E+03  0.00000000000E+00 0. -1.
         -1   -1    0    0    0  501 -0.00000000000E+00 -0.00000000000E+00 -0.10820177737E+04  0.10820177737E+04  0.00000000000E+00 0.  1.
         23    2    1    2    0    0  0.53501052576E+03  0.24278175855E+03  0.57388108629E+01  0.59459115107E+03  0.91249427514E+02 0.  0.
         13    1    3    3    0    0  0.29597186043E+03  0.17845880521E+03 -0.16846259954E+02  0.34602121871E+03  0.00000000000E+00 0. -1.
        -13    1    3    3    0    0  0.23903866533E+03  0.64322953339E+02  0.22585070817E+02  0.24856993236E+03  0.00000000000E+00 0.  1.
         22    1    1    2    0    0 -0.53501052576E+03 -0.24278175855E+03 -0.67802363609E+03  0.89715957112E+03  0.00000000000E+00 0.  1.
<mgrwt>
<rscale>  0 0.13316731E+04</rscale>
<asrwt>0</asrwt>
<pdfrwt beam="1">  1        1 0.63035839E-01 0.13316731E+04</pdfrwt>
<pdfrwt beam="2">  1       -1 0.16646427E+00 0.13316731E+04</pdfrwt>
<totfact> 0.14881844E+01</totfact>
</mgrwt>
</event>
<event>
 6    1  0.1588846E-005  0.1524684E+04  0.7818608E-02  0.8868202E-01
         -3   -1    0    0    0  501 -0.00000000000E+00  0.00000000000E+00  0.12949020748E+04  0.12949020748E+04  0.00000000000E+00 0.  1.
          3   -1    0    0  501    0  0.00000000000E+00 -0.00000000000E+00 -0.44881032998E+03  0.44881032998E+03  0.00000000000E+00 0. -1.
         23    2    1    2    0    0  0.45316511321E+03 -0.58889894807E+02 -0.26959215619E+03  0.53806850772E+03  0.89505020980E+02 0.  0.
         11    1    3    3    0    0  0.15045859003E+03 -0.69531795514E+01 -0.43756675729E+02  0.15684636015E+03  0.00000000000E+00 0. -1.
        -11    1    3    3    0    0  0.30270652317E+03 -0.51936715256E+02 -0.22583548046E+03  0.38122214757E+03  0.00000000000E+00 0.  1.
         22    1    1    2    0    0 -0.45316511321E+03  0.58889894807E+02  0.11156839010E+04  0.12056438971E+04  0.00000000000E+00 0.  1.
<mgrwt>
<rscale>  0 0.15246841E+04</rscale>
<asrwt>0</asrwt>
<pdfrwt beam="1">  1        3 0.69047744E-01 0.15246841E+04</pdfrwt>
<pdfrwt beam="2">  1       -3 0.19921570E+00 0.15246841E+04</pdfrwt>
<totfact> 0.75241677E-01</totfact>
</mgrwt>
</event>
<event>
 6    1  0.1588846E-005  0.1668204E+04  0.7818608E-02  0.8779709E-01
         -2   -1    0    0    0  501 -0.00000000000E+00  0.00000000000E+00  0.34424592974E+03  0.34424592974E+03  0.00000000000E+00 0.  1.
          2   -1    0    0  501    0  0.00000000000E+00 -0.00000000000E+00 -0.20210160240E+04  0.20210160240E+04  0.00000000000E+00 0. -1.
         23    2    1    2    0    0 -0.36701276914E+03  0.74566824756E+03 -0.79895340523E+03  0.11564271231E+04  0.90981532398E+02 0.  0.
         13    1    3    3    0    0 -0.20047937983E+03  0.44132687422E+03 -0.40649241380E+03  0.63261162978E+03  0.00000000000E+00 0. -1.
        -13    1    3    3    0    0 -0.16653338931E+03  0.30434137334E+03 -0.39246099143E+03  0.52381549335E+03  0.00000000000E+00 0.  1.
         22    1    1    2    0    0  0.36701276914E+03 -0.74566824756E+03 -0.87781668901E+03  0.12088348306E+04  0.00000000000E+00 0.  1.
<mgrwt>
<rscale>  0 0.16682045E+04</rscale>
<asrwt>0</asrwt>
<pdfrwt beam="1">  1        2 0.31092554E+00 0.16682045E+04</pdfrwt>
<pdfrwt beam="2">  1       -2 0.52960913E-01 0.16682045E+04</pdfrwt>
<totfact> 0.20863226E+01</totfact>
</mgrwt>
</event>
<event>
 6    1  0.1588846E-005  0.1727465E+04  0.7818608E-02  0.8745853E-01
         -2   -1    0    0    0  501 -0.00000000000E+00  0.00000000000E+00  0.30158169849E+03  0.30158169849E+03  0.00000000000E+00 0.  1.
          2   -1    0    0  501    0  0.00000000000E+00 -0.00000000000E+00 -0.24737361283E+04  0.24737361283E+04  0.00000000000E+00 0. -1.
         23    2    1    2    0    0 -0.36914584151E+03 -0.71376100746E+03 -0.15878141337E+04  0.17817500084E+04  0.88067821385E+02 0.  0.
         11    1    3    3    0    0 -0.55481618066E+02 -0.11439598825E+03 -0.32841423105E+03  0.35216552816E+03  0.00000000000E+00 0.  1.
        -11    1    3    3    0    0 -0.31366422345E+03 -0.59936501921E+03 -0.12593999026E+04  0.14295844802E+04  0.00000000000E+00 0. -1.
         22    1    1    2    0    0  0.36914584151E+03  0.71376100746E+03 -0.58434029612E+03  0.99356781840E+03  0.00000000000E+00 0.  1.
<mgrwt>
<rscale>  0 0.17274647E+04</rscale>
<asrwt>0</asrwt>
<pdfrwt beam="1">  1        2 0.38057477E+00 0.17274647E+04</pdfrwt>
<pdfrwt beam="2">  1       -2 0.46397186E-01 0.17274647E+04</pdfrwt>
<totfact> 0.15097287E+01</totfact>
</mgrwt>
</event>
<event>
 6    1  0.1588846E-005  0.1430074E+04  0.7818608E-02  0.8932332E-01
         -1   -1    0    0    0  501 -0.00000000000E+00  0.00000000000E+00  0.60510204265E+03  0.60510204265E+03  0.00000000000E+00 0.  1.
          1   -1    0    0  501    0  0.00000000000E+00 -0.00000000000E+00 -0.84494545473E+03  0.84494545473E+03  0.00000000000E+00 0. -1.
         23    2    1    2    0    0  0.33623142463E+03  0.59682498431E+03 -0.31788291949E+03  0.76059713838E+03  0.90591520647E+02 0.  0.
         11    1    3    3    0    0  0.89847512147E+02  0.24707009928E+03 -0.11089110435E+03  0.28532971528E+03  0.00000000000E+00 0.  1.
        -11    1    3    3    0    0  0.24638391248E+03  0.34975488503E+03 -0.20699181514E+03  0.47526742310E+03  0.00000000000E+00 0. -1.
         22    1    1    2    0    0 -0.33623142463E+03 -0.59682498431E+03  0.78039507413E+02  0.68945035899E+03  0.00000000000E+00 0. -1.
<mgrwt>
<rscale>  0 0.14300744E+04</rscale>
<asrwt>0</asrwt>
<pdfrwt beam="1">  1        1 0.12999161E+00 0.14300744E+04</pdfrwt>
<pdfrwt beam="2">  1       -1 0.93092622E-01 0.14300744E+04</pdfrwt>
<totfact> 0.22055720E+01</totfact>
</mgrwt>
</event>
<event>
 6    1  0.1588846E-005  0.1646431E+04  0.7818608E-02  0.8792521E-01
         -2   -1    0    0    0  501 -0.00000000000E+00  0.00000000000E+00  0.45787874314E+03  0.45787874314E+03  0.00000000000E+00 0.  1.
          2   -1    0    0  501    0  0.00000000000E+00 -0.00000000000E+00 -0.14800500086E+04  0.14800500086E+04  0.00000000000E+00 0. -1.
         23    2    1    2    0    0  0.33543820840E+03 -0.23985726560E+03 -0.13477894593E+04  0.14124979687E+04  0.92540723298E+02 0.  0.
         11    1    3    3    0    0  0.64624467693E+02 -0.83855986886E+02 -0.26074875016E+03  0.28142149717E+03  0.00000000000E+00 0.  1.
        -11    1    3    3    0    0  0.27081374071E+03 -0.15600127872E+03 -0.10870407091E+04  0.11310764715E+04  0.00000000000E+00 0. -1.
         22    1    1    2    0    0 -0.33543820840E+03  0.23985726560E+03  0.32561819389E+03  0.52543078298E+03  0.00000000000E+00 0.  1.
<mgrwt>
<rscale>  0 0.16464306E+04</rscale>
<asrwt>0</asrwt>
<pdfrwt beam="1">  1        2 0.22770000E+00 0.16464306E+04</pdfrwt>
<pdfrwt beam="2">  1       -2 0.70442883E-01 0.16464306E+04</pdfrwt>
<totfact> 0.22822563E+01</totfact>
</mgrwt>
</event>
<event>
 6    1  0.1588846E-005  0.3360314E+04  0.7818608E-02  0.8147716E-01
          1   -1    0    0  501    0  0.00000000000E+00  0.00000000000E+00  0.19312123243E+04  0.19312123243E+04  0.00000000000E+00 0. -1.
         -1   -1    0    0    0  501 -0.00000000000E+00 -0.00000000000E+00 -0.14617385728E+04  0.14617385728E+04  0.00000000000E+00 0.  1.
         23    2    1    2    0    0 -0.12651908647E+04  0.74440879361E+03  0.10575834527E+04  0.18115826931E+04  0.92177646318E+02 0.  0.
         11    1    3    3    0    0 -0.70395093820E+03  0.43765185163E+03  0.64722640724E+03  0.10516596830E+04  0.00000000000E+00 0. -1.
        -11    1    3    3    0    0 -0.56123992650E+03  0.30675694198E+03  0.41035704544E+03  0.75992301011E+03  0.00000000000E+00 0.  1.
         22    1    1    2    0    0  0.12651908647E+04 -0.74440879361E+03 -0.58810970119E+03  0.15813682040E+04  0.00000000000E+00 0.  1.
<mgrwt>
<rscale>  0 0.33603140E+04</rscale>
<asrwt>0</asrwt>
<pdfrwt beam="1">  1        1 0.29710959E+00 0.33603140E+04</pdfrwt>
<pdfrwt beam="2">  1       -1 0.22488286E+00 0.33603140E+04</pdfrwt>
<totfact> 0.27962443E-01</totfact>
</mgrwt>
</event>
<event>
 6    1  0.1588846E-005  0.4946564E+04  0.7818608E-02  0.7836803E-01
          1   -1    0    0  501    0  0.00000000000E+00  0.00000000000E+00  0.35208653703E+04  0.35208653703E+04  0.00000000000E+00 0. -1.
         -1   -1    0    0    0  501 -0.00000000000E+00 -0.00000000000E+00 -0.17373921631E+04  0.17373921631E+04  0.00000000000E+00 0.  1.
         23    2    1    2    0    0 -0.18959730927E+04  0.49241076755E+03 -0.71185709513E+03  0.20858994751E+04  0.83986690125E+02 0.  0.
         13    1    3    3    0    0 -0.17453567288E+04  0.43697136177E+03 -0.67110059968E+03  0.19203098960E+04  0.00000000000E+00 0. -1.
        -13    1    3    3    0    0 -0.15061636393E+03  0.55439405783E+02 -0.40756495445E+02  0.16558957914E+03  0.00000000000E+00 0.  1.
         22    1    1    2    0    0  0.18959730927E+04 -0.49241076755E+03  0.24953303024E+04  0.31723580583E+04  0.00000000000E+00 0. -1.
<mgrwt>
<rscale>  0 0.49465640E+04</rscale>
<asrwt>0</asrwt>
<pdfrwt beam="1">  1        1 0.54167159E+00 0.49465640E+04</pdfrwt>
<pdfrwt beam="2">  1       -1 0.26729110E+00 0.49465640E+04</pdfrwt>
<totfact> 0.93731305E-03</totfact>
</mgrwt>
</event>
<event>
 6    1  0.1588846E-005  0.1409726E+04  0.7818608E-02  0.8946808E-01
         -2   -1    0    0    0  501 -0.00000000000E+00  0.00000000000E+00  0.36846004416E+03  0.36846004416E+03  0.00000000000E+00 0.  1.
          2   -1    0    0  501    0  0.00000000000E+00 -0.00000000000E+00 -0.13484011666E+04  0.13484011666E+04  0.00000000000E+00 0. -1.
         23    2    1    2    0    0  0.18413975951E+03  0.63946611945E+03 -0.76421048829E+03  0.10173155901E+04  0.89938703495E+02 0.  0.
         11    1    3    3    0    0  0.78049541014E+02  0.17425115672E+03 -0.17374768898E+03  0.25815393838E+03  0.00000000000E+00 0. -1.
        -11    1    3    3    0    0  0.10609021850E+03  0.46521496273E+03 -0.59046279931E+03  0.75916165167E+03  0.00000000000E+00 0.  1.
         22    1    1    2    0    0 -0.18413975951E+03 -0.63946611945E+03 -0.21573063418E+03  0.69954562073E+03  0.00000000000E+00 0.  1.
<mgrwt>
<rscale>  0 0.14097261E+04</rscale>
<asrwt>0</asrwt>
<pdfrwt beam="1">  1        2 0.20744633E+00 0.14097261E+04</pdfrwt>
<pdfrwt beam="2">  1       -2 0.56686162E-01 0.14097261E+04</pdfrwt>
<totfact> 0.43985814E+01</totfact>
</mgrwt>
</event>
<event>
 6    1  0.2115823E-005  0.3627376E+04  0.7818608E-02  0.8084250E-01
         -1   -1    0    0    0  501 -0.00000000000E+00  0.00000000000E+00  0.10756135127E+04  0.10756135127E+04  0.00000000000E+00 0.  1.
          1   -1    0    0  501    0  0.00000000000E+00 -0.00000000000E+00 -0.30582205898E+04  0.30582205898E+04  0.00000000000E+00 0. -1.
         23    2    1    2    0    0 -0.74167142054E+03 -0.17429493198E+03  0.88226945607E+03  0.11693825901E+04  0.92741735199E+02 0.  0.
         11    1    3    3    0    0 -0.36244116920E+03 -0.57223201188E+02  0.36685543121E+03  0.51886511089E+03  0.00000000000E+00 0. -1.
        -11    1    3    3    0    0 -0.37923025134E+03 -0.11707173079E+03  0.51541402486E+03  0.65051747917E+03  0.00000000000E+00 0.  1.
         22    1    1    2    0    0  0.74167142054E+03  0.17429493198E+03 -0.28648765331E+04  0.29644515124E+04  0.00000000000E+00 0. -1.
<mgrwt>
<rscale>  0 0.36273756E+04</rscale>
<asrwt>0</asrwt>
<pdfrwt beam="1">  1        1 0.47049548E+00 0.36273756E+04</pdfrwt>
<pdfrwt beam="2">  1       -1 0.16547900E+00 0.36273756E+04</pdfrwt>
<totfact> 0.11614713E-01</totfact>
</mgrwt>
</event>
<event>
 6    1  0.1588846E-005  0.1277337E+04  0.7818608E-02  0.9047733E-01
          1   -1    0    0  501    0  0.00000000000E+00  0.00000000000E+00  0.47549357090E+03  0.47549357090E+03  0.00000000000E+00 0. -1.
         -1   -1    0    0    0  501 -0.00000000000E+00 -0.00000000000E+00 -0.85784003265E+03  0.85784003265E+03  0.00000000000E+00 0.  1.
         23    2    1    2    0    0 -0.52549181934E+03 -0.18660979460E+03 -0.51042388264E+03  0.76117218107E+03  0.88801360570E+02 0.  0.
         13    1    3    3    0    0 -0.28881929447E+03 -0.14780390687E+03 -0.27937573376E+03  0.42815111860E+03  0.00000000000E+00 0. -1.
        -13    1    3    3    0    0 -0.23667252487E+03 -0.38805887729E+02 -0.23104814888E+03  0.33302106248E+03  0.00000000000E+00 0.  1.
         22    1    1    2    0    0  0.52549181934E+03  0.18660979460E+03  0.12807742089E+03  0.57216142248E+03  0.00000000000E+00 0. -1.
<mgrwt>
<rscale>  0 0.12773369E+04</rscale>
<asrwt>0</asrwt>
<pdfrwt beam="1">  1        1 0.73152858E-01 0.12773369E+04</pdfrwt>
<pdfrwt beam="2">  1       -1 0.13197539E+00 0.12773369E+04</pdfrwt>
<totfact> 0.22823090E+01</totfact>
</mgrwt>
</event>
<event>
 6    1  0.1588846E-005  0.1730860E+04  0.7818608E-02  0.8743957E-01
         -2   -1    0    0    0  501 -0.00000000000E+00  0.00000000000E+00  0.72549853862E+03  0.72549853862E+03  0.00000000000E+00 0.  1.
          2   -1    0    0  501    0  0.00000000000E+00 -0.00000000000E+00 -0.10323504655E+04  0.10323504655E+04  0.00000000000E+00 0. -1.
         23    2    1    2    0    0  0.84040497752E+03 -0.18339438805E+03 -0.22426144716E+03  0.89371058051E+03  0.92257125619E+02 0.  0.
         11    1    3    3    0    0  0.48639694269E+03 -0.13670632868E+03 -0.95885972740E+02  0.51426134011E+03  0.00000000000E+00 0. -1.
        -11    1    3    3    0    0  0.35400803483E+03 -0.46688059372E+02 -0.12837547442E+03  0.37944924041E+03  0.00000000000E+00 0.  1.
         22    1    1    2    0    0 -0.84040497752E+03  0.18339438805E+03 -0.82590479723E+02  0.86413842361E+03  0.00000000000E+00 0. -1.
<mgrwt>
<rscale>  0 0.17308596E+04</rscale>
<asrwt>0</asrwt>
<pdfrwt beam="1">  1        2 0.15882315E+00 0.17308596E+04</pdfrwt>
<pdfrwt beam="2">  1       -2 0.11161516E+00 0.17308596E+04</pdfrwt>
<totfact> 0.14460419E+01</totfact>
</mgrwt>
</event>
<event>
 6    1  0.1588846E-005  0.1446566E+04  0.7818608E-02  0.8920785E-01
          1   -1    0    0  501    0  0.00000000000E+00  0.00000000000E+00  0.20077013093E+04  0.20077013093E+04  0.00000000000E+00 0. -1.
         -1   -1    0    0    0  501 -0.00000000000E+00 -0.00000000000E+00 -0.26056575412E+03  0.26056575412E+03  0.00000000000E+00 0.  1.
         23    2    1    2    0    0  0.45598228032E+03 -0.15835051436E+03  0.17151834956E+04  0.17845154128E+04  0.98214609675E+02 0.  0.
         11    1    3    3    0    0  0.43533378544E+03 -0.13004094657E+03  0.15295210368E+04  0.15955753678E+04  0.00000000000E+00 0.  1.
        -11    1    3    3    0    0  0.20648494886E+02 -0.28309567788E+02  0.18566245881E+03  0.18894004494E+03  0.00000000000E+00 0. -1.
         22    1    1    2    0    0 -0.45598228032E+03  0.15835051436E+03  0.31952059579E+02  0.48375165062E+03  0.00000000000E+00 0.  1.
<mgrwt>
<rscale>  0 0.14465659E+04</rscale>
<asrwt>0</asrwt>
<pdfrwt beam="1">  1        1 0.30887711E+00 0.14465659E+04</pdfrwt>
<pdfrwt beam="2">  1       -1 0.40087041E-01 0.14465659E+04</pdfrwt>
<totfact> 0.17367187E+01</totfact>
</mgrwt>
</event>
<event>
 6    1  0.1588846E-005  0.2166186E+04  0.7818608E-02  0.8532636E-01
         -2   -1    0    0    0  501 -0.00000000000E+00  0.00000000000E+00  0.10264870533E+04  0.10264870533E+04  0.00000000000E+00 0.  1.
          2   -1    0    0  501    0  0.00000000000E+00 -0.00000000000E+00 -0.11428202038E+04  0.11428202038E+04  0.00000000000E+00 0. -1.
         23    2    1    2    0    0  0.33706299200E+03 -0.10219405474E+04  0.47366844705E+02  0.10808351024E+04  0.89369779458E+02 0.  0.
         11    1    3    3    0    0  0.12641682116E+03 -0.52445701498E+03  0.17230281473E+02  0.53975295816E+03  0.00000000000E+00 0. -1.
        -11    1    3    3    0    0  0.21064617084E+03 -0.49748353245E+03  0.30136563232E+02  0.54108214422E+03  0.00000000000E+00 0.  1.
         22    1    1    2    0    0 -0.33706299200E+03  0.10219405474E+04 -0.16369999518E+03  0.10884721547E+04  0.00000000000E+00 0. -1.
<mgrwt>
<rscale>  0 0.21661857E+04</rscale>
<asrwt>0</asrwt>
<pdfrwt beam="1">  1        2 0.17581849E+00 0.21661857E+04</pdfrwt>
<pdfrwt beam="2">  1       -2 0.15792109E+00 0.21661857E+04</pdfrwt>
<totfact> 0.49062596E+00</totfact>
</mgrwt>
</event>
<event>
 6    1  0.1588846E-005  0.4908663E+04  0.7818608E-02  0.7842753E-01
         -2   -1    0    0    0  501 -0.00000000000E+00  0.00000000000E+00  0.36163979839E+04  0.36163979839E+04  0.00000000000E+00 0.  1.
          2   -1    0    0  501    0  0.00000000000E+00 -0.00000000000E+00 -0.16656748297E+04  0.16656748297E+04  0.00000000000E+00 0. -1.
         23    2    1    2    0    0 -0.53891375053E+03  0.22614276493E+04  0.13173682455E+03  0.23302607751E+04  0.90981565375E+02 0.  0.
         11    1    3    3    0    0 -0.15401915286E+03  0.82329899357E+03  0.62413276852E+02  0.83990389295E+03  0.00000000000E+00 0. -1.
        -11    1    3    3    0    0 -0.38489459767E+03  0.14381286557E+04  0.69323547698E+02  0.14903568821E+04  0.00000000000E+00 0.  1.
         22    1    1    2    0    0  0.53891375053E+03 -0.22614276493E+04  0.18189863296E+04  0.29518120386E+04  0.00000000000E+00 0.  1.
<mgrwt>
<rscale>  0 0.49086630E+04</rscale>
<asrwt>0</asrwt>
<pdfrwt beam="1">  1        2 0.25625767E+00 0.49086630E+04</pdfrwt>
<pdfrwt beam="2">  1       -2 0.55636892E+00 0.49086630E+04</pdfrwt>
<totfact> 0.60129440E-03</totfact>
</mgrwt>
</event>
<event>
 6    1  0.1588846E-005  0.1589842E+04  0.7818608E-02  0.8826813E-01
         -2   -1    0    0    0  501 -0.00000000000E+00  0.00000000000E+00  0.70182482870E+03  0.70182482870E+03  0.00000000000E+00 0. -1.
          2   -1    0    0  501    0  0.00000000000E+00 -0.00000000000E+00 -0.90036608233E+03  0.90036608233E+03  0.00000000000E+00 0.  1.
         23    2    1    2    0    0 -0.58047610792E+03  0.30632907657E+02 -0.64243927239E+03  0.87079748888E+03  0.87573746341E+02 0.  0.
         11    1    3    3    0    0 -0.40558024807E+03  0.58508878377E+01 -0.39004233809E+03  0.56272781699E+03  0.00000000000E+00 0.  1.
        -11    1    3    3    0    0 -0.17489585985E+03  0.24782019819E+02 -0.25239693430E+03  0.30806967189E+03  0.00000000000E+00 0. -1.
         22    1    1    2    0    0  0.58047610792E+03 -0.30632907657E+02  0.44389801876E+03  0.73139342214E+03  0.00000000000E+00 0. -1.
<mgrwt>
<rscale>  0 0.15898418E+04</rscale>
<asrwt>0</asrwt>
<pdfrwt beam="1">  1        2 0.13851786E+00 0.15898418E+04</pdfrwt>
<pdfrwt beam="2">  1       -2 0.10797305E+00 0.15898418E+04</pdfrwt>
<totfact> 0.19330524E+01</totfact>
</mgrwt>
</event>
<event>
 6    1  0.1588846E-005  0.2737181E+04  0.7818608E-02  0.8323041E-01
          2   -1    0    0  501    0  0.00000000000E+00  0.00000000000E+00  0.92902931151E+03  0.92902931151E+03  0.00000000000E+00 0. -1.
         -2   -1    0    0    0  501 -0.00000000000E+00 -0.00000000000E+00 -0.20161252704E+04  0.20161252704E+04  0.00000000000E+00 0.  1.
         23    2    1    2    0    0 -0.49354557519E+03  0.12514539350E+04 -0.80602723527E+03  0.15708460963E+04  0.90296003339E+02 0.  0.
         13    1    3    3    0    0 -0.41885603618E+03  0.97109113425E+03 -0.65114754328E+03  0.12419547066E+04  0.00000000000E+00 0.  1.
        -13    1    3    3    0    0 -0.74689539010E+02  0.28036280071E+03 -0.15487969199E+03  0.32889138975E+03  0.00000000000E+00 0. -1.
         22    1    1    2    0    0  0.49354557519E+03 -0.12514539350E+04 -0.28106872360E+03  0.13743084856E+04  0.00000000000E+00 0.  1.
<mgrwt>
<rscale>  0 0.27371806E+04</rscale>
<asrwt>0</asrwt>
<pdfrwt beam="1">  1        2 0.14292759E+00 0.27371806E+04</pdfrwt>
<pdfrwt beam="2">  1       -2 0.31017312E+00 0.27371806E+04</pdfrwt>
<totfact> 0.67496845E-01</totfact>
</mgrwt>
</event>
<event>
 6    1  0.1588846E-005  0.2412097E+04  0.7818608E-02  0.8434989E-01
         -1   -1    0    0    0  501 -0.00000000000E+00  0.00000000000E+00  0.83621011982E+03  0.83621011982E+03  0.00000000000E+00 0. -1.
          1   -1    0    0  501    0  0.00000000000E+00 -0.00000000000E+00 -0.17394581437E+04  0.17394581437E+04  0.00000000000E+00 0.  1.
         23    2    1    2    0    0  0.10350210500E+04  0.61013268624E+03 -0.54095216270E+03  0.13207623867E+04  0.90849165770E+02 0.  0.
         11    1    3    3    0    0  0.74340125190E+03  0.41557656366E+03 -0.42262274048E+03  0.95076773313E+03  0.00000000000E+00 0.  1.
        -11    1    3    3    0    0  0.29161979810E+03  0.19455612258E+03 -0.11832942222E+03  0.36999465353E+03  0.00000000000E+00 0. -1.
         22    1    1    2    0    0 -0.10350210500E+04 -0.61013268624E+03 -0.36229586121E+03  0.12549058769E+04  0.00000000000E+00 0. -1.
<mgrwt>
<rscale>  0 0.24120966E+04</rscale>
<asrwt>0</asrwt>
<pdfrwt beam="1">  1        1 0.26760894E+00 0.24120966E+04</pdfrwt>
<pdfrwt beam="2">  1       -1 0.12864771E+00 0.24120966E+04</pdfrwt>
<totfact> 0.20879373E+00</totfact>
</mgrwt>
</event>
<event>
 6    1  0.1588846E-005  0.4377170E+04  0.7818608E-02  0.7932501E-01
         -2   -1    0    0    0  501 -0.00000000000E+00  0.00000000000E+00  0.21894729151E+04  0.21894729151E+04  0.00000000000E+00 0.  1.
          2   -1    0    0  501    0  0.00000000000E+00 -0.00000000000E+00 -0.21876977413E+04  0.21876977413E+04  0.00000000000E+00 0. -1.
         23    2    1    2    0    0 -0.12152516147E+04 -0.16762920840E+04 -0.70577986831E+03  0.21891519692E+04  0.86426176675E+02 0.  0.
         13    1    3    3    0    0 -0.34157259528E+03 -0.46258253384E+03 -0.23683390271E+03  0.62188804132E+03  0.00000000000E+00 0. -1.
        -13    1    3    3    0    0 -0.87367901939E+03 -0.12137095502E+04 -0.46894596560E+03  0.15672639279E+04  0.00000000000E+00 0.  1.
         22    1    1    2    0    0  0.12152516147E+04  0.16762920840E+04  0.70755504203E+03  0.21880186872E+04  0.00000000000E+00 0. -1.
<mgrwt>
<rscale>  0 0.43771703E+04</rscale>
<asrwt>0</asrwt>
<pdfrwt beam="1">  1        2 0.33656888E+00 0.43771703E+04</pdfrwt>
<pdfrwt beam="2">  1       -2 0.33684199E+00 0.43771703E+04</pdfrwt>
<totfact> 0.75551808E-02</totfact>
</mgrwt>
</event>
<event>
 6    1  0.1588846E-005  0.3031091E+04  0.7818608E-02  0.8234908E-01
          2   -1    0    0  501    0  0.00000000000E+00  0.00000000000E+00  0.16920735049E+04  0.16920735049E+04  0.00000000000E+00 0. -1.
         -2   -1    0    0    0  501 -0.00000000000E+00 -0.00000000000E+00 -0.13574340760E+04  0.13574340760E+04  0.00000000000E+00 0.  1.
         23    2    1    2    0    0  0.57169892336E+03 -0.85706252338E+03  0.12838686084E+04  0.16486393275E+04  0.91088971102E+02 0.  0.
         11    1    3    3    0    0  0.35658476834E+03 -0.45478445985E+03  0.73216582688E+03  0.93276385006E+03  0.00000000000E+00 0.  1.
        -11    1    3    3    0    0  0.21511415502E+03 -0.40227806353E+03  0.55170278153E+03  0.71587547747E+03  0.00000000000E+00 0. -1.
         22    1    1    2    0    0 -0.57169892336E+03  0.85706252338E+03 -0.94922917958E+03  0.14008682534E+04  0.00000000000E+00 0.  1.
<mgrwt>
<rscale>  0 0.30310910E+04</rscale>
<asrwt>0</asrwt>
<pdfrwt beam="1">  1        2 0.26031900E+00 0.30310910E+04</pdfrwt>
<pdfrwt beam="2">  1       -2 0.20883601E+00 0.30310910E+04</pdfrwt>
<totfact> 0.98560838E-01</totfact>
</mgrwt>
</event>
<event>
 6    1  0.1588846E-005  0.2041233E+04  0.7818608E-02  0.8587582E-01
          2   -1    0    0  501    0  0.00000000000E+00  0.00000000000E+00  0.12341110282E+04  0.12341110282E+04  0.00000000000E+00 0.  1.
         -2   -1    0    0    0  501 -0.00000000000E+00 -0.00000000000E+00 -0.84405549781E+03  0.84405549781E+03  0.00000000000E+00 0. -1.
         23    2    1    2    0    0  0.40916974794E+03  0.33832953036E+03 -0.68936691489E+03  0.87523694822E+03  0.94478666565E+02 0.  0.
         11    1    3    3    0    0  0.34600735795E+03  0.28991844278E+03 -0.52337989239E+03  0.69115866990E+03  0.00000000000E+00 0. -1.
        -11    1    3    3    0    0  0.63162389988E+02  0.48411087582E+02 -0.16598702250E+03  0.18407827831E+03  0.00000000000E+00 0.  1.
         22    1    1    2    0    0 -0.40916974794E+03 -0.33832953036E+03  0.10794224453E+04  0.12029295778E+04  0.00000000000E+00 0.  1.
<mgrwt>
<rscale>  0 0.20412332E+04</rscale>
<asrwt>0</asrwt>
<pdfrwt beam="1">  1        2 0.18986324E+00 0.20412332E+04</pdfrwt>
<pdfrwt beam="2">  1       -2 0.12985469E+00 0.20412332E+04</pdfrwt>
<totfact> 0.72905152E+00</totfact>
</mgrwt>
</event>
<event>
 6    1  0.1588846E-005  0.2042624E+04  0.7818608E-02  0.8586948E-01
          2   -1    0    0  501    0  0.00000000000E+00  0.00000000000E+00  0.18951377585E+04  0.18951377585E+04  0.00000000000E+00 0. -1.
         -2   -1    0    0    0  501 -0.00000000000E+00 -0.00000000000E+00 -0.55039697944E+03  0.55039697944E+03  0.00000000000E+00 0.  1.
         23    2    1    2    0    0 -0.85649591891E+03  0.49302338232E+03  0.97237832291E+03  0.13894518277E+04  0.91648589136E+02 0.  0.
         11    1    3    3    0    0 -0.38690649532E+03  0.17727162782E+03  0.44904665593E+03  0.61867985692E+03  0.00000000000E+00 0. -1.
        -11    1    3    3    0    0 -0.46958942359E+03  0.31575175450E+03  0.52333166697E+03  0.77077197074E+03  0.00000000000E+00 0.  1.
         22    1    1    2    0    0  0.85649591891E+03 -0.49302338232E+03  0.37236245613E+03  0.10560829103E+04  0.00000000000E+00 0.  1.
<mgrwt>
<rscale>  0 0.20426239E+04</rscale>
<asrwt>0</asrwt>
<pdfrwt beam="1">  1        2 0.29155965E+00 0.20426239E+04</pdfrwt>
<pdfrwt beam="2">  1       -2 0.84676459E-01 0.20426239E+04</pdfrwt>
<totfact> 0.85976459E+00</totfact>
</mgrwt>
</event>
<event>
 6    1  0.1588846E-005  0.8794835E+03  0.7818608E-02  0.9451598E-01
         -2   -1    0    0    0  501 -0.00000000000E+00  0.00000000000E+00  0.95985645858E+02  0.95985645858E+02  0.00000000000E+00 0. -1.
          2   -1    0    0  501    0  0.00000000000E+00 -0.00000000000E+00 -0.20146011251E+04  0.20146011251E+04  0.00000000000E+00 0.  1.
         23    2    1    2    0    0  0.35155031675E+03 -0.65949316969E+02 -0.36997079616E+03  0.52117263611E+03  0.82495993861E+02 0.  0.
         11    1    3    3    0    0  0.20229868616E+03 -0.45067112822E+02 -0.15577229159E+03  0.25926976281E+03  0.00000000000E+00 0. -1.
        -11    1    3    3    0    0  0.14925163059E+03 -0.20882204147E+02 -0.21419850456E+03  0.26190287330E+03  0.00000000000E+00 0.  1.
         22    1    1    2    0    0 -0.35155031675E+03  0.65949316969E+02 -0.15486446831E+04  0.15894141348E+04  0.00000000000E+00 0.  1.
<mgrwt>
<rscale>  0 0.87948346E+03</rscale>
<asrwt>0</asrwt>
<pdfrwt beam="1">  1        2 0.30993862E+00 0.87948346E+03</pdfrwt>
<pdfrwt beam="2">  1       -2 0.14767023E-01 0.87948346E+03</pdfrwt>
<totfact> 0.23912910E+02</totfact>
</mgrwt>
</event>
<event>
 6    1  0.1588846E-005  0.2781270E+04  0.7818608E-02  0.8309107E-01
          2   -1    0    0  501    0  0.00000000000E+00  0.00000000000E+00  0.22354628638E+04  0.22354628638E+04  0.00000000000E+00 0. -1.
         -2   -1    0    0    0  501 -0.00000000000E+00 -0.00000000000E+00 -0.86508487632E+03  0.86508487632E+03  0.00000000000E+00 0.  1.
         23    2    1    2    0    0  0.38168968115E+03 -0.34234098841E+03  0.21252527507E+04  0.21880126596E+04  0.88406895207E+02 0.  0.
         11    1    3    3    0    0  0.18114765041E+03 -0.21597086950E+03  0.12329873227E+04  0.12647986502E+04  0.00000000000E+00 0. -1.
        -11    1    3    3    0    0  0.20054203073E+03 -0.12637011891E+03  0.89226542808E+03  0.92321400942E+03  0.00000000000E+00 0.  1.
         22    1    1    2    0    0 -0.38168968115E+03  0.34234098841E+03 -0.75487476323E+03  0.91253508053E+03  0.00000000000E+00 0.  1.
<mgrwt>
<rscale>  0 0.27812696E+04</rscale>
<asrwt>0</asrwt>
<pdfrwt beam="1">  1        2 0.34391736E+00 0.27812696E+04</pdfrwt>
<pdfrwt beam="2">  1       -2 0.13308998E+00 0.27812696E+04</pdfrwt>
<totfact> 0.17582112E+00</totfact>
</mgrwt>
</event>
<event>
 6    1  0.1588846E-005  0.5550134E+04  0.7818608E-02  0.7748828E-01
          2   -1    0    0  501    0  0.00000000000E+00  0.00000000000E+00  0.32796346615E+04  0.32796346615E+04  0.00000000000E+00 0. -1.
         -2   -1    0    0    0  501 -0.00000000000E+00 -0.00000000000E+00 -0.23481261604E+04  0.23481261604E+04  0.00000000000E+00 0.  1.
         23    2    1    2    0    0 -0.18351920235E+04  0.20804188496E+04  0.44460752859E+03  0.28111769140E+04  0.94696539364E+02 0.  0.
         11    1    3    3    0    0 -0.11702885101E+04  0.12689674704E+04  0.30237204914E+03  0.17525074876E+04  0.00000000000E+00 0. -1.
        -11    1    3    3    0    0 -0.66490351332E+03  0.81145137920E+03  0.14223547945E+03  0.10586694264E+04  0.00000000000E+00 0.  1.
         22    1    1    2    0    0  0.18351920235E+04 -0.20804188496E+04  0.48690097256E+03  0.28165839078E+04  0.00000000000E+00 0. -1.
<mgrwt>
<rscale>  0 0.55501337E+04</rscale>
<asrwt>0</asrwt>
<pdfrwt beam="1">  1        2 0.50455918E+00 0.55501337E+04</pdfrwt>
<pdfrwt beam="2">  1       -2 0.36125018E+00 0.55501337E+04</pdfrwt>
<totfact> 0.10566398E-02</totfact>
</mgrwt>
</event>
<event>
 6    1  0.1588846E-005  0.4138192E+04  0.7818608E-02  0.7977235E-01
         -2   -1    0    0    0  501 -0.00000000000E+00  0.00000000000E+00  0.26737187400E+04  0.26737187400E+04  0.00000000000E+00 0.  1.
          2   -1    0    0  501    0  0.00000000000E+00 -0.00000000000E+00 -0.16011999802E+04  0.16011999802E+04  0.00000000000E+00 0. -1.
         23    2    1    2    0    0 -0.30423322056E+03  0.71473149560E+03  0.25164133061E+04  0.26353363270E+04  0.96242745017E+02 0.  0.
         13    1    3    3    0    0 -0.17728641576E+03  0.48759047305E+03  0.15512085521E+04  0.16356720070E+04  0.00000000000E+00 0. -1.
        -13    1    3    3    0    0 -0.12694680480E+03  0.22714102255E+03  0.96520475407E+03  0.99966431998E+03  0.00000000000E+00 0.  1.
         22    1    1    2    0    0  0.30423322056E+03 -0.71473149560E+03 -0.14438945463E+04  0.16395823932E+04  0.00000000000E+00 0. -1.
<mgrwt>
<rscale>  0 0.41381921E+04</rscale>
<asrwt>0</asrwt>
<pdfrwt beam="1">  1        2 0.24633846E+00 0.41381921E+04</pdfrwt>
<pdfrwt beam="2">  1       -2 0.41134134E+00 0.41381921E+04</pdfrwt>
<totfact> 0.54306966E-02</totfact>
</mgrwt>
</event>
<event>
 6    1  0.1588846E-005  0.5802667E+03  0.7818608E-02  0.9947214E-01
          1   -1    0    0  501    0  0.00000000000E+00  0.00000000000E+00  0.10263485719E+04  0.10263485719E+04  0.00000000000E+00 0. -1.
         -1   -1    0    0    0  501 -0.00000000000E+00 -0.00000000000E+00 -0.82016336188E+02  0.82016336188E+02  0.00000000000E+00 0.  1.
         23    2    1    2    0    0 -0.10815295323E+03  0.14586929230E+03  0.89652350278E+03  0.92058688307E+03  0.10368657828E+03 0.  0.
         11    1    3    3    0    0 -0.93264669867E+02  0.76944949537E+02  0.36735480644E+03  0.38674071123E+03  0.00000000000E+00 0. -1.
        -11    1    3    3    0    0 -0.14888283358E+02  0.68924342765E+02  0.52916869633E+03  0.53384617184E+03  0.00000000000E+00 0.  1.
         22    1    1    2    0    0  0.10815295323E+03 -0.14586929230E+03  0.47808732906E+02  0.18777802499E+03  0.00000000000E+00 0.  1.
<mgrwt>
<rscale>  0 0.58026666E+03</rscale>
<asrwt>0</asrwt>
<pdfrwt beam="1">  1        1 0.15789977E+00 0.58026666E+03</pdfrwt>
<pdfrwt beam="2">  1       -1 0.12617899E-01 0.58026666E+03</pdfrwt>
<totfact> 0.63786316E+02</totfact>
</mgrwt>
</event>
<event>
 6    1  0.1588846E-005  0.3860990E+04  0.7818608E-02  0.8033192E-01
         -2   -1    0    0    0  501 -0.00000000000E+00  0.00000000000E+00  0.85074169882E+03  0.85074169882E+03  0.00000000000E+00 0.  1.
          2   -1    0    0  501    0  0.00000000000E+00 -0.00000000000E+00 -0.43806611480E+04  0.43806611480E+04  0.00000000000E+00 0. -1.
         23    2    1    2    0    0  0.12719257532E+04 -0.84696271893E+03 -0.33619559661E+04  0.36940828734E+04  0.91429689481E+02 0.  0.
         11    1    3    3    0    0  0.84332654673E+03 -0.61043591931E+03 -0.23173058400E+04  0.25404208376E+04  0.00000000000E+00 0. -1.
        -11    1    3    3    0    0  0.42859920651E+03 -0.23652679961E+03 -0.10446501262E+04  0.11536620358E+04  0.00000000000E+00 0.  1.
         22    1    1    2    0    0 -0.12719257532E+04  0.84696271893E+03 -0.16796348301E+03  0.15373199734E+04  0.00000000000E+00 0.  1.
<mgrwt>
<rscale>  0 0.38609901E+04</rscale>
<asrwt>0</asrwt>
<pdfrwt beam="1">  1        2 0.67394788E+00 0.38609901E+04</pdfrwt>
<pdfrwt beam="2">  1       -2 0.13088334E+00 0.38609901E+04</pdfrwt>
<totfact> 0.54183553E-02</totfact>
</mgrwt>
</event>
<event>
 6    1  0.1588846E-005  0.1299600E+04  0.7818608E-02  0.9029882E-01
          1   -1    0    0  501    0  0.00000000000E+00  0.00000000000E+00  0.10415757942E+04  0.10415757942E+04  0.00000000000E+00 0. -1.
         -1   -1    0    0    0  501 -0.00000000000E+00 -0.00000000000E+00 -0.40538591191E+03  0.40538591191E+03  0.00000000000E+00 0.  1.
         23    2    1    2    0    0 -0.11543755119E+03  0.59124076421E+03  0.57952817066E+02  0.61194699182E+03  0.90714509855E+02 0.  0.
         13    1    3    3    0    0 -0.11571408961E+03  0.59120399408E+03  0.50549918430E+02  0.60453883862E+03  0.00000000000E+00 0.  1.
        -13    1    3    3    0    0  0.27653842559E+00  0.36770133342E-01  0.74028986361E+01  0.74081531950E+01  0.00000000000E+00 0. -1.
         22    1    1    2    0    0  0.11543755119E+03 -0.59124076421E+03  0.57823706524E+03  0.83501471431E+03  0.00000000000E+00 0.  1.
<mgrwt>
<rscale>  0 0.12996002E+04</rscale>
<asrwt>0</asrwt>
<pdfrwt beam="1">  1        1 0.16024243E+00 0.12996002E+04</pdfrwt>
<pdfrwt beam="2">  1       -1 0.62367064E-01 0.12996002E+04</pdfrwt>
<totfact> 0.35992630E+01</totfact>
</mgrwt>
</event>
<event>
 6    1  0.1588846E-005  0.3103109E+04  0.7818608E-02  0.8214885E-01
          1   -1    0    0  501    0  0.00000000000E+00  0.00000000000E+00  0.35226408583E+04  0.35226408583E+04  0.00000000000E+00 0. -1.
         -1   -1    0    0    0  501 -0.00000000000E+00 -0.00000000000E+00 -0.68338561710E+03  0.68338561710E+03  0.00000000000E+00 0.  1.
         23    2    1    2    0    0 -0.54452296902E+03 -0.14160343800E+04  0.98912250622E+03  0.18134024418E+04  0.91686720446E+02 0.  0.
         13    1    3    3    0    0 -0.30574625715E+03 -0.67566275089E+03  0.50209652158E+03  0.89560138660E+03  0.00000000000E+00 0. -1.
        -13    1    3    3    0    0 -0.23877671187E+03 -0.74037162907E+03  0.48702598464E+03  0.91780105523E+03  0.00000000000E+00 0.  1.
         22    1    1    2    0    0  0.54452296902E+03  0.14160343800E+04  0.18501327350E+04  0.23926240336E+04  0.00000000000E+00 0. -1.
<mgrwt>
<rscale>  0 0.31031095E+04</rscale>
<asrwt>0</asrwt>
<pdfrwt beam="1">  1        1 0.54194474E+00 0.31031095E+04</pdfrwt>
<pdfrwt beam="2">  1       -1 0.10513625E+00 0.31031095E+04</pdfrwt>
<totfact> 0.17151852E-01</totfact>
</mgrwt>
</event>
<event>
 6    1  0.1588846E-005  0.1254096E+04  0.7818608E-02  0.9066781E-01
         -2   -1    0    0    0  501 -0.00000000000E+00  0.00000000000E+00  0.29089028781E+03  0.29089028781E+03  0.00000000000E+00 0.  1.
          2   -1    0    0  501    0  0.00000000000E+00 -0.00000000000E+00 -0.13516759907E+04  0.13516759907E+04  0.00000000000E+00 0. -1.
         23    2    1    2    0    0 -0.61535910077E+03 -0.10031597515E+03 -0.51435047781E+03  0.81351768344E+03  0.92328161913E+02 0.  0.
         13    1    3    3    0    0 -0.24827152593E+03 -0.86569992794E+02 -0.21612950423E+03  0.34036021630E+03  0.00000000000E+00 0. -1.
        -13    1    3    3    0    0 -0.36708757484E+03 -0.13745982356E+02 -0.29822097358E+03  0.47315746715E+03  0.00000000000E+00 0.  1.
         22    1    1    2    0    0  0.61535910077E+03  0.10031597515E+03 -0.54643522506E+03  0.82904859505E+03  0.00000000000E+00 0. -1.
<mgrwt>
<rscale>  0 0.12540964E+04</rscale>
<asrwt>0</asrwt>
<pdfrwt beam="1">  1        2 0.20795015E+00 0.12540964E+04</pdfrwt>
<pdfrwt beam="2">  1       -2 0.44752352E-01 0.12540964E+04</pdfrwt>
<totfact> 0.71795612E+01</totfact>
</mgrwt>
</event>
<event>
 6    1  0.1588846E-005  0.5423189E+04  0.7818608E-02  0.7766348E-01
         -2   -1    0    0    0  501 -0.00000000000E+00  0.00000000000E+00  0.49507087028E+04  0.49507087028E+04  0.00000000000E+00 0.  1.
          2   -1    0    0  501    0  0.00000000000E+00 -0.00000000000E+00 -0.14851901150E+04  0.14851901150E+04  0.00000000000E+00 0. -1.
         23    2    1    2    0    0  0.22354313818E+04  0.97806656672E+03  0.31336757889E+04  0.39734026625E+04  0.11931930801E+03 0.  0.
         11    1    3    3    0    0  0.16876669280E+04  0.77643916310E+03  0.24437670477E+04  0.30697027246E+04  0.00000000000E+00 0. -1.
        -11    1    3    3    0    0  0.54776445375E+03  0.20162740362E+03  0.68990874121E+03  0.90369993797E+03  0.00000000000E+00 0.  1.
         22    1    1    2    0    0 -0.22354313818E+04 -0.97806656672E+03  0.33184279894E+03  0.24624961553E+04  0.00000000000E+00 0. -1.
<mgrwt>
<rscale>  0 0.54231886E+04</rscale>
<asrwt>0</asrwt>
<pdfrwt beam="1">  1        2 0.22849079E+00 0.54231886E+04</pdfrwt>
<pdfrwt beam="2">  1       -2 0.76164749E+00 0.54231886E+04</pdfrwt>
<totfact> 0.11611132E-03</totfact>
</mgrwt>
</event>
<event>
 6    1  0.1588846E-005  0.2215291E+04  0.7818608E-02  0.8512091E-01
         -1   -1    0    0    0  501 -0.00000000000E+00  0.00000000000E+00  0.12095284025E+04  0.12095284025E+04  0.00000000000E+00 0.  1.
          1   -1    0    0  501    0  0.00000000000E+00 -0.00000000000E+00 -0.10143443372E+04  0.10143443372E+04  0.00000000000E+00 0. -1.
         23    2    1    2    0    0 -0.65735060740E+03  0.71857487498E+03 -0.42781825685E+03  0.10677622064E+04  0.92887009127E+02 0.  0.
         13    1    3    3    0    0 -0.29613960841E+03  0.39168111079E+03 -0.22268541370E+03  0.53916746350E+03  0.00000000000E+00 0. -1.
        -13    1    3    3    0    0 -0.36121099899E+03  0.32689376418E+03 -0.20513284316E+03  0.52859474287E+03  0.00000000000E+00 0.  1.
         22    1    1    2    0    0  0.65735060740E+03 -0.71857487498E+03  0.62300232216E+03  0.11561105334E+04  0.00000000000E+00 0.  1.
<mgrwt>
<rscale>  0 0.22152908E+04</rscale>
<asrwt>0</asrwt>
<pdfrwt beam="1">  1        1 0.15605298E+00 0.22152908E+04</pdfrwt>
<pdfrwt beam="2">  1       -1 0.18608129E+00 0.22152908E+04</pdfrwt>
<totfact> 0.25283771E+00</totfact>
</mgrwt>
</event>
<event>
 6    1  0.1588846E-005  0.4844679E+03  0.7818608E-02  0.1017914E+00
          3   -1    0    0  501    0  0.00000000000E+00  0.00000000000E+00  0.12948210850E+04  0.12948210850E+04  0.00000000000E+00 0. -1.
         -3   -1    0    0    0  501 -0.00000000000E+00 -0.00000000000E+00 -0.45316915129E+02  0.45316915129E+02  0.00000000000E+00 0.  1.
         23    2    1    2    0    0  0.51269288095E+02 -0.34078565194E+02  0.12704114301E+04  0.12751226017E+04  0.90567981588E+02 0.  0.
         13    1    3    3    0    0  0.21852113862E+02 -0.62978550122E+02  0.88645508428E+03  0.88895805812E+03  0.00000000000E+00 0. -1.
        -13    1    3    3    0    0  0.29417174233E+02  0.28899984929E+02  0.38395634577E+03  0.38616454359E+03  0.00000000000E+00 0.  1.
         22    1    1    2    0    0 -0.51269288095E+02  0.34078565194E+02 -0.20907260153E+02  0.65015398442E+02  0.00000000000E+00 0.  1.
<mgrwt>
<rscale>  0 0.48446794E+03</rscale>
<asrwt>0</asrwt>
<pdfrwt beam="1">  1        3 0.19920322E+00 0.48446794E+03</pdfrwt>
<pdfrwt beam="2">  1       -3 0.69718341E-02 0.48446794E+03</pdfrwt>
<totfact> 0.55601946E+01</totfact>
</mgrwt>
</event>
<event>
 6    1  0.1588846E-005  0.2285959E+04  0.7818608E-02  0.8483478E-01
         -2   -1    0    0    0  501 -0.00000000000E+00  0.00000000000E+00  0.53457557280E+03  0.53457557280E+03  0.00000000000E+00 0.  1.
          2   -1    0    0  501    0  0.00000000000E+00 -0.00000000000E+00 -0.24438110368E+04  0.24438110368E+04  0.00000000000E+00 0. -1.
         23    2    1    2    0    0 -0.85982246455E+03  0.53197843084E+03 -0.26677359672E+03  0.10496624959E+04  0.91255037760E+02 0.  0.
         13    1    3    3    0    0 -0.73082386533E+03  0.42495681177E+03 -0.19660793013E+03  0.86795535150E+03  0.00000000000E+00 0.  1.
        -13    1    3    3    0    0 -0.12899859921E+03  0.10702161907E+03 -0.70165666593E+02  0.18170714437E+03  0.00000000000E+00 0. -1.
         22    1    1    2    0    0  0.85982246455E+03 -0.53197843084E+03 -0.16424618673E+04  0.19287241137E+04  0.00000000000E+00 0. -1.
<mgrwt>
<rscale>  0 0.22859586E+04</rscale>
<asrwt>0</asrwt>
<pdfrwt beam="1">  1        2 0.37597092E+00 0.22859586E+04</pdfrwt>
<pdfrwt beam="2">  1       -2 0.82242397E-01 0.22859586E+04</pdfrwt>
<totfact> 0.44217440E+00</totfact>
</mgrwt>
</event>
<event>
 6    1  0.1588846E-005  0.4760255E+04  0.7818608E-02  0.7866593E-01
         -1   -1    0    0    0  501 -0.00000000000E+00  0.00000000000E+00  0.26720634706E+04  0.26720634706E+04  0.00000000000E+00 0.  1.
          1   -1    0    0  501    0  0.00000000000E+00 -0.00000000000E+00 -0.21200866440E+04  0.21200866440E+04  0.00000000000E+00 0. -1.
         23    2    1    2    0    0 -0.16715509856E+04 -0.11984134346E+04  0.14801295623E+04  0.25356605936E+04  0.92269532689E+02 0.  0.
         11    1    3    3    0    0 -0.92835175696E+03 -0.62197983958E+03  0.83968772476E+03  0.13977737230E+04  0.00000000000E+00 0. -1.
        -11    1    3    3    0    0 -0.74319922864E+03 -0.57643359506E+03  0.64044183756E+03  0.11378868706E+04  0.00000000000E+00 0.  1.
         22    1    1    2    0    0  0.16715509856E+04  0.11984134346E+04 -0.92815273568E+03  0.22564895210E+04  0.00000000000E+00 0.  1.
<mgrwt>
<rscale>  0 0.47602546E+04</rscale>
<asrwt>0</asrwt>
<pdfrwt beam="1">  1        1 0.32616717E+00 0.47602546E+04</pdfrwt>
<pdfrwt beam="2">  1       -1 0.41108669E+00 0.47602546E+04</pdfrwt>
<totfact> 0.10915616E-02</totfact>
</mgrwt>
</event>
<event>
 6    1  0.1760195E-005  0.2313046E+04  0.7818608E-02  0.8472795E-01
         -1   -1    0    0    0  501 -0.00000000000E+00  0.00000000000E+00  0.62250504009E+03  0.62250504009E+03  0.00000000000E+00 0.  1.
          1   -1    0    0  501    0  0.00000000000E+00 -0.00000000000E+00 -0.21486501629E+04  0.21486501629E+04  0.00000000000E+00 0. -1.
         23    2    1    2    0    0 -0.51113642627E+03  0.36420683839E+03 -0.19255904599E+04  0.20272038304E+04  0.88032286931E+02 0.  0.
         13    1    3    3    0    0 -0.13184265495E+03  0.11485452870E+03 -0.65620056526E+03  0.67909736436E+03  0.00000000000E+00 0.  1.
        -13    1    3    3    0    0 -0.37929377132E+03  0.24935230970E+03 -0.12693898946E+04  0.13481064661E+04  0.00000000000E+00 0. -1.
         22    1    1    2    0    0  0.51113642627E+03 -0.36420683839E+03  0.39944533709E+03  0.74395137254E+03  0.00000000000E+00 0.  1.
<mgrwt>
<rscale>  0 0.23130461E+04</rscale>
<asrwt>0</asrwt>
<pdfrwt beam="1">  1        1 0.33056157E+00 0.23130461E+04</pdfrwt>
<pdfrwt beam="2">  1       -1 0.95770006E-01 0.23130461E+04</pdfrwt>
<totfact> 0.22412838E+00</totfact>
</mgrwt>
</event>
<event>
 6    1  0.1588846E-005  0.5158643E+04  0.7818608E-02  0.7804490E-01
         -2   -1    0    0    0  501 -0.00000000000E+00  0.00000000000E+00  0.18955637893E+04  0.18955637893E+04  0.00000000000E+00 0.  1.
          2   -1    0    0  501    0  0.00000000000E+00 -0.00000000000E+00 -0.35097210196E+04  0.35097210196E+04  0.00000000000E+00 0. -1.
         23    2    1    2    0    0  0.18488092069E+04 -0.15507693953E+04  0.14517617648E+03  0.24189433620E+04  0.85027438857E+02 0.  0.
         11    1    3    3    0    0  0.12871493693E+04 -0.10688320075E+04  0.13901356823E+03  0.16788329671E+04  0.00000000000E+00 0.  1.
        -11    1    3    3    0    0  0.56165983763E+03 -0.48193738778E+03  0.61626082503E+01  0.74011039493E+03  0.00000000000E+00 0. -1.
         22    1    1    2    0    0 -0.18488092069E+04  0.15507693953E+04 -0.17593334068E+04  0.29863414468E+04  0.00000000000E+00 0.  1.
<mgrwt>
<rscale>  0 0.51586433E+04</rscale>
<asrwt>0</asrwt>
<pdfrwt beam="1">  1        2 0.53995708E+00 0.51586433E+04</pdfrwt>
<pdfrwt beam="2">  1       -2 0.29162520E+00 0.51586433E+04</pdfrwt>
<totfact> 0.20534534E-02</totfact>
</mgrwt>
</event>
<event>
 6    1  0.1588846E-005  0.8977806E+03  0.7818608E-02  0.9428360E-01
          4   -1    0    0  501    0  0.00000000000E+00  0.00000000000E+00  0.11451022928E+04  0.11451022928E+04  0.00000000000E+00 0. -1.
         -4   -1    0    0    0  501 -0.00000000000E+00 -0.00000000000E+00 -0.17596900187E+03  0.17596900187E+03  0.00000000000E+00 0.  1.
         23    2    1    2    0    0  0.24566359633E+03 -0.35570246966E+03  0.33854776327E+03  0.55653682379E+03  0.90795367387E+02 0.  0.
         13    1    3    3    0    0  0.43002665944E+02 -0.47093796727E+02  0.94352018014E+02  0.11388309037E+03  0.00000000000E+00 0.  1.
        -13    1    3    3    0    0  0.20266093038E+03 -0.30860867293E+03  0.24419574525E+03  0.44265373342E+03  0.00000000000E+00 0. -1.
         22    1    1    2    0    0 -0.24566359633E+03  0.35570246966E+03  0.63058552771E+03  0.76453447093E+03  0.00000000000E+00 0. -1.
<mgrwt>
<rscale>  0 0.89778061E+03</rscale>
<asrwt>0</asrwt>
<pdfrwt beam="1">  1        4 0.17616958E+00 0.89778061E+03</pdfrwt>
<pdfrwt beam="2">  1       -4 0.27072155E-01 0.89778061E+03</pdfrwt>
<totfact> 0.50028057E+00</totfact>
</mgrwt>
</event>
<event>
 6    1  0.1588846E-005  0.1489453E+04  0.7818608E-02  0.8891497E-01
         -2   -1    0    0    0  501 -0.00000000000E+00  0.00000000000E+00  0.38108914089E+03  0.38108914089E+03  0.00000000000E+00 0. -1.
          2   -1    0    0  501    0  0.00000000000E+00 -0.00000000000E+00 -0.14553483529E+04  0.14553483529E+04  0.00000000000E+00 0.  1.
         23    2    1    2    0    0  0.51677697483E+03 -0.22650323185E+03 -0.11330135853E+04  0.12691507655E+04  0.93068390472E+02 0.  0.
         11    1    3    3    0    0  0.11705926140E+03 -0.18183435481E+02 -0.28853775778E+03  0.31190951520E+03  0.00000000000E+00 0. -1.
        -11    1    3    3    0    0  0.39971771343E+03 -0.20831979637E+03 -0.84447582750E+03  0.95724125027E+03  0.00000000000E+00 0.  1.
         22    1    1    2    0    0 -0.51677697483E+03  0.22650323185E+03  0.58754373282E+02  0.56728672832E+03  0.00000000000E+00 0. -1.
<mgrwt>
<rscale>  0 0.14894529E+04</rscale>
<asrwt>0</asrwt>
<pdfrwt beam="1">  1        2 0.22389975E+00 0.14894529E+04</pdfrwt>
<pdfrwt beam="2">  1       -2 0.58629098E-01 0.14894529E+04</pdfrwt>
<totfact> 0.35378658E+01</totfact>
</mgrwt>
</event>
<event>
 6    1  0.1588846E-005  0.8626544E+03  0.7818608E-02  0.9473508E-01
         -2   -1    0    0    0  501 -0.00000000000E+00  0.00000000000E+00  0.38611042842E+03  0.38611042842E+03  0.00000000000E+00 0.  1.
          2   -1    0    0  501    0  0.00000000000E+00 -0.00000000000E+00 -0.48183922361E+03  0.48183922361E+03  0.00000000000E+00 0. -1.
         23    2    1    2    0    0 -0.16693441541E+03  0.16861914359E+03 -0.40474278820E+03  0.47834836545E+03  0.93278719388E+02 0.  0.
         13    1    3    3    0    0 -0.11298377094E+03  0.93746909052E+02 -0.16185561932E+03  0.21852015229E+03  0.00000000000E+00 0.  1.
        -13    1    3    3    0    0 -0.53950644475E+02  0.74872234538E+02 -0.24288716889E+03  0.25982821316E+03  0.00000000000E+00 0. -1.
         22    1    1    2    0    0  0.16693441541E+03 -0.16861914359E+03  0.30901399301E+03  0.38960128659E+03  0.00000000000E+00 0.  1.
<mgrwt>
<rscale>  0 0.86265439E+03</rscale>
<asrwt>0</asrwt>
<pdfrwt beam="1">  1        2 0.74129111E-01 0.86265439E+03</pdfrwt>
<pdfrwt beam="2">  1       -2 0.59401605E-01 0.86265439E+03</pdfrwt>
<totfact> 0.17098001E+02</totfact>
</mgrwt>
</event>
<event>
 6    1  0.1588846E-005  0.2298152E+04  0.7818608E-02  0.8478650E-01
          1   -1    0    0  501    0  0.00000000000E+00  0.00000000000E+00  0.36033610470E+04  0.36033610470E+04  0.00000000000E+00 0. -1.
         -1   -1    0    0    0  501 -0.00000000000E+00 -0.00000000000E+00 -0.36642881853E+03  0.36642881853E+03  0.00000000000E+00 0.  1.
         23    2    1    2    0    0  0.33080118465E+03  0.46185902463E+03  0.33427219197E+04  0.33919190831E+04  0.92639364123E+02 0.  0.
         13    1    3    3    0    0  0.20396403120E+03  0.34995293991E+03  0.24628192449E+04  0.24959060518E+04  0.00000000000E+00 0. -1.
        -13    1    3    3    0    0  0.12683715345E+03  0.11190608472E+03  0.87990267472E+03  0.89601303131E+03  0.00000000000E+00 0.  1.
         22    1    1    2    0    0 -0.33080118465E+03 -0.46185902463E+03 -0.10578969121E+03  0.57787078241E+03  0.00000000000E+00 0.  1.
<mgrwt>
<rscale>  0 0.22981517E+04</rscale>
<asrwt>0</asrwt>
<pdfrwt beam="1">  1        1 0.55436321E+00 0.22981517E+04</pdfrwt>
<pdfrwt beam="2">  1       -1 0.56373667E-01 0.22981517E+04</pdfrwt>
<totfact> 0.59658715E-01</totfact>
</mgrwt>
</event>
<event>
 6    1  0.1588846E-005  0.4238165E+04  0.7818608E-02  0.7958152E-01
          2   -1    0    0  501    0  0.00000000000E+00  0.00000000000E+00  0.20401291443E+04  0.20401291443E+04  0.00000000000E+00 0. -1.
         -2   -1    0    0    0  501 -0.00000000000E+00 -0.00000000000E+00 -0.22010915577E+04  0.22010915577E+04  0.00000000000E+00 0.  1.
         23    2    1    2    0    0  0.56702311704E+03  0.77887523944E+03 -0.19678764372E+04  0.21935146334E+04  0.10395634200E+03 0.  0.
         13    1    3    3    0    0  0.35331274084E+03  0.46414713280E+03 -0.10772985657E+04  0.12250855698E+04  0.00000000000E+00 0.  1.
        -13    1    3    3    0    0  0.21371037620E+03  0.31472810664E+03 -0.89057787147E+03  0.96842906356E+03  0.00000000000E+00 0. -1.
         22    1    1    2    0    0 -0.56702311704E+03 -0.77887523944E+03  0.18069140238E+04  0.20477060686E+04  0.00000000000E+00 0. -1.
<mgrwt>
<rscale>  0 0.42381652E+04</rscale>
<asrwt>0</asrwt>
<pdfrwt beam="1">  1        2 0.31386602E+00 0.42381652E+04</pdfrwt>
<pdfrwt beam="2">  1       -2 0.33862947E+00 0.42381652E+04</pdfrwt>
<totfact> 0.90059333E-02</totfact>
</mgrwt>
</event>
<event>
 6    1  0.1588846E-005  0.1196807E+04  0.7818608E-02  0.9115656E-01
          2   -1    0    0  501    0  0.00000000000E+00  0.00000000000E+00  0.45146349466E+03  0.45146349466E+03  0.00000000000E+00 0. -1.
         -2   -1    0    0    0  501 -0.00000000000E+00 -0.00000000000E+00 -0.79316906865E+03  0.79316906865E+03  0.00000000000E+00 0.  1.
         23    2    1    2    0    0 -0.30275254908E+03  0.87520059241E+02  0.35330275044E+03  0.48151039893E+03  0.87809817584E+02 0.  0.
         13    1    3    3    0    0 -0.46779321427E+02 -0.50507265330E+01  0.19852559245E+02  0.51067982732E+02  0.00000000000E+00 0.  1.
        -13    1    3    3    0    0 -0.25597322766E+03  0.92570785774E+02  0.33345019119E+03  0.43044241620E+03  0.00000000000E+00 0. -1.
         22    1    1    2    0    0  0.30275254908E+03 -0.87520059241E+02 -0.69500832443E+03  0.76312216438E+03  0.00000000000E+00 0.  1.
<mgrwt>
<rscale>  0 0.11968072E+04</rscale>
<asrwt>0</asrwt>
<pdfrwt beam="1">  1        2 0.69455922E-01 0.11968072E+04</pdfrwt>
<pdfrwt beam="2">  1       -2 0.12202601E+00 0.11968072E+04</pdfrwt>
<totfact> 0.34814374E+01</totfact>
</mgrwt>
</event>
<event>
 6    1  0.1588846E-005  0.7532191E+03  0.7818608E-02  0.9630314E-01
         -1   -1    0    0    0  501 -0.00000000000E+00  0.00000000000E+00  0.18946097742E+03  0.18946097742E+03  0.00000000000E+00 0.  1.
          1   -1    0    0  501    0  0.00000000000E+00 -0.00000000000E+00 -0.74862250977E+03  0.74862250977E+03  0.00000000000E+00 0. -1.
         23    2    1    2    0    0 -0.49958078089E+02  0.18147290050E+02 -0.74078596187E+03  0.74884140121E+03  0.95783449301E+02 0.  0.
         11    1    3    3    0    0 -0.25670550113E+02  0.57097357937E+02 -0.47715102897E+03  0.48124026211E+03  0.00000000000E+00 0. -1.
        -11    1    3    3    0    0 -0.24287527976E+02 -0.38950067887E+02 -0.26363493290E+03  0.26760113910E+03  0.00000000000E+00 0.  1.
         22    1    1    2    0    0  0.49958078089E+02 -0.18147290050E+02  0.18162442952E+03  0.18924208597E+03  0.00000000000E+00 0.  1.
<mgrwt>
<rscale>  0 0.75321910E+03</rscale>
<asrwt>0</asrwt>
<pdfrwt beam="1">  1        1 0.11517269E+00 0.75321910E+03</pdfrwt>
<pdfrwt beam="2">  1       -1 0.29147843E-01 0.75321910E+03</pdfrwt>
<totfact> 0.26645003E+02</totfact>
</mgrwt>
</event>
<event>
 6    1  0.1588846E-005  0.2032976E+04  0.7818608E-02  0.8591356E-01
         -1   -1    0    0    0  501 -0.00000000000E+00  0.00000000000E+00  0.70163949915E+03  0.70163949915E+03  0.00000000000E+00 0.  1.
          1   -1    0    0  501    0  0.00000000000E+00 -0.00000000000E+00 -0.14726197764E+04  0.14726197764E+04  0.00000000000E+00 0. -1.
         23    2    1    2    0    0  0.77424155869E+03  0.36347786606E+03 -0.96920760468E+03  0.12962728158E+04  0.96921007014E+02 0.  0.
         13    1    3    3    0    0  0.10757373258E+03  0.23284646449E+02 -0.94567246787E+02  0.14511115349E+03  0.00000000000E+00 0. -1.
        -13    1    3    3    0    0  0.66666782611E+03  0.34019321961E+03 -0.87464035789E+03  0.11511616623E+04  0.00000000000E+00 0.  1.
         22    1    1    2    0    0 -0.77424155869E+03 -0.36347786606E+03  0.19822732739E+03  0.87798645983E+03  0.00000000000E+00 0.  1.
<mgrwt>
<rscale>  0 0.20329763E+04</rscale>
<asrwt>0</asrwt>
<pdfrwt beam="1">  1        1 0.22655689E+00 0.20329763E+04</pdfrwt>
<pdfrwt beam="2">  1       -1 0.10794454E+00 0.20329763E+04</pdfrwt>
<totfact> 0.50446438E+00</totfact>
</mgrwt>
</event>
<event>
 6    1  0.1588846E-005  0.3332581E+04  0.7818608E-02  0.8154654E-01
          2   -1    0    0  501    0  0.00000000000E+00  0.00000000000E+00  0.14693278783E+04  0.14693278783E+04  0.00000000000E+00 0. -1.
         -2   -1    0    0    0  501 -0.00000000000E+00 -0.00000000000E+00 -0.18896559036E+04  0.18896559036E+04  0.00000000000E+00 0.  1.
         23    2    1    2    0    0 -0.20434358376E+03 -0.98921392417E+03 -0.15444492950E+04  0.18477097772E+04  0.91691373514E+02 0.  0.
         13    1    3    3    0    0 -0.16517469176E+03 -0.68790706344E+03 -0.10140293105E+04  0.12364280202E+04  0.00000000000E+00 0.  1.
        -13    1    3    3    0    0 -0.39168891996E+02 -0.30130686073E+03 -0.53041998452E+03  0.61128175697E+03  0.00000000000E+00 0. -1.
         22    1    1    2    0    0  0.20434358376E+03  0.98921392417E+03  0.11241212698E+04  0.15112740046E+04  0.00000000000E+00 0. -1.
<mgrwt>
<rscale>  0 0.33325810E+04</rscale>
<asrwt>0</asrwt>
<pdfrwt beam="1">  1        2 0.22605044E+00 0.33325810E+04</pdfrwt>
<pdfrwt beam="2">  1       -2 0.29071629E+00 0.33325810E+04</pdfrwt>
<totfact> 0.39861713E-01</totfact>
</mgrwt>
</event>
<event>
 6    1  0.1588846E-005  0.2833804E+04  0.7818608E-02  0.8292850E-01
         -2   -1    0    0    0  501 -0.00000000000E+00  0.00000000000E+00  0.63443027337E+03  0.63443027337E+03  0.00000000000E+00 0.  1.
          2   -1    0    0  501    0  0.00000000000E+00 -0.00000000000E+00 -0.31644322993E+04  0.31644322993E+04  0.00000000000E+00 0. -1.
         23    2    1    2    0    0  0.41488743614E+03  0.45130594560E+02 -0.30794281348E+04  0.31089079334E+04  0.90898544395E+02 0.  0.
         13    1    3    3    0    0  0.17480141029E+03  0.64268900002E+02 -0.13611051816E+04  0.13737879531E+04  0.00000000000E+00 0.  1.
        -13    1    3    3    0    0  0.24008602585E+03 -0.19138305441E+02 -0.17183229532E+04  0.17351199803E+04  0.00000000000E+00 0. -1.
         22    1    1    2    0    0 -0.41488743614E+03 -0.45130594560E+02  0.54942610887E+03  0.68995463933E+03  0.00000000000E+00 0.  1.
<mgrwt>
<rscale>  0 0.28338043E+04</rscale>
<asrwt>0</asrwt>
<pdfrwt beam="1">  1        2 0.48683575E+00 0.28338043E+04</pdfrwt>
<pdfrwt beam="2">  1       -2 0.97604656E-01 0.28338043E+04</pdfrwt>
<totfact> 0.10376668E+00</totfact>
</mgrwt>
</event>
<event>
 6    1  0.1588846E-005  0.1864491E+04  0.7818608E-02  0.8672736E-01
         -2   -1    0    0    0  501 -0.00000000000E+00  0.00000000000E+00  0.63437642989E+03  0.63437642989E+03  0.00000000000E+00 0.  1.
          2   -1    0    0  501    0  0.00000000000E+00 -0.00000000000E+00 -0.13699784240E+04  0.13699784240E+04  0.00000000000E+00 0. -1.
         23    2    1    2    0    0 -0.80474357473E+03 -0.17155653321E+03 -0.83454854297E+03  0.11756001949E+04  0.92307543418E+02 0.  0.
         13    1    3    3    0    0 -0.75816865575E+03 -0.14743567463E+03 -0.75332841763E+03  0.10789164442E+04  0.00000000000E+00 0.  1.
        -13    1    3    3    0    0 -0.46574918973E+02 -0.24120858589E+02 -0.81220125342E+02  0.96683750739E+02  0.00000000000E+00 0. -1.
         22    1    1    2    0    0  0.80474357473E+03  0.17155653321E+03  0.98946548907E+02  0.82875465893E+03  0.00000000000E+00 0.  1.
<mgrwt>
<rscale>  0 0.18644914E+04</rscale>
<asrwt>0</asrwt>
<pdfrwt beam="1">  1        2 0.21076591E+00 0.18644914E+04</pdfrwt>
<pdfrwt beam="2">  1       -2 0.97596374E-01 0.18644914E+04</pdfrwt>
<totfact> 0.12373722E+01</totfact>
</mgrwt>
</event>
<event>
 6    1  0.1588846E-005  0.1101677E+04  0.7818608E-02  0.9203559E-01
         -2   -1    0    0    0  501 -0.00000000000E+00  0.00000000000E+00  0.11566048592E+03  0.11566048592E+03  0.00000000000E+00 0.  1.
          2   -1    0    0  501    0  0.00000000000E+00 -0.00000000000E+00 -0.26233935685E+04  0.26233935685E+04  0.00000000000E+00 0. -1.
         23    2    1    2    0    0 -0.13528084225E+03 -0.45556925094E+03 -0.58488344309E+03  0.75834837595E+03  0.84613052314E+02 0.  0.
         13    1    3    3    0    0 -0.11175036134E+03 -0.30292230807E+03 -0.34045577050E+03  0.46921231831E+03  0.00000000000E+00 0.  1.
        -13    1    3    3    0    0 -0.23530480903E+02 -0.15264694287E+03 -0.24442767259E+03  0.28913605764E+03  0.00000000000E+00 0. -1.
         22    1    1    2    0    0  0.13528084225E+03  0.45556925094E+03 -0.19228496395E+04  0.19807056785E+04  0.00000000000E+00 0. -1.
<mgrwt>
<rscale>  0 0.11016769E+04</rscale>
<asrwt>0</asrwt>
<pdfrwt beam="1">  1        2 0.40359904E+00 0.11016769E+04</pdfrwt>
<pdfrwt beam="2">  1       -2 0.17793920E-01 0.11016769E+04</pdfrwt>
<totfact> 0.77556951E+01</totfact>
</mgrwt>
</event>
<event>
 6    1  0.1588846E-005  0.2424623E+04  0.7818608E-02  0.8430342E-01
         -1   -1    0    0    0  501 -0.00000000000E+00  0.00000000000E+00  0.10155966169E+04  0.10155966169E+04  0.00000000000E+00 0.  1.
          1   -1    0    0  501    0  0.00000000000E+00 -0.00000000000E+00 -0.14471289520E+04  0.14471289520E+04  0.00000000000E+00 0. -1.
         23    2    1    2    0    0 -0.10602900839E+04  0.37452458284E+03 -0.67160689586E+03  0.13128910069E+04  0.90239947213E+02 0.  0.
         13    1    3    3    0    0 -0.24104858656E+03  0.54443724509E+02 -0.17521743642E+03  0.30293512547E+03  0.00000000000E+00 0. -1.
        -13    1    3    3    0    0 -0.81924149739E+03  0.32008085833E+03 -0.49638945944E+03  0.10099558814E+04  0.00000000000E+00 0.  1.
         22    1    1    2    0    0  0.10602900839E+04 -0.37452458284E+03  0.24007456071E+03  0.11498345620E+04  0.00000000000E+00 0.  1.
<mgrwt>
<rscale>  0 0.24246231E+04</rscale>
<asrwt>0</asrwt>
<pdfrwt beam="1">  1        1 0.22263522E+00 0.24246231E+04</pdfrwt>
<pdfrwt beam="2">  1       -1 0.15624563E+00 0.24246231E+04</pdfrwt>
<totfact> 0.19876766E+00</totfact>
</mgrwt>
</event>
<event>
 6    1  0.1588846E-005  0.3046910E+04  0.7818608E-02  0.8230461E-01
         -2   -1    0    0    0  501 -0.00000000000E+00  0.00000000000E+00  0.13878959225E+04  0.13878959225E+04  0.00000000000E+00 0.  1.
          2   -1    0    0  501    0  0.00000000000E+00 -0.00000000000E+00 -0.16722548948E+04  0.16722548948E+04  0.00000000000E+00 0. -1.
         23    2    1    2    0    0  0.98672188548E+03 -0.10808973338E+04  0.27773115721E+03  0.14923802859E+04  0.90028865907E+02 0.  0.
         11    1    3    3    0    0  0.30189920944E+02 -0.44043376769E+02 -0.50526588214E+01  0.53635619927E+02  0.00000000000E+00 0.  1.
        -11    1    3    3    0    0  0.95653196454E+03 -0.10368539570E+04  0.28278381603E+03  0.14387446660E+04  0.00000000000E+00 0. -1.
         22    1    1    2    0    0 -0.98672188548E+03  0.10808973338E+04 -0.56209012950E+03  0.15677705314E+04  0.00000000000E+00 0.  1.
<mgrwt>
<rscale>  0 0.30469104E+04</rscale>
<asrwt>0</asrwt>
<pdfrwt beam="1">  1        2 0.25726998E+00 0.30469104E+04</pdfrwt>
<pdfrwt beam="2">  1       -2 0.21352245E+00 0.30469104E+04</pdfrwt>
<totfact> 0.94197128E-01</totfact>
</mgrwt>
</event>
<event>
 6    1  0.1588846E-005  0.1996196E+04  0.7818608E-02  0.8608401E-01
         -2   -1    0    0    0  501 -0.00000000000E+00  0.00000000000E+00  0.39638410778E+03  0.39638410778E+03  0.00000000000E+00 0.  1.
          2   -1    0    0  501    0  0.00000000000E+00 -0.00000000000E+00 -0.25132169618E+04  0.25132169618E+04  0.00000000000E+00 0. -1.
         23    2    1    2    0    0 -0.95702413001E+02 -0.12827599335E+03 -0.24936250395E+04  0.25002283380E+04  0.85803392051E+02 0.  0.
         11    1    3    3    0    0 -0.50793585663E+02 -0.12674303666E+03 -0.19138708998E+04  0.19187354186E+04  0.00000000000E+00 0. -1.
        -11    1    3    3    0    0 -0.44908827338E+02 -0.15329566951E+01 -0.57975413972E+03  0.58149291935E+03  0.00000000000E+00 0.  1.
         22    1    1    2    0    0  0.95702413001E+02  0.12827599335E+03  0.37679218549E+03  0.40937273159E+03  0.00000000000E+00 0.  1.
<mgrwt>
<rscale>  0 0.19961956E+04</rscale>
<asrwt>0</asrwt>
<pdfrwt beam="1">  1        2 0.38664877E+00 0.19961956E+04</pdfrwt>
<pdfrwt beam="2">  1       -2 0.60982170E-01 0.19961956E+04</pdfrwt>
<totfact> 0.79582361E+00</totfact>
</mgrwt>
</event>
<event>
 6    1  0.1588846E-005  0.1973884E+04  0.7818608E-02  0.8618929E-01
          1   -1    0    0  501    0  0.00000000000E+00  0.00000000000E+00  0.23028099374E+04  0.23028099374E+04  0.00000000000E+00 0. -1.
         -1   -1    0    0    0  501 -0.00000000000E+00 -0.00000000000E+00 -0.42298516984E+03  0.42298516984E+03  0.00000000000E+00 0.  1.
         23    2    1    2    0    0  0.60117686925E+03 -0.77491158906E+03  0.10732906125E+04  0.14559923894E+04  0.77842790884E+02 0.  0.
         11    1    3    3    0    0  0.17968567822E+03 -0.19308161942E+03  0.32625815402E+03  0.41953764764E+03  0.00000000000E+00 0. -1.
        -11    1    3    3    0    0  0.42149119103E+03 -0.58182996964E+03  0.74703245850E+03  0.10364547418E+04  0.00000000000E+00 0.  1.
         22    1    1    2    0    0 -0.60117686925E+03  0.77491158906E+03  0.80653415501E+03  0.12698027178E+04  0.00000000000E+00 0.  1.
<mgrwt>
<rscale>  0 0.19738839E+04</rscale>
<asrwt>0</asrwt>
<pdfrwt beam="1">  1        1 0.35427845E+00 0.19738839E+04</pdfrwt>
<pdfrwt beam="2">  1       -1 0.65074643E-01 0.19738839E+04</pdfrwt>
<totfact> 0.41253211E+00</totfact>
</mgrwt>
</event>
<event>
 6    1  0.1588846E-005  0.2101174E+04  0.7818608E-02  0.8560726E-01
         -2   -1    0    0    0  501 -0.00000000000E+00  0.00000000000E+00  0.27829004771E+03  0.27829004771E+03  0.00000000000E+00 0.  1.
          2   -1    0    0  501    0  0.00000000000E+00 -0.00000000000E+00 -0.39661247262E+04  0.39661247262E+04  0.00000000000E+00 0. -1.
         23    2    1    2    0    0 -0.43315692055E+03  0.84843164350E+03 -0.27332665445E+04  0.28958371922E+04  0.87554947323E+02 0.  0.
         13    1    3    3    0    0 -0.38604599461E+03  0.71088805839E+03 -0.22402205134E+04  0.23818021098E+04  0.00000000000E+00 0. -1.
        -13    1    3    3    0    0 -0.47110925935E+02  0.13754358512E+03 -0.49304603104E+03  0.51403508234E+03  0.00000000000E+00 0.  1.
         22    1    1    2    0    0  0.43315692055E+03 -0.84843164350E+03 -0.95456813400E+03  0.13485775817E+04  0.00000000000E+00 0.  1.
<mgrwt>
<rscale>  0 0.21011740E+04</rscale>
<asrwt>0</asrwt>
<pdfrwt beam="1">  1        2 0.61017299E+00 0.21011740E+04</pdfrwt>
<pdfrwt beam="2">  1       -2 0.42813857E-01 0.21011740E+04</pdfrwt>
<totfact> 0.17510113E+00</totfact>
</mgrwt>
</event>
<event>
 6    1  0.1588846E-005  0.4482236E+04  0.7818608E-02  0.7913754E-01
          2   -1    0    0  501    0  0.00000000000E+00  0.00000000000E+00  0.19138633909E+04  0.19138633909E+04  0.00000000000E+00 0. -1.
         -2   -1    0    0    0  501 -0.00000000000E+00 -0.00000000000E+00 -0.26243307492E+04  0.26243307492E+04  0.00000000000E+00 0.  1.
         23    2    1    2    0    0 -0.16250218055E+04 -0.93995806531E+03  0.88227499467E+03  0.20762751251E+04  0.91061495682E+02 0.  0.
         11    1    3    3    0    0 -0.57837376538E+03 -0.37379478678E+03  0.35420685072E+03  0.77440380177E+03  0.00000000000E+00 0.  1.
        -11    1    3    3    0    0 -0.10466480402E+04 -0.56616327853E+03  0.52806814395E+03  0.13018713234E+04  0.00000000000E+00 0. -1.
         22    1    1    2    0    0  0.16250218055E+04  0.93995806531E+03 -0.15927423530E+04  0.24619190149E+04  0.00000000000E+00 0.  1.
<mgrwt>
<rscale>  0 0.44822363E+04</rscale>
<asrwt>0</asrwt>
<pdfrwt beam="1">  1        2 0.29444052E+00 0.44822363E+04</pdfrwt>
<pdfrwt beam="2">  1       -2 0.40374319E+00 0.44822363E+04</pdfrwt>
<totfact> 0.39714953E-02</totfact>
</mgrwt>
</event>
<event>
 6    1  0.1588846E-005  0.5829676E+04  0.7818608E-02  0.7711886E-01
         -2   -1    0    0    0  501 -0.00000000000E+00  0.00000000000E+00  0.49230039895E+04  0.49230039895E+04  0.00000000000E+00 0. -1.
          2   -1    0    0  501    0  0.00000000000E+00 -0.00000000000E+00 -0.17258328235E+04  0.17258328235E+04  0.00000000000E+00 0.  1.
         23    2    1    2    0    0 -0.28853297229E+04 -0.36272415781E+03  0.18141125683E+04  0.34286586333E+04  0.89438182902E+02 0.  0.
         13    1    3    3    0    0 -0.16876960219E+04 -0.17455623528E+03  0.10857314325E+04  0.20143486503E+04  0.00000000000E+00 0.  1.
        -13    1    3    3    0    0 -0.11976337011E+04 -0.18816792252E+03  0.72838113583E+03  0.14143099830E+04  0.00000000000E+00 0. -1.
         22    1    1    2    0    0  0.28853297229E+04  0.36272415781E+03  0.13830585976E+04  0.32201781797E+04  0.00000000000E+00 0. -1.
<mgrwt>
<rscale>  0 0.58296764E+04</rscale>
<asrwt>0</asrwt>
<pdfrwt beam="1">  1        2 0.26551274E+00 0.58296764E+04</pdfrwt>
<pdfrwt beam="2">  1       -2 0.75738522E+00 0.58296764E+04</pdfrwt>
<totfact> 0.86668366E-04</totfact>
</mgrwt>
</event>
<event>
 6    1  0.1588846E-005  0.1245978E+04  0.7818608E-02  0.9073537E-01
         -2   -1    0    0    0  501 -0.00000000000E+00  0.00000000000E+00  0.27909190114E+03  0.27909190114E+03  0.00000000000E+00 0.  1.
          2   -1    0    0  501    0  0.00000000000E+00 -0.00000000000E+00 -0.13906367139E+04  0.13906367139E+04  0.00000000000E+00 0. -1.
         23    2    1    2    0    0 -0.57246910954E+03  0.23652211028E+03 -0.57938821685E+03  0.85311718199E+03  0.91949063874E+02 0.  0.
         11    1    3    3    0    0 -0.10669314316E+03  0.19037221441E+02 -0.13873051666E+03  0.17604544541E+03  0.00000000000E+00 0. -1.
        -11    1    3    3    0    0 -0.46577596639E+03  0.21748488884E+03 -0.44065770019E+03  0.67707173657E+03  0.00000000000E+00 0.  1.
         22    1    1    2    0    0  0.57246910954E+03 -0.23652211028E+03 -0.53215659592E+03  0.81661143306E+03  0.00000000000E+00 0.  1.
<mgrwt>
<rscale>  0 0.12459782E+04</rscale>
<asrwt>0</asrwt>
<pdfrwt beam="1">  1        2 0.21394411E+00 0.12459782E+04</pdfrwt>
<pdfrwt beam="2">  1       -2 0.42937215E-01 0.12459782E+04</pdfrwt>
<totfact> 0.74083357E+01</totfact>
</mgrwt>
</event>
<event>
 6    1  0.1588846E-005  0.4259723E+04  0.7818608E-02  0.7954108E-01
          2   -1    0    0  501    0  0.00000000000E+00  0.00000000000E+00  0.27278905495E+04  0.27278905495E+04  0.00000000000E+00 0. -1.
         -2   -1    0    0    0  501 -0.00000000000E+00 -0.00000000000E+00 -0.16629372165E+04  0.16629372165E+04  0.00000000000E+00 0.  1.
         23    2    1    2    0    0  0.24335010581E+03  0.84075553514E+03  0.25330992720E+04  0.26815759877E+04  0.90380927577E+02 0.  0.
         13    1    3    3    0    0  0.20859557642E+03  0.58048085571E+03  0.17342857432E+04  0.18407110522E+04  0.00000000000E+00 0.  1.
        -13    1    3    3    0    0  0.34754529385E+02  0.26027467943E+03  0.79881352872E+03  0.84086493549E+03  0.00000000000E+00 0. -1.
         22    1    1    2    0    0 -0.24335010581E+03 -0.84075553514E+03 -0.14681459390E+04  0.17092517784E+04  0.00000000000E+00 0.  1.
<mgrwt>
<rscale>  0 0.42597233E+04</rscale>
<asrwt>0</asrwt>
<pdfrwt beam="1">  1        2 0.41967547E+00 0.42597233E+04</pdfrwt>
<pdfrwt beam="2">  1       -2 0.25583649E+00 0.42597233E+04</pdfrwt>
<totfact> 0.11679515E-01</totfact>
</mgrwt>
</event>
<event>
 6    1  0.1588846E-005  0.1815961E+04  0.7818608E-02  0.8697857E-01
          1   -1    0    0  501    0  0.00000000000E+00  0.00000000000E+00  0.15440412916E+04  0.15440412916E+04  0.00000000000E+00 0. -1.
         -1   -1    0    0    0  501 -0.00000000000E+00 -0.00000000000E+00 -0.53394227383E+03  0.53394227383E+03  0.00000000000E+00 0.  1.
         23    2    1    2    0    0 -0.21756043128E+03  0.74723234625E+03 -0.23728451918E+02  0.78396348921E+03  0.91361876332E+02 0.  0.
         11    1    3    3    0    0 -0.44840226990E+02  0.22423786967E+03  0.29713888154E+02  0.23059961687E+03  0.00000000000E+00 0. -1.
        -11    1    3    3    0    0 -0.17272020429E+03  0.52299447658E+03 -0.53442340072E+02  0.55336387234E+03  0.00000000000E+00 0.  1.
         22    1    1    2    0    0  0.21756043128E+03 -0.74723234625E+03  0.10338274696E+04  0.12940200762E+04  0.00000000000E+00 0. -1.
<mgrwt>
<rscale>  0 0.18159614E+04</rscale>
<asrwt>0</asrwt>
<pdfrwt beam="1">  1        1 0.23754481E+00 0.18159614E+04</pdfrwt>
<pdfrwt beam="2">  1       -1 0.82144966E-01 0.18159614E+04</pdfrwt>
<totfact> 0.84696441E+00</totfact>
</mgrwt>
</event>
<event>
 6    1  0.1588846E-005  0.1783276E+04  0.7818608E-02  0.8715244E-01
         -2   -1    0    0    0  501 -0.00000000000E+00  0.00000000000E+00  0.64065752901E+03  0.64065752901E+03  0.00000000000E+00 0.  1.
          2   -1    0    0  501    0  0.00000000000E+00 -0.00000000000E+00 -0.12409413187E+04  0.12409413187E+04  0.00000000000E+00 0. -1.
         23    2    1    2    0    0 -0.15701326314E+03 -0.78142181246E+03  0.11538176024E+03  0.81040773818E+03  0.90413150170E+02 0.  0.
         11    1    3    3    0    0 -0.97971334902E+02 -0.58744919171E+03  0.12028941468E+03  0.60758907049E+03  0.00000000000E+00 0.  1.
        -11    1    3    3    0    0 -0.59041928242E+02 -0.19397262075E+03 -0.49076544378E+01  0.20281866769E+03  0.00000000000E+00 0. -1.
         22    1    1    2    0    0  0.15701326314E+03  0.78142181246E+03 -0.71566554996E+03  0.10711911096E+04  0.00000000000E+00 0. -1.
<mgrwt>
<rscale>  0 0.17832761E+04</rscale>
<asrwt>0</asrwt>
<pdfrwt beam="1">  1        2 0.19091405E+00 0.17832761E+04</pdfrwt>
<pdfrwt beam="2">  1       -2 0.98562698E-01 0.17832761E+04</pdfrwt>
<totfact> 0.14472226E+01</totfact>
</mgrwt>
</event>
<event>
 6    1  0.1588846E-005  0.1770277E+04  0.7818608E-02  0.8722267E-01
          1   -1    0    0  501    0  0.00000000000E+00  0.00000000000E+00  0.98391731551E+03  0.98391731551E+03  0.00000000000E+00 0. -1.
         -1   -1    0    0    0  501 -0.00000000000E+00 -0.00000000000E+00 -0.79627680345E+03  0.79627680345E+03  0.00000000000E+00 0.  1.
         23    2    1    2    0    0  0.63440127390E+03  0.51769397422E+03  0.42707090323E+03  0.92708279006E+03  0.81369011077E+02 0.  0.
         13    1    3    3    0    0  0.20435432920E+03  0.21692421126E+03  0.15944033571E+03  0.33799116253E+03  0.00000000000E+00 0. -1.
        -13    1    3    3    0    0  0.43004694470E+03  0.30076976296E+03  0.26763056753E+03  0.58909162754E+03  0.00000000000E+00 0.  1.
         22    1    1    2    0    0 -0.63440127390E+03 -0.51769397422E+03 -0.23943039118E+03  0.85311132890E+03  0.00000000000E+00 0. -1.
<mgrwt>
<rscale>  0 0.17702774E+04</rscale>
<asrwt>0</asrwt>
<pdfrwt beam="1">  1        1 0.15137190E+00 0.17702774E+04</pdfrwt>
<pdfrwt beam="2">  1       -1 0.12250412E+00 0.17702774E+04</pdfrwt>
<totfact> 0.86719438E+00</totfact>
</mgrwt>
</event>
<event>
 6    1  0.1588846E-005  0.2643703E+04  0.7818608E-02  0.8353506E-01
          2   -1    0    0  501    0  0.00000000000E+00  0.00000000000E+00  0.20416357471E+04  0.20416357471E+04  0.00000000000E+00 0.  1.
         -2   -1    0    0    0  501 -0.00000000000E+00 -0.00000000000E+00 -0.85582937921E+03  0.85582937921E+03  0.00000000000E+00 0. -1.
         23    2    1    2    0    0 -0.66520039930E+03 -0.11403594972E+04  0.57984802547E+03  0.14448478791E+04  0.91925552407E+02 0.  0.
         11    1    3    3    0    0 -0.12980114258E+03 -0.17772346473E+03  0.12521912914E+03  0.25320702367E+03  0.00000000000E+00 0. -1.
        -11    1    3    3    0    0 -0.53539925672E+03 -0.96263603243E+03  0.45462889633E+03  0.11916408555E+04  0.00000000000E+00 0.  1.
         22    1    1    2    0    0  0.66520039930E+03  0.11403594972E+04  0.60595834239E+03  0.14526172471E+04  0.00000000000E+00 0. -1.
<mgrwt>
<rscale>  0 0.26437034E+04</rscale>
<asrwt>0</asrwt>
<pdfrwt beam="1">  1        2 0.31409781E+00 0.26437034E+04</pdfrwt>
<pdfrwt beam="2">  1       -2 0.13166606E+00 0.26437034E+04</pdfrwt>
<totfact> 0.23473693E+00</totfact>
</mgrwt>
</event>
<event>
 6    1  0.1588846E-005  0.1162967E+04  0.7818608E-02  0.9145904E-01
         -1   -1    0    0    0  501 -0.00000000000E+00  0.00000000000E+00  0.28998633342E+03  0.28998633342E+03  0.00000000000E+00 0.  1.
          1   -1    0    0  501    0  0.00000000000E+00 -0.00000000000E+00 -0.11659960851E+04  0.11659960851E+04  0.00000000000E+00 0. -1.
         23    2    1    2    0    0  0.27762682125E+03 -0.15422130987E+03 -0.10448191515E+04  0.10963194126E+04  0.96996550758E+02 0.  0.
         13    1    3    3    0    0  0.79080563873E+02 -0.53660773820E+02 -0.47622277189E+03  0.48571734856E+03  0.00000000000E+00 0.  1.
        -13    1    3    3    0    0  0.19854625737E+03 -0.10056053605E+03 -0.56859637963E+03  0.61060206407E+03  0.00000000000E+00 0. -1.
         22    1    1    2    0    0 -0.27762682125E+03  0.15422130987E+03  0.16880939987E+03  0.35966300585E+03  0.00000000000E+00 0.  1.
<mgrwt>
<rscale>  0 0.11629668E+04</rscale>
<asrwt>0</asrwt>
<pdfrwt beam="1">  1        1 0.17938401E+00 0.11629668E+04</pdfrwt>
<pdfrwt beam="2">  1       -1 0.44613282E-01 0.11629668E+04</pdfrwt>
<totfact> 0.55875408E+01</totfact>
</mgrwt>
</event>
<event>
 6    1  0.1588846E-005  0.5991385E+04  0.7818608E-02  0.7691471E-01
         -2   -1    0    0    0  501 -0.00000000000E+00  0.00000000000E+00  0.24566053053E+04  0.24566053053E+04  0.00000000000E+00 0.  1.
          2   -1    0    0  501    0  0.00000000000E+00 -0.00000000000E+00 -0.36530790246E+04  0.36530790246E+04  0.00000000000E+00 0. -1.
         23    2    1    2    0    0 -0.45814749240E+03 -0.18220324477E+04  0.17801692362E+04  0.25897262833E+04  0.89321595578E+02 0.  0.
         11    1    3    3    0    0 -0.25234439007E+03 -0.87304624428E+03  0.90372679049E+03  0.12816432997E+04  0.00000000000E+00 0.  1.
        -11    1    3    3    0    0 -0.20580310233E+03 -0.94898620337E+03  0.87644244575E+03  0.13080829835E+04  0.00000000000E+00 0. -1.
         22    1    1    2    0    0  0.45814749240E+03  0.18220324477E+04 -0.29766429555E+04  0.35199580466E+04  0.00000000000E+00 0. -1.
<mgrwt>
<rscale>  0 0.59913849E+04</rscale>
<asrwt>0</asrwt>
<pdfrwt beam="1">  1        2 0.56201215E+00 0.59913849E+04</pdfrwt>
<pdfrwt beam="2">  1       -2 0.37793928E+00 0.59913849E+04</pdfrwt>
<totfact> 0.43834940E-03</totfact>
</mgrwt>
</event>
<event>
 6    1  0.1588846E-005  0.2808863E+04  0.7818608E-02  0.8300522E-01
          2   -1    0    0  501    0  0.00000000000E+00  0.00000000000E+00  0.22951568140E+04  0.22951568140E+04  0.00000000000E+00 0. -1.
         -2   -1    0    0    0  501 -0.00000000000E+00 -0.00000000000E+00 -0.85938722259E+03  0.85938722259E+03  0.00000000000E+00 0.  1.
         23    2    1    2    0    0  0.29536705432E+03 -0.11249351703E+04 -0.16265797985E+03  0.11777558500E+04  0.89052734913E+02 0.  0.
         13    1    3    3    0    0  0.83868615114E+02 -0.23637171144E+03 -0.49854895176E+01  0.25085929458E+03  0.00000000000E+00 0.  1.
        -13    1    3    3    0    0  0.21149843921E+03 -0.88856345886E+03 -0.15767249033E+03  0.92689655541E+03  0.00000000000E+00 0. -1.
         22    1    1    2    0    0 -0.29536705432E+03  0.11249351703E+04  0.15984275713E+04  0.19767881866E+04  0.00000000000E+00 0. -1.
<mgrwt>
<rscale>  0 0.28088634E+04</rscale>
<asrwt>0</asrwt>
<pdfrwt beam="1">  1        2 0.35310104E+00 0.28088634E+04</pdfrwt>
<pdfrwt beam="2">  1       -2 0.13221342E+00 0.28088634E+04</pdfrwt>
<totfact> 0.16504386E+00</totfact>
</mgrwt>
</event>
<event>
 6    1  0.1588846E-005  0.3215274E+04  0.7818608E-02  0.8184795E-01
         -1   -1    0    0    0  501 -0.00000000000E+00  0.00000000000E+00  0.13615837320E+04  0.13615837320E+04  0.00000000000E+00 0.  1.
          1   -1    0    0  501    0  0.00000000000E+00 -0.00000000000E+00 -0.18981545266E+04  0.18981545266E+04  0.00000000000E+00 0. -1.
         23    2    1    2    0    0  0.13104270314E+04  0.16090490785E+03  0.65901170676E+03  0.14785793910E+04  0.93761354704E+02 0.  0.
         11    1    3    3    0    0  0.65722305588E+03  0.95204342971E+02  0.28155074818E+03  0.72130218071E+03  0.00000000000E+00 0.  1.
        -11    1    3    3    0    0  0.65320397556E+03  0.65700564878E+02  0.37746095857E+03  0.75727721025E+03  0.00000000000E+00 0. -1.
         22    1    1    2    0    0 -0.13104270314E+04 -0.16090490785E+03 -0.11955825014E+04  0.17811588676E+04  0.00000000000E+00 0. -1.
<mgrwt>
<rscale>  0 0.32152738E+04</rscale>
<asrwt>0</asrwt>
<pdfrwt beam="1">  1        1 0.29202377E+00 0.32152738E+04</pdfrwt>
<pdfrwt beam="2">  1       -1 0.20947442E+00 0.32152738E+04</pdfrwt>
<totfact> 0.37846512E-01</totfact>
</mgrwt>
</event>
<event>
 6    1  0.1588846E-005  0.1721686E+04  0.7818608E-02  0.8749092E-01
          1   -1    0    0  501    0  0.00000000000E+00  0.00000000000E+00  0.17343295378E+04  0.17343295378E+04  0.00000000000E+00 0. -1.
         -1   -1    0    0    0  501 -0.00000000000E+00 -0.00000000000E+00 -0.42728356325E+03  0.42728356325E+03  0.00000000000E+00 0.  1.
         23    2    1    2    0    0 -0.11147511493E+03 -0.81926819758E+03  0.94546645279E+03  0.12591903446E+04  0.89590344640E+02 0.  0.
         11    1    3    3    0    0 -0.97010903190E+02 -0.48198366047E+03  0.51295231987E+03  0.71052054633E+03  0.00000000000E+00 0. -1.
        -11    1    3    3    0    0 -0.14464211741E+02 -0.33728453711E+03  0.43251413291E+03  0.54866979830E+03  0.00000000000E+00 0.  1.
         22    1    1    2    0    0  0.11147511493E+03  0.81926819758E+03  0.36157952180E+03  0.90242275647E+03  0.00000000000E+00 0.  1.
<mgrwt>
<rscale>  0 0.17216858E+04</rscale>
<asrwt>0</asrwt>
<pdfrwt beam="1">  1        1 0.26681992E+00 0.17216858E+04</pdfrwt>
<pdfrwt beam="2">  1       -1 0.65735934E-01 0.17216858E+04</pdfrwt>
<totfact> 0.10061413E+01</totfact>
</mgrwt>
</event>
<event>
 6    1  0.1588846E-005  0.9021874E+03  0.7818608E-02  0.9422851E-01
         -1   -1    0    0    0  501 -0.00000000000E+00  0.00000000000E+00  0.33859138860E+03  0.33859138860E+03  0.00000000000E+00 0.  1.
          1   -1    0    0  501    0  0.00000000000E+00 -0.00000000000E+00 -0.60097670001E+03  0.60097670001E+03  0.00000000000E+00 0. -1.
         23    2    1    2    0    0  0.41466963294E+03  0.23265075300E+02 -0.30124724368E+03  0.52243211798E+03  0.98454293260E+02 0.  0.
         13    1    3    3    0    0  0.96889369805E+02  0.34224480863E+02 -0.37743482053E+02  0.10946887918E+03  0.00000000000E+00 0. -1.
        -13    1    3    3    0    0  0.31778026314E+03 -0.10959405563E+02 -0.26350376163E+03  0.41296323880E+03  0.00000000000E+00 0.  1.
         22    1    1    2    0    0 -0.41466963294E+03 -0.23265075300E+02  0.38861932272E+02  0.41713597063E+03  0.00000000000E+00 0.  1.
<mgrwt>
<rscale>  0 0.90218742E+03</rscale>
<asrwt>0</asrwt>
<pdfrwt beam="1">  1        1 0.92457953E-01 0.90218742E+03</pdfrwt>
<pdfrwt beam="2">  1       -1 0.52090983E-01 0.90218742E+03</pdfrwt>
<totfact> 0.12775882E+02</totfact>
</mgrwt>
</event>
<event>
 6    1  0.1588846E-005  0.2813802E+04  0.7818608E-02  0.8298996E-01
         -1   -1    0    0    0  501 -0.00000000000E+00  0.00000000000E+00  0.22335778562E+04  0.22335778562E+04  0.00000000000E+00 0.  1.
          1   -1    0    0  501    0  0.00000000000E+00 -0.00000000000E+00 -0.88618793525E+03  0.88618793525E+03  0.00000000000E+00 0. -1.
         23    2    1    2    0    0  0.57078766210E+03 -0.18102846444E+03 -0.73536568427E+03  0.95263848296E+03  0.90484968125E+02 0.  0.
         11    1    3    3    0    0  0.17575509008E+03 -0.84272363805E+02 -0.29102350995E+03  0.35026613643E+03  0.00000000000E+00 0.  1.
        -11    1    3    3    0    0  0.39503257203E+03 -0.96756100639E+02 -0.44434217432E+03  0.60237234652E+03  0.00000000000E+00 0. -1.
         22    1    1    2    0    0 -0.57078766210E+03  0.18102846444E+03  0.20827556052E+04  0.21671273085E+04  0.00000000000E+00 0.  1.
<mgrwt>
<rscale>  0 0.28138015E+04</rscale>
<asrwt>0</asrwt>
<pdfrwt beam="1">  1        1 0.13633661E+00 0.28138015E+04</pdfrwt>
<pdfrwt beam="2">  1       -1 0.34362736E+00 0.28138015E+04</pdfrwt>
<totfact> 0.27655101E-01</totfact>
</mgrwt>
</event>
<event>
 6    1  0.1588846E-005  0.3974442E+03  0.7818608E-02  0.1044668E+00
         -2   -1    0    0    0  501 -0.00000000000E+00  0.00000000000E+00  0.27738675676E+03  0.27738675676E+03  0.00000000000E+00 0.  1.
          2   -1    0    0  501    0  0.00000000000E+00 -0.00000000000E+00 -0.14236611894E+03  0.14236611894E+03  0.00000000000E+00 0. -1.
         23    2    1    2    0    0 -0.83422682728E+01  0.58094714299E+02  0.26044083677E+03  0.28127971738E+03  0.88567830987E+02 0.  0.
         13    1    3    3    0    0 -0.45408497765E+02  0.18270338176E+02  0.15629246408E+03  0.16377750534E+03  0.00000000000E+00 0.  1.
        -13    1    3    3    0    0  0.37066229492E+02  0.39824376122E+02  0.10414837269E+03  0.11750221205E+03  0.00000000000E+00 0. -1.
         22    1    1    2    0    0  0.83422682728E+01 -0.58094714299E+02 -0.12542019895E+03  0.13847315831E+03  0.00000000000E+00 0. -1.
<mgrwt>
<rscale>  0 0.39744421E+03</rscale>
<asrwt>0</asrwt>
<pdfrwt beam="1">  1        2 0.21902480E-01 0.39744421E+03</pdfrwt>
<pdfrwt beam="2">  1       -2 0.42674886E-01 0.39744421E+03</pdfrwt>
<totfact> 0.13236339E+03</totfact>
</mgrwt>
</event>
<event>
 6    1  0.1588846E-005  0.2571770E+04  0.7818608E-02  0.8377854E-01
          1   -1    0    0  501    0  0.00000000000E+00  0.00000000000E+00  0.14838973917E+04  0.14838973917E+04  0.00000000000E+00 0. -1.
         -1   -1    0    0    0  501 -0.00000000000E+00 -0.00000000000E+00 -0.11142951319E+04  0.11142951319E+04  0.00000000000E+00 0.  1.
         23    2    1    2    0    0 -0.78535829187E+03  0.94699571294E+03  0.55726373045E+03  0.13536824374E+04  0.91240063742E+02 0.  0.
         11    1    3    3    0    0 -0.16240236013E+03  0.15329559470E+03  0.12584854953E+03  0.25634337001E+03  0.00000000000E+00 0.  1.
        -11    1    3    3    0    0 -0.62295593174E+03  0.79370011824E+03  0.43141518093E+03  0.10973390674E+04  0.00000000000E+00 0. -1.
         22    1    1    2    0    0  0.78535829187E+03 -0.94699571294E+03 -0.18766147073E+03  0.12445100861E+04  0.00000000000E+00 0.  1.
<mgrwt>
<rscale>  0 0.25717695E+04</rscale>
<asrwt>0</asrwt>
<pdfrwt beam="1">  1        1 0.22829191E+00 0.25717695E+04</pdfrwt>
<pdfrwt beam="2">  1       -1 0.17143002E+00 0.25717695E+04</pdfrwt>
<totfact> 0.14234824E+00</totfact>
</mgrwt>
</event>
<event>
 6    1  0.1588846E-005  0.1233361E+04  0.7818608E-02  0.9084147E-01
          2   -1    0    0  501    0  0.00000000000E+00  0.00000000000E+00  0.68147031170E+03  0.68147031170E+03  0.00000000000E+00 0. -1.
         -2   -1    0    0    0  501 -0.00000000000E+00 -0.00000000000E+00 -0.55805064320E+03  0.55805064320E+03  0.00000000000E+00 0.  1.
         23    2    1    2    0    0 -0.58056832887E+03  0.19398103716E+03  0.10040543377E+03  0.62697064491E+03  0.91228894435E+02 0.  0.
         11    1    3    3    0    0 -0.12164180174E+03  0.24714567266E+02 -0.13132024225E+02  0.12481982145E+03  0.00000000000E+00 0.  1.
        -11    1    3    3    0    0 -0.45892652713E+03  0.16926646989E+03  0.11353745799E+03  0.50215082346E+03  0.00000000000E+00 0. -1.
         22    1    1    2    0    0  0.58056832887E+03 -0.19398103716E+03  0.23014234734E+02  0.61255030999E+03  0.00000000000E+00 0. -1.
<mgrwt>
<rscale>  0 0.12333612E+04</rscale>
<asrwt>0</asrwt>
<pdfrwt beam="1">  1        2 0.10484159E+00 0.12333612E+04</pdfrwt>
<pdfrwt beam="2">  1       -2 0.85853945E-01 0.12333612E+04</pdfrwt>
<totfact> 0.49171890E+01</totfact>
</mgrwt>
</event>
<event>
 6    1  0.1588846E-005  0.1445769E+04  0.7818608E-02  0.8921339E-01
          1   -1    0    0  501    0  0.00000000000E+00  0.00000000000E+00  0.85508472994E+03  0.85508472994E+03  0.00000000000E+00 0. -1.
         -1   -1    0    0    0  501 -0.00000000000E+00 -0.00000000000E+00 -0.61112281070E+03  0.61112281070E+03  0.00000000000E+00 0.  1.
         23    2    1    2    0    0  0.32470701598E+03  0.62635539908E+03 -0.23837899031E+02  0.71157354005E+03  0.89514944521E+02 0.  0.
         13    1    3    3    0    0  0.27841861346E+03  0.45321478048E+03 -0.21493642031E+02  0.53233686536E+03  0.00000000000E+00 0. -1.
        -13    1    3    3    0    0  0.46288402516E+02  0.17314061860E+03 -0.23442570003E+01  0.17923667470E+03  0.00000000000E+00 0.  1.
         22    1    1    2    0    0 -0.32470701598E+03 -0.62635539908E+03  0.26779981828E+03  0.75463400059E+03  0.00000000000E+00 0. -1.
<mgrwt>
<rscale>  0 0.14457687E+04</rscale>
<asrwt>0</asrwt>
<pdfrwt beam="1">  1        1 0.13155150E+00 0.14457687E+04</pdfrwt>
<pdfrwt beam="2">  1       -1 0.94018894E-01 0.14457687E+04</pdfrwt>
<totfact> 0.21124445E+01</totfact>
</mgrwt>
</event>
<event>
 6    1  0.1588846E-005  0.2403541E+04  0.7818608E-02  0.8438179E-01
          2   -1    0    0  501    0  0.00000000000E+00  0.00000000000E+00  0.27337952047E+04  0.27337952047E+04  0.00000000000E+00 0. -1.
         -2   -1    0    0    0  501 -0.00000000000E+00 -0.00000000000E+00 -0.52829592454E+03  0.52829592454E+03  0.00000000000E+00 0.  1.
         23    2    1    2    0    0  0.30403066561E+03  0.57031955246E+03 -0.26814445313E+03  0.70541118119E+03  0.89467587712E+02 0.  0.
         11    1    3    3    0    0  0.11981546501E+03  0.17556200933E+03 -0.12645600821E+03  0.24732344568E+03  0.00000000000E+00 0.  1.
        -11    1    3    3    0    0  0.18421520060E+03  0.39475754314E+03 -0.14168844493E+03  0.45808773551E+03  0.00000000000E+00 0. -1.
         22    1    1    2    0    0 -0.30403066561E+03 -0.57031955246E+03  0.24736437333E+04  0.25566799481E+04  0.00000000000E+00 0. -1.
<mgrwt>
<rscale>  0 0.24035414E+04</rscale>
<asrwt>0</asrwt>
<pdfrwt beam="1">  1        2 0.42058387E+00 0.24035414E+04</pdfrwt>
<pdfrwt beam="2">  1       -2 0.81276297E-01 0.24035414E+04</pdfrwt>
<totfact> 0.30396086E+00</totfact>
</mgrwt>
</event>
<event>
 6    1  0.1588846E-005  0.1009820E+04  0.7818608E-02  0.9297840E-01
          1   -1    0    0  501    0  0.00000000000E+00  0.00000000000E+00  0.12278854642E+04  0.12278854642E+04  0.00000000000E+00 0. -1.
         -1   -1    0    0    0  501 -0.00000000000E+00 -0.00000000000E+00 -0.20762035440E+03  0.20762035440E+03  0.00000000000E+00 0.  1.
         23    2    1    2    0    0  0.30365079356E+03 -0.10398131504E+03 -0.39349539770E+02  0.32834768902E+03  0.56990352677E+02 0.  0.
         11    1    3    3    0    0  0.19007074023E+03 -0.92959727682E+02 -0.19033909970E+02  0.21243984323E+03  0.00000000000E+00 0. -1.
        -11    1    3    3    0    0  0.11358005333E+03 -0.11021587362E+02 -0.20315629800E+02  0.11590784579E+03  0.00000000000E+00 0.  1.
         22    1    1    2    0    0 -0.30365079356E+03  0.10398131504E+03  0.10596146495E+04  0.11071581295E+04  0.00000000000E+00 0. -1.
<mgrwt>
<rscale>  0 0.10098198E+04</rscale>
<asrwt>0</asrwt>
<pdfrwt beam="1">  1        1 0.18890545E+00 0.10098198E+04</pdfrwt>
<pdfrwt beam="2">  1       -1 0.31941594E-01 0.10098198E+04</pdfrwt>
<totfact> 0.93237571E+01</totfact>
</mgrwt>
</event>
<event>
 6    1  0.1588846E-005  0.4788936E+04  0.7818608E-02  0.7861917E-01
         -2   -1    0    0    0  501 -0.00000000000E+00  0.00000000000E+00  0.20672577368E+04  0.20672577368E+04  0.00000000000E+00 0.  1.
          2   -1    0    0  501    0  0.00000000000E+00 -0.00000000000E+00 -0.27734696523E+04  0.27734696523E+04  0.00000000000E+00 0. -1.
         23    2    1    2    0    0 -0.12847195315E+02 -0.13795692346E+04  0.16239555719E+04  0.21327656385E+04  0.89895748964E+02 0.  0.
         11    1    3    3    0    0  0.25913362721E+02 -0.10607736506E+04  0.12658694604E+04  0.16517680621E+04  0.00000000000E+00 0. -1.
        -11    1    3    3    0    0 -0.38760558037E+02 -0.31879558404E+03  0.35808611144E+03  0.48099757637E+03  0.00000000000E+00 0.  1.
         22    1    1    2    0    0  0.12847195315E+02  0.13795692346E+04 -0.23301674874E+04  0.27079617507E+04  0.00000000000E+00 0. -1.
<mgrwt>
<rscale>  0 0.47889358E+04</rscale>
<asrwt>0</asrwt>
<pdfrwt beam="1">  1        2 0.42668764E+00 0.47889358E+04</pdfrwt>
<pdfrwt beam="2">  1       -2 0.31803965E+00 0.47889358E+04</pdfrwt>
<totfact> 0.43726954E-02</totfact>
</mgrwt>
</event>
<event>
 6    1  0.1588846E-005  0.3490095E+04  0.7818608E-02  0.8116141E-01
         -2   -1    0    0    0  501 -0.00000000000E+00  0.00000000000E+00  0.29918489040E+04  0.29918489040E+04  0.00000000000E+00 0. -1.
          2   -1    0    0  501    0  0.00000000000E+00 -0.00000000000E+00 -0.10178292906E+04  0.10178292906E+04  0.00000000000E+00 0.  1.
         23    2    1    2    0    0 -0.13582240625E+04 -0.10173057686E+04  0.14493974596E+04  0.22334709896E+04  0.89196606002E+02 0.  0.
         13    1    3    3    0    0 -0.51167681178E+03 -0.37017802733E+03  0.59482525847E+03  0.86756096025E+03  0.00000000000E+00 0. -1.
        -13    1    3    3    0    0 -0.84654725074E+03 -0.64712774129E+03  0.85457220108E+03  0.13659100293E+04  0.00000000000E+00 0.  1.
         22    1    1    2    0    0  0.13582240625E+04  0.10173057686E+04  0.52462215390E+03  0.17762072050E+04  0.00000000000E+00 0. -1.
<mgrwt>
<rscale>  0 0.34900954E+04</rscale>
<asrwt>0</asrwt>
<pdfrwt beam="1">  1        2 0.15658912E+00 0.34900954E+04</pdfrwt>
<pdfrwt beam="2">  1       -2 0.46028444E+00 0.34900954E+04</pdfrwt>
<totfact> 0.59832508E-02</totfact>
</mgrwt>
</event>
<event>
 6    1  0.1968648E-005  0.3153746E+04  0.7818608E-02  0.8201141E-01
         -2   -1    0    0    0  501 -0.00000000000E+00  0.00000000000E+00  0.90163042353E+03  0.90163042353E+03  0.00000000000E+00 0.  1.
          2   -1    0    0  501    0  0.00000000000E+00 -0.00000000000E+00 -0.27578133907E+04  0.27578133907E+04  0.00000000000E+00 0. -1.
         23    2    1    2    0    0  0.17285539112E+02 -0.60240066872E+03 -0.26180473668E+04  0.26880413646E+04  0.90603573864E+02 0.  0.
         11    1    3    3    0    0  0.15801878270E+01 -0.20684572133E+03 -0.71850100639E+03  0.74768398780E+03  0.00000000000E+00 0. -1.
        -11    1    3    3    0    0  0.15705351285E+02 -0.39555494738E+03 -0.18995463604E+04  0.19403573768E+04  0.00000000000E+00 0.  1.
         22    1    1    2    0    0 -0.17285539112E+02  0.60240066872E+03  0.76186439967E+03  0.97140244957E+03  0.00000000000E+00 0.  1.
<mgrwt>
<rscale>  0 0.31537460E+04</rscale>
<asrwt>0</asrwt>
<pdfrwt beam="1">  1        2 0.42427897E+00 0.31537460E+04</pdfrwt>
<pdfrwt beam="2">  1       -2 0.13871238E+00 0.31537460E+04</pdfrwt>
<totfact> 0.76216477E-01</totfact>
</mgrwt>
</event>
<event>
 6    1  0.1588846E-005  0.2287461E+04  0.7818608E-02  0.8482881E-01
         -1   -1    0    0    0  501 -0.00000000000E+00  0.00000000000E+00  0.97284603307E+03  0.97284603307E+03  0.00000000000E+00 0.  1.
          1   -1    0    0  501    0  0.00000000000E+00 -0.00000000000E+00 -0.13446316689E+04  0.13446316689E+04  0.00000000000E+00 0. -1.
         23    2    1    2    0    0  0.75162098494E+03  0.75875938312E+03  0.22315703273E+03  0.10949366248E+04  0.91854475253E+02 0.  0.
         11    1    3    3    0    0  0.58211141187E+03  0.55338612147E+03  0.19959493643E+03  0.82760379042E+03  0.00000000000E+00 0. -1.
        -11    1    3    3    0    0  0.16950957307E+03  0.20537326165E+03  0.23562096293E+02  0.26733283440E+03  0.00000000000E+00 0.  1.
         22    1    1    2    0    0 -0.75162098494E+03 -0.75875938312E+03 -0.59494266855E+03  0.12225410772E+04  0.00000000000E+00 0. -1.
<mgrwt>
<rscale>  0 0.22874611E+04</rscale>
<asrwt>0</asrwt>
<pdfrwt beam="1">  1        1 0.20686641E+00 0.22874611E+04</pdfrwt>
<pdfrwt beam="2">  1       -1 0.14966862E+00 0.22874611E+04</pdfrwt>
<totfact> 0.26701690E+00</totfact>
</mgrwt>
</event>
<event>
 6    1  0.1588846E-005  0.2970591E+04  0.7818608E-02  0.8252179E-01
         -2   -1    0    0    0  501 -0.00000000000E+00  0.00000000000E+00  0.67408970305E+03  0.67408970305E+03  0.00000000000E+00 0.  1.
          2   -1    0    0  501    0  0.00000000000E+00 -0.00000000000E+00 -0.32727132847E+04  0.32727132847E+04  0.00000000000E+00 0. -1.
         23    2    1    2    0    0  0.11156057130E+04 -0.20159380072E+03 -0.28372468880E+02  0.11376381741E+04  0.90550818953E+02 0.  0.
         11    1    3    3    0    0  0.20313177776E+03 -0.19644210812E+01 -0.10461840091E+02  0.20341049182E+03  0.00000000000E+00 0. -1.
        -11    1    3    3    0    0  0.91247393526E+03 -0.19962937964E+03 -0.17910628789E+02  0.93422768230E+03  0.00000000000E+00 0.  1.
         22    1    1    2    0    0 -0.11156057130E+04  0.20159380072E+03 -0.25702511127E+04  0.28091648136E+04  0.00000000000E+00 0. -1.
<mgrwt>
<rscale>  0 0.29705907E+04</rscale>
<asrwt>0</asrwt>
<pdfrwt beam="1">  1        2 0.50349435E+00 0.29705907E+04</pdfrwt>
<pdfrwt beam="2">  1       -2 0.10370611E+00 0.29705907E+04</pdfrwt>
<totfact> 0.75418352E-01</totfact>
</mgrwt>
</event>
<event>
 6    1  0.1588846E-005  0.2987157E+04  0.7818608E-02  0.8247408E-01
         -1   -1    0    0    0  501 -0.00000000000E+00  0.00000000000E+00  0.19507109708E+04  0.19507109708E+04  0.00000000000E+00 0.  1.
          1   -1    0    0  501    0  0.00000000000E+00 -0.00000000000E+00 -0.11435710843E+04  0.11435710843E+04  0.00000000000E+00 0. -1.
         23    2    1    2    0    0 -0.11565395501E+04 -0.47841783654E+03  0.12455748106E+04  0.17681249981E+04  0.91334784358E+02 0.  0.
         13    1    3    3    0    0 -0.50362939900E+03 -0.17102142020E+03  0.56976016752E+03  0.77943411921E+03  0.00000000000E+00 0. -1.
        -13    1    3    3    0    0 -0.65291015108E+03 -0.30739641634E+03  0.67581464313E+03  0.98869087890E+03  0.00000000000E+00 0.  1.
         22    1    1    2    0    0  0.11565395501E+04  0.47841783654E+03 -0.43843492409E+03  0.13261570570E+04  0.00000000000E+00 0. -1.
<mgrwt>
<rscale>  0 0.29871569E+04</rscale>
<asrwt>0</asrwt>
<pdfrwt beam="1">  1        1 0.17593401E+00 0.29871569E+04</pdfrwt>
<pdfrwt beam="2">  1       -1 0.30010938E+00 0.29871569E+04</pdfrwt>
<totfact> 0.33034169E-01</totfact>
</mgrwt>
</event>
<event>
 6    1  0.1588846E-005  0.3361865E+04  0.7818608E-02  0.8147330E-01
          1   -1    0    0  501    0  0.00000000000E+00  0.00000000000E+00  0.20307971086E+04  0.20307971086E+04  0.00000000000E+00 0. -1.
         -1   -1    0    0    0  501 -0.00000000000E+00 -0.00000000000E+00 -0.13913423965E+04  0.13913423965E+04  0.00000000000E+00 0.  1.
         23    2    1    2    0    0 -0.95171885941E+03 -0.13755719285E+04  0.16389415036E+03  0.16831384224E+04  0.90148424713E+02 0.  0.
         11    1    3    3    0    0 -0.13212716639E+03 -0.21563010451E+03  0.54158483144E+02  0.25862534943E+03  0.00000000000E+00 0.  1.
        -11    1    3    3    0    0 -0.81959169302E+03 -0.11599418240E+04  0.10973566722E+03  0.14245130729E+04  0.00000000000E+00 0. -1.
         22    1    1    2    0    0  0.95171885941E+03  0.13755719285E+04  0.47556056177E+03  0.17390010827E+04  0.00000000000E+00 0. -1.
<mgrwt>
<rscale>  0 0.33618650E+04</rscale>
<asrwt>0</asrwt>
<pdfrwt beam="1">  1        1 0.31243033E+00 0.33618650E+04</pdfrwt>
<pdfrwt beam="2">  1       -1 0.21405268E+00 0.33618650E+04</pdfrwt>
<totfact> 0.28287193E-01</totfact>
</mgrwt>
</event>
<event>
 6    1  0.1588846E-005  0.2205619E+04  0.7818608E-02  0.8516093E-01
          1   -1    0    0  501    0  0.00000000000E+00  0.00000000000E+00  0.11831347647E+04  0.11831347647E+04  0.00000000000E+00 0. -1.
         -1   -1    0    0    0  501 -0.00000000000E+00 -0.00000000000E+00 -0.10279375247E+04  0.10279375247E+04  0.00000000000E+00 0.  1.
         23    2    1    2    0    0  0.13229755982E+02 -0.38509578785E+03  0.11116462093E+04  0.11799232104E+04  0.89373908723E+02 0.  0.
         11    1    3    3    0    0 -0.19977323551E+02 -0.31923648467E+03  0.85433881513E+03  0.91225316532E+03  0.00000000000E+00 0. -1.
        -11    1    3    3    0    0  0.33207079532E+02 -0.65859303186E+02  0.25730739413E+03  0.26767004506E+03  0.00000000000E+00 0.  1.
         22    1    1    2    0    0 -0.13229755982E+02  0.38509578785E+03 -0.95644896933E+03  0.10311490790E+04  0.00000000000E+00 0.  1.
<mgrwt>
<rscale>  0 0.22056188E+04</rscale>
<asrwt>0</asrwt>
<pdfrwt beam="1">  1        1 0.18202073E+00 0.22056188E+04</pdfrwt>
<pdfrwt beam="2">  1       -1 0.15814423E+00 0.22056188E+04</pdfrwt>
<totfact> 0.30249568E+00</totfact>
</mgrwt>
</event>
<event>
 6    1  0.1588846E-005  0.3142567E+04  0.7818608E-02  0.8204152E-01
          3   -1    0    0  501    0  0.00000000000E+00  0.00000000000E+00  0.20577499544E+04  0.20577499544E+04  0.00000000000E+00 0. -1.
         -3   -1    0    0    0  501 -0.00000000000E+00 -0.00000000000E+00 -0.11998214148E+04  0.11998214148E+04  0.00000000000E+00 0.  1.
         23    2    1    2    0    0  0.82671393071E+03 -0.12179906543E+04 -0.13459940058E+03  0.14821646921E+04  0.10834213699E+03 0.  0.
         11    1    3    3    0    0  0.23252614528E+03 -0.33197952879E+03 -0.85477474921E+02  0.41422845688E+03  0.00000000000E+00 0. -1.
        -11    1    3    3    0    0  0.59418778544E+03 -0.88601112549E+03 -0.49121925657E+02  0.10679362352E+04  0.00000000000E+00 0.  1.
         22    1    1    2    0    0 -0.82671393071E+03  0.12179906543E+04  0.99252794016E+03  0.17754066771E+04  0.00000000000E+00 0. -1.
<mgrwt>
<rscale>  0 0.31425674E+04</rscale>
<asrwt>0</asrwt>
<pdfrwt beam="1">  1        3 0.31657692E+00 0.31425674E+04</pdfrwt>
<pdfrwt beam="2">  1       -3 0.18458791E+00 0.31425674E+04</pdfrwt>
<totfact> 0.12666003E-02</totfact>
</mgrwt>
</event>
<event>
 6    1  0.1588846E-005  0.3506842E+04  0.7818608E-02  0.8112170E-01
          1   -1    0    0  501    0  0.00000000000E+00  0.00000000000E+00  0.32919630443E+04  0.32919630443E+04  0.00000000000E+00 0. -1.
         -1   -1    0    0    0  501 -0.00000000000E+00 -0.00000000000E+00 -0.93393697608E+03  0.93393697608E+03  0.00000000000E+00 0.  1.
         23    2    1    2    0    0 -0.11416433333E+04  0.10154705958E+04  0.14619641482E+03  0.15376439970E+04  0.91900154301E+02 0.  0.
         13    1    3    3    0    0 -0.98455981087E+03  0.83104280441E+03  0.12548419058E+03  0.12945023932E+04  0.00000000000E+00 0.  1.
        -13    1    3    3    0    0 -0.15708352247E+03  0.18442779139E+03  0.20712224240E+02  0.24314160380E+03  0.00000000000E+00 0. -1.
         22    1    1    2    0    0  0.11416433333E+04 -0.10154705958E+04  0.22118296534E+04  0.26882560234E+04  0.00000000000E+00 0. -1.
<mgrwt>
<rscale>  0 0.35068425E+04</rscale>
<asrwt>0</asrwt>
<pdfrwt beam="1">  1        1 0.50645584E+00 0.35068425E+04</pdfrwt>
<pdfrwt beam="2">  1       -1 0.14368261E+00 0.35068425E+04</pdfrwt>
<totfact> 0.11546791E-01</totfact>
</mgrwt>
</event>
<event>
 6    1  0.1588846E-005  0.4125033E+04  0.7818608E-02  0.7979788E-01
         -2   -1    0    0    0  501 -0.00000000000E+00  0.00000000000E+00  0.21474510666E+04  0.21474510666E+04  0.00000000000E+00 0.  1.
          2   -1    0    0  501    0  0.00000000000E+00 -0.00000000000E+00 -0.19809415320E+04  0.19809415320E+04  0.00000000000E+00 0. -1.
         23    2    1    2    0    0 -0.16778098014E+04  0.63051370645E+03 -0.93593317254E+03  0.20241176199E+04  0.92130190764E+02 0.  0.
         11    1    3    3    0    0 -0.10549886417E+04  0.37838589585E+03 -0.63141673757E+03  0.12864151806E+04  0.00000000000E+00 0.  1.
        -11    1    3    3    0    0 -0.62282115962E+03  0.25212781060E+03 -0.30451643497E+03  0.73770243928E+03  0.00000000000E+00 0. -1.
         22    1    1    2    0    0  0.16778098014E+04 -0.63051370645E+03  0.11024427071E+04  0.21042749787E+04  0.00000000000E+00 0.  1.
<mgrwt>
<rscale>  0 0.41250333E+04</rscale>
<asrwt>0</asrwt>
<pdfrwt beam="1">  1        2 0.30476024E+00 0.41250333E+04</pdfrwt>
<pdfrwt beam="2">  1       -2 0.33037709E+00 0.41250333E+04</pdfrwt>
<totfact> 0.11038563E-01</totfact>
</mgrwt>
</event>
<event>
 6    1  0.1588846E-005  0.1199010E+04  0.7818608E-02  0.9113724E-01
          1   -1    0    0  501    0  0.00000000000E+00  0.00000000000E+00  0.17097103885E+04  0.17097103885E+04  0.00000000000E+00 0. -1.
         -1   -1    0    0    0  501 -0.00000000000E+00 -0.00000000000E+00 -0.21021460480E+03  0.21021460480E+03  0.00000000000E+00 0.  1.
         23    2    1    2    0    0 -0.48943417020E+03 -0.33023478902E+03  0.62415739825E+03  0.86407551923E+03  0.91941406907E+02 0.  0.
         13    1    3    3    0    0 -0.37261488555E+02 -0.12317215229E+02  0.76409744297E+02  0.85898669046E+02  0.00000000000E+00 0.  1.
        -13    1    3    3    0    0 -0.45217268164E+03 -0.31791757380E+03  0.54774765395E+03  0.77817685018E+03  0.00000000000E+00 0. -1.
         22    1    1    2    0    0  0.48943417020E+03  0.33023478902E+03  0.87533838542E+03  0.10558494740E+04  0.00000000000E+00 0. -1.
<mgrwt>
<rscale>  0 0.11990097E+04</rscale>
<asrwt>0</asrwt>
<pdfrwt beam="1">  1        1 0.26303236E+00 0.11990097E+04</pdfrwt>
<pdfrwt beam="2">  1       -1 0.32340710E-01 0.11990097E+04</pdfrwt>
<totfact> 0.41529187E+01</totfact>
</mgrwt>
</event>
<event>
 6    1  0.1588846E-005  0.2110906E+04  0.7818608E-02  0.8556455E-01
          2   -1    0    0  501    0  0.00000000000E+00  0.00000000000E+00  0.17436080423E+04  0.17436080423E+04  0.00000000000E+00 0. -1.
         -2   -1    0    0    0  501 -0.00000000000E+00 -0.00000000000E+00 -0.63889392400E+03  0.63889392400E+03  0.00000000000E+00 0.  1.
         23    2    1    2    0    0 -0.82346815340E+03  0.65668756272E+03  0.52953373491E+03  0.11824307900E+04  0.91641922852E+02 0.  0.
         13    1    3    3    0    0 -0.46189354223E+03  0.32692010219E+03  0.31995368673E+03  0.65007134933E+03  0.00000000000E+00 0.  1.
        -13    1    3    3    0    0 -0.36157461117E+03  0.32976746053E+03  0.20958004817E+03  0.53235944066E+03  0.00000000000E+00 0. -1.
         22    1    1    2    0    0  0.82346815340E+03 -0.65668756272E+03  0.57518038336E+03  0.12000711763E+04  0.00000000000E+00 0. -1.
<mgrwt>
<rscale>  0 0.21109056E+04</rscale>
<asrwt>0</asrwt>
<pdfrwt beam="1">  1        2 0.26824739E+00 0.21109056E+04</pdfrwt>
<pdfrwt beam="2">  1       -2 0.98291374E-01 0.21109056E+04</pdfrwt>
<totfact> 0.73467295E+00</totfact>
</mgrwt>
</event>
<event>
 6    1  0.1588846E-005  0.3341974E+04  0.7818608E-02  0.8152296E-01
         -2   -1    0    0    0  501 -0.00000000000E+00  0.00000000000E+00  0.19103332231E+04  0.19103332231E+04  0.00000000000E+00 0. -1.
          2   -1    0    0  501    0  0.00000000000E+00 -0.00000000000E+00 -0.14616288611E+04  0.14616288611E+04  0.00000000000E+00 0.  1.
         23    2    1    2    0    0  0.99126258724E+03  0.94274485081E+03  0.11905035527E+04  0.18158016137E+04  0.92018588700E+02 0.  0.
         11    1    3    3    0    0  0.25870807864E+03  0.19235290181E+03  0.27657248422E+03  0.42476093019E+03  0.00000000000E+00 0. -1.
        -11    1    3    3    0    0  0.73255450860E+03  0.75039194901E+03  0.91393106850E+03  0.13910406835E+04  0.00000000000E+00 0.  1.
         22    1    1    2    0    0 -0.99126258724E+03 -0.94274485081E+03 -0.74179919070E+03  0.15561604705E+04  0.00000000000E+00 0.  1.
<mgrwt>
<rscale>  0 0.33419744E+04</rscale>
<asrwt>0</asrwt>
<pdfrwt beam="1">  1        2 0.22486598E+00 0.33419744E+04</pdfrwt>
<pdfrwt beam="2">  1       -2 0.29389742E+00 0.33419744E+04</pdfrwt>
<totfact> 0.38472061E-01</totfact>
</mgrwt>
</event>
<event>
 6    1  0.1922321E-005  0.3278089E+04  0.7818608E-02  0.8168493E-01
         -2   -1    0    0    0  501 -0.00000000000E+00  0.00000000000E+00  0.92448786405E+03  0.92448786405E+03  0.00000000000E+00 0.  1.
          2   -1    0    0  501    0  0.00000000000E+00 -0.00000000000E+00 -0.29058966296E+04  0.29058966296E+04  0.00000000000E+00 0. -1.
         23    2    1    2    0    0  0.15487883772E+04  0.12951030382E+03 -0.15950429677E+04  0.22288861684E+04  0.90846721033E+02 0.  0.
         13    1    3    3    0    0  0.71822639073E+03  0.26387915353E+02 -0.78055850451E+03  0.10610452626E+04  0.00000000000E+00 0.  1.
        -13    1    3    3    0    0  0.83056198646E+03  0.10312238847E+03 -0.81448446315E+03  0.11678409057E+04  0.00000000000E+00 0. -1.
         22    1    1    2    0    0 -0.15487883772E+04 -0.12951030382E+03 -0.38636579791E+03  0.16014983253E+04  0.00000000000E+00 0.  1.
<mgrwt>
<rscale>  0 0.32780886E+04</rscale>
<asrwt>0</asrwt>
<pdfrwt beam="1">  1        2 0.44706101E+00 0.32780886E+04</pdfrwt>
<pdfrwt beam="2">  1       -2 0.14222891E+00 0.32780886E+04</pdfrwt>
<totfact> 0.57420757E-01</totfact>
</mgrwt>
</event>
<event>
 6    1  0.1588846E-005  0.1936593E+04  0.7818608E-02  0.8636853E-01
         -2   -1    0    0    0  501 -0.00000000000E+00  0.00000000000E+00  0.39032422915E+03  0.39032422915E+03  0.00000000000E+00 0. -1.
          2   -1    0    0  501    0  0.00000000000E+00 -0.00000000000E+00 -0.24021018385E+04  0.24021018385E+04  0.00000000000E+00 0.  1.
         23    2    1    2    0    0  0.23839909273E+03 -0.36742941763E+03  0.23174876527E+03  0.50654569064E+03  0.10508350082E+03 0.  0.
         11    1    3    3    0    0  0.92140732743E+02 -0.13951777973E+03  0.32472101650E+02  0.17032193892E+03  0.00000000000E+00 0. -1.
        -11    1    3    3    0    0  0.14625835999E+03 -0.22791163790E+03  0.19927666362E+03  0.33622375173E+03  0.00000000000E+00 0.  1.
         22    1    1    2    0    0 -0.23839909273E+03  0.36742941763E+03 -0.22435263747E+04  0.22858803771E+04  0.00000000000E+00 0.  1.
<mgrwt>
<rscale>  0 0.19365935E+04</rscale>
<asrwt>0</asrwt>
<pdfrwt beam="1">  1        2 0.36955413E+00 0.19365935E+04</pdfrwt>
<pdfrwt beam="2">  1       -2 0.60049882E-01 0.19365935E+04</pdfrwt>
<totfact> 0.95758673E+00</totfact>
</mgrwt>
</event>
<event>
 6    1  0.1588846E-005  0.2598750E+04  0.7818608E-02  0.8368626E-01
         -2   -1    0    0    0  501 -0.00000000000E+00  0.00000000000E+00  0.63384474319E+03  0.63384474319E+03  0.00000000000E+00 0.  1.
          2   -1    0    0  501    0  0.00000000000E+00 -0.00000000000E+00 -0.26637046450E+04  0.26637046450E+04  0.00000000000E+00 0. -1.
         23    2    1    2    0    0  0.11516727751E+04  0.51739107224E+03 -0.13973178517E+04  0.18854045133E+04  0.90605173098E+02 0.  0.
         13    1    3    3    0    0  0.44049885257E+03  0.18383157491E+03 -0.46635542685E+03  0.66732351315E+03  0.00000000000E+00 0.  1.
        -13    1    3    3    0    0  0.71117392255E+03  0.33355949732E+03 -0.93096242483E+03  0.12180810001E+04  0.00000000000E+00 0. -1.
         22    1    1    2    0    0 -0.11516727751E+04 -0.51739107224E+03 -0.63254205011E+03  0.14121448749E+04  0.00000000000E+00 0. -1.
<mgrwt>
<rscale>  0 0.25987498E+04</rscale>
<asrwt>0</asrwt>
<pdfrwt beam="1">  1        2 0.40980072E+00 0.25987498E+04</pdfrwt>
<pdfrwt beam="2">  1       -2 0.97514576E-01 0.25987498E+04</pdfrwt>
<totfact> 0.21637160E+00</totfact>
</mgrwt>
</event>
<event>
 6    1  0.1588846E-005  0.2064650E+04  0.7818608E-02  0.8576977E-01
         -2   -1    0    0    0  501 -0.00000000000E+00  0.00000000000E+00  0.36997590305E+03  0.36997590305E+03  0.00000000000E+00 0. -1.
          2   -1    0    0  501    0  0.00000000000E+00 -0.00000000000E+00 -0.28804430409E+04  0.28804430409E+04  0.00000000000E+00 0.  1.
         23    2    1    2    0    0 -0.56641186650E+03  0.60316302433E+03 -0.29139369523E+03  0.88210414642E+03  0.92571070484E+02 0.  0.
         11    1    3    3    0    0 -0.33424616499E+03  0.30158667838E+03 -0.18673362598E+03  0.48738534083E+03  0.00000000000E+00 0. -1.
        -11    1    3    3    0    0 -0.23216570151E+03  0.30157634595E+03 -0.10466006925E+03  0.39471880559E+03  0.00000000000E+00 0.  1.
         22    1    1    2    0    0  0.56641186650E+03 -0.60316302433E+03 -0.22190734427E+04  0.23683147976E+04  0.00000000000E+00 0.  1.
<mgrwt>
<rscale>  0 0.20646496E+04</rscale>
<asrwt>0</asrwt>
<pdfrwt beam="1">  1        2 0.44314509E+00 0.20646496E+04</pdfrwt>
<pdfrwt beam="2">  1       -2 0.56919368E-01 0.20646496E+04</pdfrwt>
<totfact> 0.55327420E+00</totfact>
</mgrwt>
</event>
<event>
 6    1  0.1588846E-005  0.2295247E+04  0.7818608E-02  0.8479798E-01
         -2   -1    0    0    0  501 -0.00000000000E+00  0.00000000000E+00  0.89942156631E+03  0.89942156631E+03  0.00000000000E+00 0.  1.
          2   -1    0    0  501    0  0.00000000000E+00 -0.00000000000E+00 -0.14643184733E+04  0.14643184733E+04  0.00000000000E+00 0. -1.
         23    2    1    2    0    0 -0.34690207456E+03  0.55445693050E+03 -0.12517527527E+04  0.14153021188E+04  0.91823724449E+02 0.  0.
         13    1    3    3    0    0 -0.12488765985E+03  0.20732987286E+03 -0.56097737250E+03  0.61096498772E+03  0.00000000000E+00 0.  1.
        -13    1    3    3    0    0 -0.22201441471E+03  0.34712705764E+03 -0.69077538019E+03  0.80433713103E+03  0.00000000000E+00 0. -1.
         22    1    1    2    0    0  0.34690207456E+03 -0.55445693050E+03  0.68685584565E+03  0.94843792091E+03  0.00000000000E+00 0.  1.
<mgrwt>
<rscale>  0 0.22952469E+04</rscale>
<asrwt>0</asrwt>
<pdfrwt beam="1">  1        2 0.22527976E+00 0.22952469E+04</pdfrwt>
<pdfrwt beam="2">  1       -2 0.13837255E+00 0.22952469E+04</pdfrwt>
<totfact> 0.44663030E+00</totfact>
</mgrwt>
</event>
<event>
 6    1  0.1588846E-005  0.9266191E+03  0.7818608E-02  0.9392905E-01
          2   -1    0    0  501    0  0.00000000000E+00  0.00000000000E+00  0.61540565943E+03  0.61540565943E+03  0.00000000000E+00 0. -1.
         -2   -1    0    0    0  501 -0.00000000000E+00 -0.00000000000E+00 -0.34880365728E+03  0.34880365728E+03  0.00000000000E+00 0.  1.
         23    2    1    2    0    0 -0.29282956776E+02  0.18593195201E+03  0.57018740670E+03  0.60700870055E+03  0.88981466848E+02 0.  0.
         11    1    3    3    0    0 -0.91606180644E+01  0.17874314687E+03  0.43883333786E+03  0.47392797754E+03  0.00000000000E+00 0. -1.
        -11    1    3    3    0    0 -0.20122338712E+02  0.71888051335E+01  0.13135406885E+03  0.13308072301E+03  0.00000000000E+00 0.  1.
         22    1    1    2    0    0  0.29282956776E+02 -0.18593195201E+03 -0.30358540455E+03  0.35720061616E+03  0.00000000000E+00 0.  1.
<mgrwt>
<rscale>  0 0.92661911E+03</rscale>
<asrwt>0</asrwt>
<pdfrwt beam="1">  1        2 0.94677794E-01 0.92661911E+03</pdfrwt>
<pdfrwt beam="2">  1       -2 0.53662101E-01 0.92661911E+03</pdfrwt>
<totfact> 0.15772839E+02</totfact>
</mgrwt>
</event>
<event>
 6    1  0.1588846E-005  0.2618081E+04  0.7818608E-02  0.8362085E-01
          2   -1    0    0  501    0  0.00000000000E+00  0.00000000000E+00  0.34992916254E+04  0.34992916254E+04  0.00000000000E+00 0. -1.
         -2   -1    0    0    0  501 -0.00000000000E+00 -0.00000000000E+00 -0.48969535841E+03  0.48969535841E+03  0.00000000000E+00 0.  1.
         23    2    1    2    0    0  0.79159031778E+03  0.25971583208E+03  0.30419445775E+04  0.31552520392E+04  0.90116998154E+02 0.  0.
         11    1    3    3    0    0  0.47882723506E+02  0.13499991491E+02  0.27856146965E+03  0.28296907491E+03  0.00000000000E+00 0. -1.
        -11    1    3    3    0    0  0.74370759428E+03  0.24621584059E+03  0.27633831079E+04  0.28722829643E+04  0.00000000000E+00 0.  1.
         22    1    1    2    0    0 -0.79159031778E+03 -0.25971583208E+03 -0.32348310571E+02  0.83373494459E+03  0.00000000000E+00 0.  1.
<mgrwt>
<rscale>  0 0.26180809E+04</rscale>
<asrwt>0</asrwt>
<pdfrwt beam="1">  1        2 0.53835254E+00 0.26180809E+04</pdfrwt>
<pdfrwt beam="2">  1       -2 0.75337750E-01 0.26180809E+04</pdfrwt>
<totfact> 0.11372119E+00</totfact>
</mgrwt>
</event>
<event>
 6    1  0.1588846E-005  0.2905426E+04  0.7818608E-02  0.8271265E-01
          2   -1    0    0  501    0  0.00000000000E+00  0.00000000000E+00  0.13331604456E+04  0.13331604456E+04  0.00000000000E+00 0. -1.
         -2   -1    0    0    0  501 -0.00000000000E+00 -0.00000000000E+00 -0.15829870165E+04  0.15829870165E+04  0.00000000000E+00 0.  1.
         23    2    1    2    0    0 -0.27195729504E+03 -0.12616463171E+04 -0.79117358449E+03  0.15165872494E+04  0.91482481735E+02 0.  0.
         11    1    3    3    0    0 -0.33818689405E+02 -0.10343687913E+03 -0.94815276515E+02  0.14433581807E+03  0.00000000000E+00 0. -1.
        -11    1    3    3    0    0 -0.23813860564E+03 -0.11582094380E+04 -0.69635830798E+03  0.13722514314E+04  0.00000000000E+00 0.  1.
         22    1    1    2    0    0  0.27195729504E+03  0.12616463171E+04  0.54134701353E+03  0.13995602127E+04  0.00000000000E+00 0. -1.
<mgrwt>
<rscale>  0 0.29054264E+04</rscale>
<asrwt>0</asrwt>
<pdfrwt beam="1">  1        2 0.20510161E+00 0.29054264E+04</pdfrwt>
<pdfrwt beam="2">  1       -2 0.24353646E+00 0.29054264E+04</pdfrwt>
<totfact> 0.96087804E-01</totfact>
</mgrwt>
</event>
<event>
 6    1  0.1588846E-005  0.1214636E+04  0.7818608E-02  0.9100141E-01
         -2   -1    0    0    0  501 -0.00000000000E+00  0.00000000000E+00  0.24436543772E+03  0.24436543772E+03  0.00000000000E+00 0.  1.
          2   -1    0    0  501    0  0.00000000000E+00 -0.00000000000E+00 -0.15093584451E+04  0.15093584451E+04  0.00000000000E+00 0. -1.
         23    2    1    2    0    0  0.16903873514E+03 -0.23578010443E+03 -0.14008067298E+04  0.14333932430E+04  0.90500513818E+02 0.  0.
         11    1    3    3    0    0  0.99987767847E+02 -0.11219382681E+03 -0.51995078586E+03  0.54123361703E+03  0.00000000000E+00 0. -1.
        -11    1    3    3    0    0  0.69050967289E+02 -0.12358627762E+03 -0.88085594397E+03  0.89215962592E+03  0.00000000000E+00 0.  1.
         22    1    1    2    0    0 -0.16903873514E+03  0.23578010443E+03  0.13581372246E+03  0.32033063985E+03  0.00000000000E+00 0.  1.
<mgrwt>
<rscale>  0 0.12146358E+04</rscale>
<asrwt>0</asrwt>
<pdfrwt beam="1">  1        2 0.23220900E+00 0.12146358E+04</pdfrwt>
<pdfrwt beam="2">  1       -2 0.37594682E-01 0.12146358E+04</pdfrwt>
<totfact> 0.82466931E+01</totfact>
</mgrwt>
</event>
<event>
 6    1  0.1588846E-005  0.2129202E+04  0.7818608E-02  0.8548488E-01
          2   -1    0    0  501    0  0.00000000000E+00  0.00000000000E+00  0.26845081256E+04  0.26845081256E+04  0.00000000000E+00 0. -1.
         -2   -1    0    0    0  501 -0.00000000000E+00 -0.00000000000E+00 -0.42219101386E+03  0.42219101386E+03  0.00000000000E+00 0.  1.
         23    2    1    2    0    0  0.32674469395E+03  0.58937909421E+03 -0.65904877957E+02  0.68291130943E+03  0.88851515967E+02 0.  0.
         11    1    3    3    0    0  0.29604867835E+03  0.51051317307E+03 -0.29777551562E+02  0.59089357959E+03  0.00000000000E+00 0.  1.
        -11    1    3    3    0    0  0.30696015601E+02  0.78865921142E+02 -0.36127326395E+02  0.92017729835E+02  0.00000000000E+00 0. -1.
         22    1    1    2    0    0 -0.32674469395E+03 -0.58937909421E+03  0.23282219897E+04  0.24237878301E+04  0.00000000000E+00 0. -1.
<mgrwt>
<rscale>  0 0.21292019E+04</rscale>
<asrwt>0</asrwt>
<pdfrwt beam="1">  1        2 0.41300124E+00 0.21292019E+04</pdfrwt>
<pdfrwt beam="2">  1       -2 0.64952465E-01 0.21292019E+04</pdfrwt>
<totfact> 0.54562427E+00</totfact>
</mgrwt>
</event>
<event>
 6    1  0.1588846E-005  0.1759986E+04  0.7818608E-02  0.8727872E-01
          2   -1    0    0  501    0  0.00000000000E+00  0.00000000000E+00  0.41776320868E+04  0.41776320868E+04  0.00000000000E+00 0. -1.
         -2   -1    0    0    0  501 -0.00000000000E+00 -0.00000000000E+00 -0.18536530925E+03  0.18536530925E+03  0.00000000000E+00 0.  1.
         23    2    1    2    0    0  0.59090575456E+02  0.15945996701E+03  0.41359040406E+04  0.41403972152E+04  0.90926835936E+02 0.  0.
         11    1    3    3    0    0 -0.93664940732E+01  0.10337257557E+03  0.23863387403E+04  0.23885950272E+04  0.00000000000E+00 0.  1.
        -11    1    3    3    0    0  0.68457069530E+02  0.56087391440E+02  0.17495653003E+04  0.17518021880E+04  0.00000000000E+00 0. -1.
         22    1    1    2    0    0 -0.59090575456E+02 -0.15945996701E+03 -0.14363726303E+03  0.22260018085E+03  0.00000000000E+00 0.  1.
<mgrwt>
<rscale>  0 0.17599864E+04</rscale>
<asrwt>0</asrwt>
<pdfrwt beam="1">  1        2 0.64271256E+00 0.17599864E+04</pdfrwt>
<pdfrwt beam="2">  1       -2 0.28517743E-01 0.17599864E+04</pdfrwt>
<totfact> 0.26429660E+00</totfact>
</mgrwt>
</event>
<event>
 6    1  0.1588846E-005  0.1967834E+04  0.7818608E-02  0.8621809E-01
          2   -1    0    0  501    0  0.00000000000E+00  0.00000000000E+00  0.15488431598E+04  0.15488431598E+04  0.00000000000E+00 0. -1.
         -2   -1    0    0    0  501 -0.00000000000E+00 -0.00000000000E+00 -0.62504212278E+03  0.62504212278E+03  0.00000000000E+00 0.  1.
         23    2    1    2    0    0 -0.23684506982E+03  0.95237839011E+03  0.42891220222E+03  0.10747787619E+04  0.89797130699E+02 0.  0.
         11    1    3    3    0    0 -0.17658120167E+03  0.57532587029E+03  0.23029512080E+03  0.64437304450E+03  0.00000000000E+00 0.  1.
        -11    1    3    3    0    0 -0.60263868154E+02  0.37705251982E+03  0.19861708142E+03  0.43040571737E+03  0.00000000000E+00 0. -1.
         22    1    1    2    0    0  0.23684506982E+03 -0.95237839011E+03  0.49488883476E+03  0.10991065207E+04  0.00000000000E+00 0.  1.
<mgrwt>
<rscale>  0 0.19678335E+04</rscale>
<asrwt>0</asrwt>
<pdfrwt beam="1">  1        2 0.23828356E+00 0.19678335E+04</pdfrwt>
<pdfrwt beam="2">  1       -2 0.96160327E-01 0.19678335E+04</pdfrwt>
<totfact> 0.10053745E+01</totfact>
</mgrwt>
</event>
<event>
 6    1  0.1588846E-005  0.1966965E+04  0.7818608E-02  0.8622223E-01
          2   -1    0    0  501    0  0.00000000000E+00  0.00000000000E+00  0.15118530525E+04  0.15118530525E+04  0.00000000000E+00 0. -1.
         -2   -1    0    0    0  501 -0.00000000000E+00 -0.00000000000E+00 -0.63976994933E+03  0.63976994933E+03  0.00000000000E+00 0.  1.
         23    2    1    2    0    0  0.63294691675E+02  0.77381808749E+03 -0.21969206303E+03  0.81193137162E+03  0.90373110774E+02 0.  0.
         13    1    3    3    0    0  0.24572789360E+02  0.46008488787E+03 -0.85946350598E+02  0.46868827722E+03  0.00000000000E+00 0.  1.
        -13    1    3    3    0    0  0.38721902316E+02  0.31373319962E+03 -0.13374571243E+03  0.34324309440E+03  0.00000000000E+00 0. -1.
         22    1    1    2    0    0 -0.63294691675E+02 -0.77381808749E+03  0.10917751662E+04  0.13396916302E+04  0.00000000000E+00 0. -1.
<mgrwt>
<rscale>  0 0.19669653E+04</rscale>
<asrwt>0</asrwt>
<pdfrwt beam="1">  1        2 0.23259278E+00 0.19669653E+04</pdfrwt>
<pdfrwt beam="2">  1       -2 0.98426146E-01 0.19669653E+04</pdfrwt>
<totfact> 0.99865369E+00</totfact>
</mgrwt>
</event>
<event>
 6    1  0.1588846E-005  0.5501629E+04  0.7818608E-02  0.7755465E-01
         -2   -1    0    0    0  501 -0.00000000000E+00  0.00000000000E+00  0.24053292255E+04  0.24053292255E+04  0.00000000000E+00 0.  1.
          2   -1    0    0  501    0  0.00000000000E+00 -0.00000000000E+00 -0.31459232852E+04  0.31459232852E+04  0.00000000000E+00 0. -1.
         23    2    1    2    0    0 -0.10957340938E+04 -0.24938802745E+04  0.10905816173E+02  0.27255094064E+04  0.90612138249E+02 0.  0.
         13    1    3    3    0    0 -0.47681200760E+03 -0.11327447977E+04 -0.35915852500E+02  0.12295326006E+04  0.00000000000E+00 0. -1.
        -13    1    3    3    0    0 -0.61892208615E+03 -0.13611354768E+04  0.46821668673E+02  0.14959768058E+04  0.00000000000E+00 0.  1.
         22    1    1    2    0    0  0.10957340938E+04  0.24938802745E+04 -0.75149987593E+03  0.28257431043E+04  0.00000000000E+00 0. -1.
<mgrwt>
<rscale>  0 0.55016293E+04</rscale>
<asrwt>0</asrwt>
<pdfrwt beam="1">  1        2 0.48398820E+00 0.55016293E+04</pdfrwt>
<pdfrwt beam="2">  1       -2 0.37005065E+00 0.55016293E+04</pdfrwt>
<totfact> 0.11407955E-02</totfact>
</mgrwt>
</event>
<event>
 6    1  0.1588846E-005  0.5509822E+03  0.7818608E-02  0.1001267E+00
          2   -1    0    0  501    0  0.00000000000E+00  0.00000000000E+00  0.24487120149E+04  0.24487120149E+04  0.00000000000E+00 0.  1.
         -2   -1    0    0    0  501 -0.00000000000E+00 -0.00000000000E+00 -0.30993984621E+02  0.30993984621E+02  0.00000000000E+00 0. -1.
         23    2    1    2    0    0  0.25971036798E+03  0.16439433475E+02  0.15289822525E+04  0.15536546980E+04  0.91304228663E+02 0.  0.
         13    1    3    3    0    0  0.19272298639E+03  0.38255490644E+02  0.92902101234E+03  0.94957131034E+03  0.00000000000E+00 0.  1.
        -13    1    3    3    0    0  0.66987381594E+02 -0.21816057169E+02  0.59996124012E+03  0.60408338770E+03  0.00000000000E+00 0. -1.
         22    1    1    2    0    0 -0.25971036798E+03 -0.16439433475E+02  0.88873577780E+03  0.92605130147E+03  0.00000000000E+00 0. -1.
<mgrwt>
<rscale>  0 0.55098219E+03</rscale>
<asrwt>0</asrwt>
<pdfrwt beam="1">  1        2 0.37672477E+00 0.55098219E+03</pdfrwt>
<pdfrwt beam="2">  1       -2 0.47683073E-02 0.55098219E+03</pdfrwt>
<totfact> 0.87199035E+02</totfact>
</mgrwt>
</event>
<event>
 6    1  0.1588846E-005  0.2359430E+04  0.7818608E-02  0.8454851E-01
         -1   -1    0    0    0  501 -0.00000000000E+00  0.00000000000E+00  0.72168714636E+03  0.72168714636E+03  0.00000000000E+00 0.  1.
          1   -1    0    0  501    0  0.00000000000E+00 -0.00000000000E+00 -0.19284356336E+04  0.19284356336E+04  0.00000000000E+00 0. -1.
         23    2    1    2    0    0 -0.63419977536E+03  0.10279004594E+03  0.50475671497E+03  0.82200210401E+03  0.90182975547E+02 0.  0.
         11    1    3    3    0    0 -0.77368390834E+02  0.38743250625E+02  0.47925211026E+02  0.98912755603E+02  0.00000000000E+00 0. -1.
        -11    1    3    3    0    0 -0.55683138453E+03  0.64046795320E+02  0.45683150394E+03  0.72308934841E+03  0.00000000000E+00 0.  1.
         22    1    1    2    0    0  0.63419977536E+03 -0.10279004594E+03 -0.17115052022E+04  0.18281206760E+04  0.00000000000E+00 0. -1.
<mgrwt>
<rscale>  0 0.23594298E+04</rscale>
<asrwt>0</asrwt>
<pdfrwt beam="1">  1        1 0.29668240E+00 0.23594298E+04</pdfrwt>
<pdfrwt beam="2">  1       -1 0.11102879E+00 0.23594298E+04</pdfrwt>
<totfact> 0.22368913E+00</totfact>
</mgrwt>
</event>
<event>
 6    1  0.1588846E-005  0.3007898E+04  0.7818608E-02  0.8241479E-01
          2   -1    0    0  501    0  0.00000000000E+00  0.00000000000E+00  0.24386255179E+04  0.24386255179E+04  0.00000000000E+00 0. -1.
         -2   -1    0    0    0  501 -0.00000000000E+00 -0.00000000000E+00 -0.92751521219E+03  0.92751521219E+03  0.00000000000E+00 0.  1.
         23    2    1    2    0    0 -0.12414924888E+04 -0.84614139560E+03  0.73176366785E+03  0.16736159760E+04  0.90848822216E+02 0.  0.
         11    1    3    3    0    0 -0.11284415442E+04 -0.77975347594E+03  0.69381242819E+03  0.15371309272E+04  0.00000000000E+00 0. -1.
        -11    1    3    3    0    0 -0.11305094463E+03 -0.66387919658E+02  0.37951239662E+02  0.13648504881E+03  0.00000000000E+00 0.  1.
         22    1    1    2    0    0  0.12414924888E+04  0.84614139560E+03  0.77934663786E+03  0.16925247541E+04  0.00000000000E+00 0.  1.
<mgrwt>
<rscale>  0 0.30078978E+04</rscale>
<asrwt>0</asrwt>
<pdfrwt beam="1">  1        2 0.37517315E+00 0.30078978E+04</pdfrwt>
<pdfrwt beam="2">  1       -2 0.14269465E+00 0.30078978E+04</pdfrwt>
<totfact> 0.11041125E+00</totfact>
</mgrwt>
</event>
<event>
 6    1  0.1588846E-005  0.1047693E+04  0.7818608E-02  0.9257729E-01
          2   -1    0    0  501    0  0.00000000000E+00  0.00000000000E+00  0.28641522070E+04  0.28641522070E+04  0.00000000000E+00 0. -1.
         -2   -1    0    0    0  501 -0.00000000000E+00 -0.00000000000E+00 -0.95810319716E+02  0.95810319716E+02  0.00000000000E+00 0.  1.
         23    2    1    2    0    0 -0.35927656979E+03 -0.17607569714E+03  0.23323984925E+04  0.23682455773E+04  0.91771902558E+02 0.  0.
         13    1    3    3    0    0 -0.19676199676E+03 -0.98991091069E+02  0.10149416225E+04  0.10385668089E+04  0.00000000000E+00 0.  1.
        -13    1    3    3    0    0 -0.16251457303E+03 -0.77084606068E+02  0.13174568700E+04  0.13296787684E+04  0.00000000000E+00 0. -1.
         22    1    1    2    0    0  0.35927656979E+03  0.17607569714E+03  0.43594339482E+03  0.59171694940E+03  0.00000000000E+00 0.  1.
<mgrwt>
<rscale>  0 0.10476933E+04</rscale>
<asrwt>0</asrwt>
<pdfrwt beam="1">  1        2 0.44063874E+00 0.10476933E+04</pdfrwt>
<pdfrwt beam="2">  1       -2 0.14740051E-01 0.10476933E+04</pdfrwt>
<totfact> 0.77522274E+01</totfact>
</mgrwt>
</event>
<event>
 6    1  0.1588846E-005  0.1001845E+04  0.7818608E-02  0.9306524E-01
          1   -1    0    0  501    0  0.00000000000E+00  0.00000000000E+00  0.10064828010E+04  0.10064828010E+04  0.00000000000E+00 0. -1.
         -1   -1    0    0    0  501 -0.00000000000E+00 -0.00000000000E+00 -0.24930704739E+03  0.24930704739E+03  0.00000000000E+00 0.  1.
         23    2    1    2    0    0 -0.32760109451E+03  0.34915069878E+03  0.21540762425E+03  0.53278127751E+03  0.90701474610E+02 0.  0.
         11    1    3    3    0    0 -0.51173765779E+02  0.16007879821E+02  0.14537398290E+02  0.55554859998E+02  0.00000000000E+00 0.  1.
        -11    1    3    3    0    0 -0.27642732873E+03  0.33314281896E+03  0.20087022596E+03  0.47722641751E+03  0.00000000000E+00 0. -1.
         22    1    1    2    0    0  0.32760109451E+03 -0.34915069878E+03  0.54176812936E+03  0.72300857089E+03  0.00000000000E+00 0. -1.
<mgrwt>
<rscale>  0 0.10018448E+04</rscale>
<asrwt>0</asrwt>
<pdfrwt beam="1">  1        1 0.15484351E+00 0.10018448E+04</pdfrwt>
<pdfrwt beam="2">  1       -1 0.38354931E-01 0.10018448E+04</pdfrwt>
<totfact> 0.98500870E+01</totfact>
</mgrwt>
</event>
<event>
 6    1  0.1588846E-005  0.1039659E+04  0.7818608E-02  0.9266086E-01
          1   -1    0    0  501    0  0.00000000000E+00  0.00000000000E+00  0.54957279995E+03  0.54957279995E+03  0.00000000000E+00 0. -1.
         -1   -1    0    0    0  501 -0.00000000000E+00 -0.00000000000E+00 -0.49169586917E+03  0.49169586917E+03  0.00000000000E+00 0.  1.
         23    2    1    2    0    0 -0.34187792244E+03 -0.11304135023E+03 -0.34000890110E+03  0.50463844642E+03  0.96928056115E+02 0.  0.
         11    1    3    3    0    0 -0.15452609922E+03 -0.10066732532E+03 -0.18410650727E+03  0.26059054424E+03  0.00000000000E+00 0.  1.
        -11    1    3    3    0    0 -0.18735182322E+03 -0.12374024910E+02 -0.15590239382E+03  0.24404790218E+03  0.00000000000E+00 0. -1.
         22    1    1    2    0    0  0.34187792244E+03  0.11304135023E+03  0.39788583187E+03  0.53663022270E+03  0.00000000000E+00 0. -1.
<mgrwt>
<rscale>  0 0.10396589E+04</rscale>
<asrwt>0</asrwt>
<pdfrwt beam="1">  1        1 0.84549662E-01 0.10396589E+04</pdfrwt>
<pdfrwt beam="2">  1       -1 0.75645518E-01 0.10396589E+04</pdfrwt>
<totfact> 0.68248469E+01</totfact>
</mgrwt>
</event>
<event>
 6    1  0.1588846E-005  0.1959096E+04  0.7818608E-02  0.8625987E-01
          1   -1    0    0  501    0  0.00000000000E+00  0.00000000000E+00  0.24403987161E+04  0.24403987161E+04  0.00000000000E+00 0. -1.
         -1   -1    0    0    0  501 -0.00000000000E+00 -0.00000000000E+00 -0.39317950845E+03  0.39317950845E+03  0.00000000000E+00 0.  1.
         23    2    1    2    0    0  0.36486936224E+03 -0.17044175157E+03 -0.26227372591E+03  0.48923660006E+03  0.91569106984E+02 0.  0.
         13    1    3    3    0    0  0.18094318715E+03 -0.13284888321E+03 -0.15785388248E+03  0.27442141127E+03  0.00000000000E+00 0. -1.
        -13    1    3    3    0    0  0.18392617509E+03 -0.37592868360E+02 -0.10441984343E+03  0.21481518879E+03  0.00000000000E+00 0.  1.
         22    1    1    2    0    0 -0.36486936224E+03  0.17044175157E+03  0.23094929336E+04  0.23443416245E+04  0.00000000000E+00 0. -1.
<mgrwt>
<rscale>  0 0.19590965E+04</rscale>
<asrwt>0</asrwt>
<pdfrwt beam="1">  1        1 0.37544595E+00 0.19590965E+04</pdfrwt>
<pdfrwt beam="2">  1       -1 0.60489157E-01 0.19590965E+04</pdfrwt>
<totfact> 0.38457286E+00</totfact>
</mgrwt>
</event>
<event>
 6    1  0.1588846E-005  0.1364435E+04  0.7818608E-02  0.8979972E-01
         -1   -1    0    0    0  501 -0.00000000000E+00  0.00000000000E+00  0.52205410236E+03  0.52205410236E+03  0.00000000000E+00 0.  1.
          1   -1    0    0  501    0  0.00000000000E+00 -0.00000000000E+00 -0.89151820462E+03  0.89151820462E+03  0.00000000000E+00 0. -1.
         23    2    1    2    0    0  0.41685300630E+02 -0.59583025251E+03 -0.52038723948E+03  0.79751293691E+03  0.92047006608E+02 0.  0.
         13    1    3    3    0    0 -0.54050679129E+01 -0.34176635449E+02 -0.62077409326E+02  0.71069416196E+02  0.00000000000E+00 0. -1.
        -13    1    3    3    0    0  0.47090368543E+02 -0.56165361707E+03 -0.45830983015E+03  0.72644352071E+03  0.00000000000E+00 0.  1.
         22    1    1    2    0    0 -0.41685300630E+02  0.59583025251E+03  0.15092313721E+03  0.61605937007E+03  0.00000000000E+00 0. -1.
<mgrwt>
<rscale>  0 0.13644350E+04</rscale>
<asrwt>0</asrwt>
<pdfrwt beam="1">  1        1 0.13715664E+00 0.13644350E+04</pdfrwt>
<pdfrwt beam="2">  1       -1 0.80316017E-01 0.13644350E+04</pdfrwt>
<totfact> 0.27975920E+01</totfact>
</mgrwt>
</event>
<event>
 6    1  0.1588846E-005  0.6019923E+04  0.7818608E-02  0.7687936E-01
          1   -1    0    0  501    0  0.00000000000E+00  0.00000000000E+00  0.46491713585E+04  0.46491713585E+04  0.00000000000E+00 0. -1.
         -1   -1    0    0    0  501 -0.00000000000E+00 -0.00000000000E+00 -0.19487061016E+04  0.19487061016E+04  0.00000000000E+00 0.  1.
         23    2    1    2    0    0 -0.67223160447E+03 -0.24239463407E+04  0.31614372436E+04  0.40405533967E+04  0.63048504685E+02 0.  0.
         13    1    3    3    0    0 -0.36168389733E+03 -0.11877383276E+04  0.15518627879E+04  0.19874143224E+04  0.00000000000E+00 0. -1.
        -13    1    3    3    0    0 -0.31054770715E+03 -0.12362080130E+04  0.16095744557E+04  0.20531390743E+04  0.00000000000E+00 0.  1.
         22    1    1    2    0    0  0.67223160447E+03  0.24239463407E+04 -0.46097198675E+03  0.25573240633E+04  0.00000000000E+00 0.  1.
<mgrwt>
<rscale>  0 0.60199231E+04</rscale>
<asrwt>0</asrwt>
<pdfrwt beam="1">  1        1 0.71525713E+00 0.60199231E+04</pdfrwt>
<pdfrwt beam="2">  1       -1 0.29980094E+00 0.60199231E+04</pdfrwt>
<totfact> 0.48957337E-04</totfact>
</mgrwt>
</event>
<event>
 6    1  0.1588846E-005  0.1220449E+04  0.7818608E-02  0.9095143E-01
         -1   -1    0    0    0  501 -0.00000000000E+00  0.00000000000E+00  0.16365347366E+03  0.16365347366E+03  0.00000000000E+00 0.  1.
          1   -1    0    0  501    0  0.00000000000E+00 -0.00000000000E+00 -0.22753815767E+04  0.22753815767E+04  0.00000000000E+00 0. -1.
         23    2    1    2    0    0  0.54023230000E+03  0.25069967853E+03 -0.12961366465E+04  0.14291386741E+04  0.88124211612E+02 0.  0.
         13    1    3    3    0    0  0.24515866526E+03  0.13145556716E+03 -0.50816555759E+03  0.57932337361E+03  0.00000000000E+00 0.  1.
        -13    1    3    3    0    0  0.29507363475E+03  0.11924411137E+03 -0.78797108893E+03  0.84981530052E+03  0.00000000000E+00 0. -1.
         22    1    1    2    0    0 -0.54023230000E+03 -0.25069967853E+03 -0.81559145652E+03  0.10098963762E+04  0.00000000000E+00 0.  1.
<mgrwt>
<rscale>  0 0.12204493E+04</rscale>
<asrwt>0</asrwt>
<pdfrwt beam="1">  1        1 0.35005868E+00 0.12204493E+04</pdfrwt>
<pdfrwt beam="2">  1       -1 0.25177460E-01 0.12204493E+04</pdfrwt>
<totfact> 0.26560688E+01</totfact>
</mgrwt>
</event>
<event>
 6    1  0.1588846E-005  0.1080058E+04  0.7818608E-02  0.9224850E-01
         -1   -1    0    0    0  501 -0.00000000000E+00  0.00000000000E+00  0.18413055873E+04  0.18413055873E+04  0.00000000000E+00 0.  1.
          1   -1    0    0  501    0  0.00000000000E+00 -0.00000000000E+00 -0.15838287648E+03  0.15838287648E+03  0.00000000000E+00 0. -1.
         23    2    1    2    0    0 -0.16202998100E+03  0.48294551762E+03  0.11568534515E+04  0.12674050806E+04  0.92280237563E+02 0.  0.
         13    1    3    3    0    0 -0.47478011475E+02  0.23324093955E+03  0.45067500136E+03  0.50966994645E+03  0.00000000000E+00 0. -1.
        -13    1    3    3    0    0 -0.11455196952E+03  0.24970457807E+03  0.70617845014E+03  0.75773513411E+03  0.00000000000E+00 0.  1.
         22    1    1    2    0    0  0.16202998100E+03 -0.48294551762E+03  0.52606925929E+03  0.73228338320E+03  0.00000000000E+00 0. -1.
<mgrwt>
<rscale>  0 0.10800579E+04</rscale>
<asrwt>0</asrwt>
<pdfrwt beam="1">  1        1 0.24366598E-01 0.10800579E+04</pdfrwt>
<pdfrwt beam="2">  1       -1 0.28327777E+00 0.10800579E+04</pdfrwt>
<totfact> 0.86103183E+00</totfact>
</mgrwt>
</event>
<event>
 6    1  0.1588846E-005  0.1651256E+04  0.7818608E-02  0.8789664E-01
         -1   -1    0    0    0  501 -0.00000000000E+00  0.00000000000E+00  0.25385741224E+04  0.25385741224E+04  0.00000000000E+00 0.  1.
          1   -1    0    0  501    0  0.00000000000E+00 -0.00000000000E+00 -0.26852150345E+03  0.26852150345E+03  0.00000000000E+00 0. -1.
         23    2    1    2    0    0  0.62989908501E+03 -0.44894521323E+03  0.16170959777E+04  0.17948323019E+04  0.89994048798E+02 0.  0.
         13    1    3    3    0    0  0.27063190244E+03 -0.21979855904E+03  0.63852609157E+03  0.72750848984E+03  0.00000000000E+00 0.  1.
        -13    1    3    3    0    0  0.35926718257E+03 -0.22914665419E+03  0.97856988616E+03  0.10673238120E+04  0.00000000000E+00 0. -1.
         22    1    1    2    0    0 -0.62989908501E+03  0.44894521323E+03  0.65295664118E+03  0.10122633240E+04  0.00000000000E+00 0. -1.
<mgrwt>
<rscale>  0 0.16512562E+04</rscale>
<asrwt>0</asrwt>
<pdfrwt beam="1">  1        1 0.41311002E-01 0.16512562E+04</pdfrwt>
<pdfrwt beam="2">  1       -1 0.39054985E+00 0.16512562E+04</pdfrwt>
<totfact> 0.80702383E-01</totfact>
</mgrwt>
</event>
<event>
 6    1  0.1588846E-005  0.2889646E+04  0.7818608E-02  0.8275965E-01
          2   -1    0    0  501    0  0.00000000000E+00  0.00000000000E+00  0.11486404634E+04  0.11486404634E+04  0.00000000000E+00 0.  1.
         -2   -1    0    0    0  501 -0.00000000000E+00 -0.00000000000E+00 -0.18173774079E+04  0.18173774079E+04  0.00000000000E+00 0. -1.
         23    2    1    2    0    0  0.26367726093E+03 -0.10376956126E+04  0.65892532188E+03  0.12604314688E+04  0.90371596633E+02 0.  0.
         11    1    3    3    0    0  0.12104025454E+03 -0.65438337026E+03  0.40986513847E+03  0.78157390580E+03  0.00000000000E+00 0. -1.
        -11    1    3    3    0    0  0.14263700638E+03 -0.38331224235E+03  0.24906018341E+03  0.47885756305E+03  0.00000000000E+00 0.  1.
         22    1    1    2    0    0 -0.26367726093E+03  0.10376956126E+04 -0.13276622664E+04  0.17055864024E+04  0.00000000000E+00 0. -1.
<mgrwt>
<rscale>  0 0.28896458E+04</rscale>
<asrwt>0</asrwt>
<pdfrwt beam="1">  1        2 0.17671392E+00 0.28896458E+04</pdfrwt>
<pdfrwt beam="2">  1       -2 0.27959652E+00 0.28896458E+04</pdfrwt>
<totfact> 0.74412035E-01</totfact>
</mgrwt>
</event>
<event>
 6    1  0.1588846E-005  0.3941921E+04  0.7818608E-02  0.8016366E-01
          2   -1    0    0  501    0  0.00000000000E+00  0.00000000000E+00  0.35388503727E+04  0.35388503727E+04  0.00000000000E+00 0.  1.
         -2   -1    0    0    0  501 -0.00000000000E+00 -0.00000000000E+00 -0.10977253852E+04  0.10977253852E+04  0.00000000000E+00 0. -1.
         23    2    1    2    0    0  0.11424981996E+04 -0.21294054959E+03  0.30919799188E+04  0.33045630119E+04  0.95661211761E+02 0.  0.
         13    1    3    3    0    0  0.79838402751E+03 -0.16395647413E+03  0.22806645153E+04  0.24219267974E+04  0.00000000000E+00 0. -1.
        -13    1    3    3    0    0  0.34411417208E+03 -0.48984075460E+02  0.81131540352E+03  0.88263621446E+03  0.00000000000E+00 0.  1.
         22    1    1    2    0    0 -0.11424981996E+04  0.21294054959E+03 -0.65085493131E+03  0.13320127459E+04  0.00000000000E+00 0. -1.
<mgrwt>
<rscale>  0 0.39419213E+04</rscale>
<asrwt>0</asrwt>
<pdfrwt beam="1">  1        2 0.54443851E+00 0.39419213E+04</pdfrwt>
<pdfrwt beam="2">  1       -2 0.16888083E+00 0.39419213E+04</pdfrwt>
<totfact> 0.13108819E-01</totfact>
</mgrwt>
</event>
<event>
 6    1  0.1588846E-005  0.2632700E+04  0.7818608E-02  0.8357178E-01
          2   -1    0    0  501    0  0.00000000000E+00  0.00000000000E+00  0.10076512117E+04  0.10076512117E+04  0.00000000000E+00 0. -1.
         -2   -1    0    0    0  501 -0.00000000000E+00 -0.00000000000E+00 -0.17196195228E+04  0.17196195228E+04  0.00000000000E+00 0.  1.
         23    2    1    2    0    0  0.87663829872E+03 -0.12961919104E+03 -0.13625420455E+04  0.16279336500E+04  0.91385456061E+02 0.  0.
         13    1    3    3    0    0  0.23574374901E+03 -0.61481699866E+02 -0.43254735189E+03  0.49643965015E+03  0.00000000000E+00 0.  1.
        -13    1    3    3    0    0  0.64089454971E+03 -0.68137491174E+02 -0.92999469365E+03  0.11314939999E+04  0.00000000000E+00 0. -1.
         22    1    1    2    0    0 -0.87663829872E+03  0.12961919104E+03  0.65057373442E+03  0.10993370845E+04  0.00000000000E+00 0. -1.
<mgrwt>
<rscale>  0 0.26326995E+04</rscale>
<asrwt>0</asrwt>
<pdfrwt beam="1">  1        2 0.15502326E+00 0.26326995E+04</pdfrwt>
<pdfrwt beam="2">  1       -2 0.26455685E+00 0.26326995E+04</pdfrwt>
<totfact> 0.11495524E+00</totfact>
</mgrwt>
</event>
<event>
 6    1  0.1588846E-005  0.3796532E+04  0.7818608E-02  0.8046900E-01
         -1   -1    0    0    0  501 -0.00000000000E+00  0.00000000000E+00  0.18226610778E+04  0.18226610778E+04  0.00000000000E+00 0.  1.
          1   -1    0    0  501    0  0.00000000000E+00 -0.00000000000E+00 -0.19770066301E+04  0.19770066301E+04  0.00000000000E+00 0. -1.
         23    2    1    2    0    0 -0.36602591530E+03  0.16144121247E+04  0.85035892175E+03  0.18632450889E+04  0.90942214933E+02 0.  0.
         11    1    3    3    0    0 -0.25487512119E+03  0.12539410668E+04  0.68467127292E+03  0.14512423225E+04  0.00000000000E+00 0.  1.
        -11    1    3    3    0    0 -0.11115079411E+03  0.36047105786E+03  0.16568764882E+03  0.41200276645E+03  0.00000000000E+00 0. -1.
         22    1    1    2    0    0  0.36602591530E+03 -0.16144121247E+04 -0.10047044740E+04  0.19364226189E+04  0.00000000000E+00 0. -1.
<mgrwt>
<rscale>  0 0.37965316E+04</rscale>
<asrwt>0</asrwt>
<pdfrwt beam="1">  1        1 0.30415486E+00 0.37965316E+04</pdfrwt>
<pdfrwt beam="2">  1       -1 0.28040940E+00 0.37965316E+04</pdfrwt>
<totfact> 0.10876042E-01</totfact>
</mgrwt>
</event>
<event>
 6    1  0.1588846E-005  0.1748568E+04  0.7818608E-02  0.8734139E-01
         -2   -1    0    0    0  501 -0.00000000000E+00  0.00000000000E+00  0.68030759692E+03  0.68030759692E+03  0.00000000000E+00 0.  1.
          2   -1    0    0  501    0  0.00000000000E+00 -0.00000000000E+00 -0.11235688934E+04  0.11235688934E+04  0.00000000000E+00 0. -1.
         23    2    1    2    0    0 -0.69372968447E+03 -0.15180428961E+03  0.29983075033E+03  0.77601890899E+03  0.89450828981E+02 0.  0.
         13    1    3    3    0    0 -0.57854501503E+03 -0.12143154527E+03  0.28405802611E+03  0.65585739060E+03  0.00000000000E+00 0. -1.
        -13    1    3    3    0    0 -0.11518466944E+03 -0.30372744338E+02  0.15772724217E+02  0.12016151839E+03  0.00000000000E+00 0.  1.
         22    1    1    2    0    0  0.69372968447E+03  0.15180428961E+03 -0.74309204676E+03  0.10278575813E+04  0.00000000000E+00 0. -1.
<mgrwt>
<rscale>  0 0.17485679E+04</rscale>
<asrwt>0</asrwt>
<pdfrwt beam="1">  1        2 0.17285675E+00 0.17485679E+04</pdfrwt>
<pdfrwt beam="2">  1       -2 0.10466271E+00 0.17485679E+04</pdfrwt>
<totfact> 0.14798563E+01</totfact>
</mgrwt>
</event>
<event>
 6    1  0.1588846E-005  0.9232318E+03  0.7818608E-02  0.9396998E-01
         -1   -1    0    0    0  501 -0.00000000000E+00  0.00000000000E+00  0.32403058667E+03  0.32403058667E+03  0.00000000000E+00 0.  1.
          1   -1    0    0  501    0  0.00000000000E+00 -0.00000000000E+00 -0.65762069249E+03  0.65762069249E+03  0.00000000000E+00 0. -1.
         23    2    1    2    0    0  0.25370611586E+02  0.32459594138E+03  0.17270523193E+03  0.37970347235E+03  0.91331466021E+02 0.  0.
         13    1    3    3    0    0 -0.41349128991E+01  0.63189912853E+02  0.77172547967E+02  0.99828176137E+02  0.00000000000E+00 0.  1.
        -13    1    3    3    0    0  0.29505524485E+02  0.26140602852E+03  0.95532683966E+02  0.27987529621E+03  0.00000000000E+00 0. -1.
         22    1    1    2    0    0 -0.25370611586E+02 -0.32459594138E+03 -0.50629533776E+03  0.60194780681E+03  0.00000000000E+00 0. -1.
<mgrwt>
<rscale>  0 0.92323176E+03</rscale>
<asrwt>0</asrwt>
<pdfrwt beam="1">  1        1 0.10117241E+00 0.92323176E+03</pdfrwt>
<pdfrwt beam="2">  1       -1 0.49850860E-01 0.92323176E+03</pdfrwt>
<totfact> 0.12160577E+02</totfact>
</mgrwt>
</event>
<event>
 6    1  0.1846344E-005  0.3041322E+04  0.7818608E-02  0.8232029E-01
         -2   -1    0    0    0  501 -0.00000000000E+00  0.00000000000E+00  0.13291782071E+04  0.13291782071E+04  0.00000000000E+00 0.  1.
          2   -1    0    0  501    0  0.00000000000E+00 -0.00000000000E+00 -0.17397288581E+04  0.17397288581E+04  0.00000000000E+00 0. -1.
         23    2    1    2    0    0 -0.62753873614E+03 -0.23492548271E+03  0.11705043553E+04  0.13517204764E+04  0.89849612560E+02 0.  0.
         11    1    3    3    0    0 -0.41251459327E+03 -0.15472570456E+03  0.85169006424E+03  0.95889743916E+03  0.00000000000E+00 0.  1.
        -11    1    3    3    0    0 -0.21502414287E+03 -0.80199778147E+02  0.31881429105E+03  0.39282303727E+03  0.00000000000E+00 0. -1.
         22    1    1    2    0    0  0.62753873614E+03  0.23492548271E+03 -0.15810550063E+04  0.17171865888E+04  0.00000000000E+00 0. -1.
<mgrwt>
<rscale>  0 0.30413219E+04</rscale>
<asrwt>0</asrwt>
<pdfrwt beam="1">  1        2 0.26765059E+00 0.30413219E+04</pdfrwt>
<pdfrwt beam="2">  1       -2 0.20448896E+00 0.30413219E+04</pdfrwt>
<totfact> 0.98851886E-01</totfact>
</mgrwt>
</event>
<event>
 6    1  0.1588846E-005  0.1646091E+04  0.7818608E-02  0.8792722E-01
          2   -1    0    0  501    0  0.00000000000E+00  0.00000000000E+00  0.15462473448E+04  0.15462473448E+04  0.00000000000E+00 0. -1.
         -2   -1    0    0    0  501 -0.00000000000E+00 -0.00000000000E+00 -0.43809566892E+03  0.43809566892E+03  0.00000000000E+00 0.  1.
         23    2    1    2    0    0  0.69973925210E+02  0.58789362102E+03 -0.12898074825E+03  0.61284314326E+03  0.91790113671E+02 0.  0.
         13    1    3    3    0    0  0.68557869323E+02  0.26815276722E+03 -0.31472304591E+02  0.27856165201E+03  0.00000000000E+00 0. -1.
        -13    1    3    3    0    0  0.14160558863E+01  0.31974085380E+03 -0.97508443663E+02  0.33428149124E+03  0.00000000000E+00 0.  1.
         22    1    1    2    0    0 -0.69973925210E+02 -0.58789362102E+03  0.12371324241E+04  0.13714998705E+04  0.00000000000E+00 0. -1.
<mgrwt>
<rscale>  0 0.16460914E+04</rscale>
<asrwt>0</asrwt>
<pdfrwt beam="1">  1        2 0.23788421E+00 0.16460914E+04</pdfrwt>
<pdfrwt beam="2">  1       -2 0.67399334E-01 0.16460914E+04</pdfrwt>
<totfact> 0.23056584E+01</totfact>
</mgrwt>
</event>
<event>
 6    1  0.1588846E-005  0.8220384E+03  0.7818608E-02  0.9528654E-01
         -2   -1    0    0    0  501 -0.00000000000E+00  0.00000000000E+00  0.51071925113E+03  0.51071925113E+03  0.00000000000E+00 0.  1.
          2   -1    0    0  501    0  0.00000000000E+00 -0.00000000000E+00 -0.33078205274E+03  0.33078205274E+03  0.00000000000E+00 0. -1.
         23    2    1    2    0    0  0.13256916192E+03 -0.38441282993E+03  0.10453659748E+03  0.42793987297E+03  0.82805966917E+02 0.  0.
         11    1    3    3    0    0 -0.22040500281E+00 -0.47802256415E+02  0.35534996514E+02  0.59563749664E+02  0.00000000000E+00 0.  1.
        -11    1    3    3    0    0  0.13278956692E+03 -0.33661057351E+03  0.69001600963E+02  0.36837612330E+03  0.00000000000E+00 0. -1.
         22    1    1    2    0    0 -0.13256916192E+03  0.38441282993E+03  0.75400600914E+02  0.41356143090E+03  0.00000000000E+00 0. -1.
<mgrwt>
<rscale>  0 0.82203835E+03</rscale>
<asrwt>0</asrwt>
<pdfrwt beam="1">  1        2 0.50889546E-01 0.82203835E+03</pdfrwt>
<pdfrwt beam="2">  1       -2 0.78572193E-01 0.82203835E+03</pdfrwt>
<totfact> 0.14267784E+02</totfact>
</mgrwt>
</event>
<event>
 6    1  0.1588846E-005  0.1725557E+04  0.7818608E-02  0.8746921E-01
         -2   -1    0    0    0  501 -0.00000000000E+00  0.00000000000E+00  0.46133261774E+03  0.46133261774E+03  0.00000000000E+00 0.  1.
          2   -1    0    0  501    0  0.00000000000E+00 -0.00000000000E+00 -0.16135576288E+04  0.16135576288E+04  0.00000000000E+00 0. -1.
         23    2    1    2    0    0 -0.13417226598E+03 -0.27610266979E+03 -0.15442089719E+04  0.15770084264E+04  0.90218328885E+02 0.  0.
         11    1    3    3    0    0 -0.13950014144E+03 -0.22052910783E+03 -0.13473211396E+04  0.13723584190E+04  0.00000000000E+00 0. -1.
        -11    1    3    3    0    0  0.53278754595E+01 -0.55573561961E+02 -0.19688783225E+03  0.20465000741E+03  0.00000000000E+00 0.  1.
         22    1    1    2    0    0  0.13417226598E+03  0.27610266979E+03  0.39198396085E+03  0.49788182010E+03  0.00000000000E+00 0.  1.
<mgrwt>
<rscale>  0 0.17255570E+04</rscale>
<asrwt>0</asrwt>
<pdfrwt beam="1">  1        2 0.24823964E+00 0.17255570E+04</pdfrwt>
<pdfrwt beam="2">  1       -2 0.70974247E-01 0.17255570E+04</pdfrwt>
<totfact> 0.18767210E+01</totfact>
</mgrwt>
</event>
<event>
 6    1  0.1588846E-005  0.2681456E+04  0.7818608E-02  0.8341047E-01
         -2   -1    0    0    0  501 -0.00000000000E+00  0.00000000000E+00  0.10939926521E+04  0.10939926521E+04  0.00000000000E+00 0.  1.
          2   -1    0    0  501    0  0.00000000000E+00 -0.00000000000E+00 -0.16431116118E+04  0.16431116118E+04  0.00000000000E+00 0. -1.
         23    2    1    2    0    0  0.69238957767E+03 -0.66908846105E+03 -0.12250035154E+04  0.15607103551E+04  0.90002797970E+02 0.  0.
         11    1    3    3    0    0  0.62799815421E+03 -0.57821133226E+03 -0.11140111248E+04  0.14034709874E+04  0.00000000000E+00 0. -1.
        -11    1    3    3    0    0  0.64391423469E+02 -0.90877128789E+02 -0.11099239064E+03  0.15723936763E+03  0.00000000000E+00 0.  1.
         22    1    1    2    0    0 -0.69238957767E+03  0.66908846105E+03  0.67588455577E+03  0.11763939088E+04  0.00000000000E+00 0.  1.
<mgrwt>
<rscale>  0 0.26814563E+04</rscale>
<asrwt>0</asrwt>
<pdfrwt beam="1">  1        2 0.25278640E+00 0.26814563E+04</pdfrwt>
<pdfrwt beam="2">  1       -2 0.16830656E+00 0.26814563E+04</pdfrwt>
<totfact> 0.20317472E+00</totfact>
</mgrwt>
</event>
<event>
 6    1  0.1588846E-005  0.5630453E+04  0.7818608E-02  0.7737990E-01
         -2   -1    0    0    0  501 -0.00000000000E+00  0.00000000000E+00  0.38543482215E+04  0.38543482215E+04  0.00000000000E+00 0. -1.
          2   -1    0    0  501    0  0.00000000000E+00 -0.00000000000E+00 -0.20562494389E+04  0.20562494389E+04  0.00000000000E+00 0.  1.
         23    2    1    2    0    0 -0.70203344156E+03  0.20745519168E+04  0.27550888468E+04  0.35205251529E+04  0.83463701667E+02 0.  0.
         11    1    3    3    0    0 -0.46653156771E+03  0.14790155826E+04  0.19819999589E+04  0.25166371678E+04  0.00000000000E+00 0.  1.
        -11    1    3    3    0    0 -0.23550187385E+03  0.59553633420E+03  0.77308888794E+03  0.10038879851E+04  0.00000000000E+00 0. -1.
         22    1    1    2    0    0  0.70203344156E+03 -0.20745519168E+04 -0.95699006415E+03  0.23900725076E+04  0.00000000000E+00 0.  1.
<mgrwt>
<rscale>  0 0.56304534E+04</rscale>
<asrwt>0</asrwt>
<pdfrwt beam="1">  1        2 0.31634607E+00 0.56304534E+04</pdfrwt>
<pdfrwt beam="2">  1       -2 0.59297665E+00 0.56304534E+04</pdfrwt>
<totfact> 0.23727628E-03</totfact>
</mgrwt>
</event>
<event>
 6    1  0.1588846E-005  0.1755117E+04  0.7818608E-02  0.8730538E-01
         -1   -1    0    0    0  501 -0.00000000000E+00  0.00000000000E+00  0.78528048714E+03  0.78528048714E+03  0.00000000000E+00 0.  1.
          1   -1    0    0  501    0  0.00000000000E+00 -0.00000000000E+00 -0.98068055594E+03  0.98068055594E+03  0.00000000000E+00 0. -1.
         23    2    1    2    0    0 -0.17657106480E+03 -0.83821101837E+03  0.82176962259E+02  0.86550334812E+03  0.92563168897E+02 0.  0.
         11    1    3    3    0    0 -0.30271433174E+02 -0.36545938340E+03  0.32819265925E+02  0.36817662174E+03  0.00000000000E+00 0. -1.
        -11    1    3    3    0    0 -0.14629963163E+03 -0.47275163497E+03  0.49357696334E+02  0.49732672638E+03  0.00000000000E+00 0.  1.
         22    1    1    2    0    0  0.17657106480E+03  0.83821101837E+03 -0.27757703106E+03  0.90045769496E+03  0.00000000000E+00 0. -1.
<mgrwt>
<rscale>  0 0.17551174E+04</rscale>
<asrwt>0</asrwt>
<pdfrwt beam="1">  1        1 0.15087393E+00 0.17551174E+04</pdfrwt>
<pdfrwt beam="2">  1       -1 0.12081238E+00 0.17551174E+04</pdfrwt>
<totfact> 0.90391815E+00</totfact>
</mgrwt>
</event>
<event>
 6    1  0.1588846E-005  0.2029840E+04  0.7818608E-02  0.8592795E-01
          1   -1    0    0  501    0  0.00000000000E+00  0.00000000000E+00  0.18614187199E+04  0.18614187199E+04  0.00000000000E+00 0. -1.
         -1   -1    0    0    0  501 -0.00000000000E+00 -0.00000000000E+00 -0.55337475675E+03  0.55337475675E+03  0.00000000000E+00 0.  1.
         23    2    1    2    0    0  0.15099859337E+03 -0.46587171438E+03 -0.39956785283E+03  0.63834332438E+03  0.89390722664E+02 0.  0.
         11    1    3    3    0    0  0.43782426268E+02 -0.14263013013E+03 -0.17705577621E+03  0.23153618024E+03  0.00000000000E+00 0.  1.
        -11    1    3    3    0    0  0.10721616710E+03 -0.32324158425E+03 -0.22251207662E+03  0.40680714413E+03  0.00000000000E+00 0. -1.
         22    1    1    2    0    0 -0.15099859337E+03  0.46587171438E+03  0.17076118160E+04  0.17764501523E+04  0.00000000000E+00 0. -1.
<mgrwt>
<rscale>  0 0.20298395E+04</rscale>
<asrwt>0</asrwt>
<pdfrwt beam="1">  1        1 0.28637211E+00 0.20298395E+04</pdfrwt>
<pdfrwt beam="2">  1       -1 0.85134579E-01 0.20298395E+04</pdfrwt>
<totfact> 0.46713631E+00</totfact>
</mgrwt>
</event>
<event>
 6    1  0.1588846E-005  0.3086026E+04  0.7818608E-02  0.8219583E-01
         -2   -1    0    0    0  501 -0.00000000000E+00  0.00000000000E+00  0.23493632371E+04  0.23493632371E+04  0.00000000000E+00 0.  1.
          2   -1    0    0  501    0  0.00000000000E+00 -0.00000000000E+00 -0.10134189140E+04  0.10134189140E+04  0.00000000000E+00 0. -1.
         23    2    1    2    0    0  0.66848806678E+03  0.13855954748E+04  0.77753721684E+03  0.17261485294E+04  0.90958818336E+02 0.  0.
         13    1    3    3    0    0  0.24332587011E+03  0.60741393705E+03  0.33455090265E+03  0.73490371918E+03  0.00000000000E+00 0.  1.
        -13    1    3    3    0    0  0.42516219667E+03  0.77818153780E+03  0.44298631419E+03  0.99124481023E+03  0.00000000000E+00 0. -1.
         22    1    1    2    0    0 -0.66848806678E+03 -0.13855954748E+04  0.55840710628E+03  0.16366336217E+04  0.00000000000E+00 0. -1.
<mgrwt>
<rscale>  0 0.30860260E+04</rscale>
<asrwt>0</asrwt>
<pdfrwt beam="1">  1        2 0.15591060E+00 0.30860260E+04</pdfrwt>
<pdfrwt beam="2">  1       -2 0.36144050E+00 0.30860260E+04</pdfrwt>
<totfact> 0.27625204E-01</totfact>
</mgrwt>
</event>
<event>
 6    1  0.1588846E-005  0.6795019E+03  0.7818608E-02  0.9752943E-01
         -4   -1    0    0    0  501 -0.00000000000E+00  0.00000000000E+00  0.25270408757E+03  0.25270408757E+03  0.00000000000E+00 0. -1.
          4   -1    0    0  501    0  0.00000000000E+00 -0.00000000000E+00 -0.45678210137E+03  0.45678210137E+03  0.00000000000E+00 0.  1.
         23    2    1    2    0    0 -0.79848459211E+02 -0.32484420056E+03 -0.14320307444E+03  0.36947841062E+03  0.64090906623E+02 0.  0.
         11    1    3    3    0    0 -0.15262972385E+02 -0.15503225386E+03 -0.41263793974E+02  0.16115414595E+03  0.00000000000E+00 0. -1.
        -11    1    3    3    0    0 -0.64585486826E+02 -0.16981194669E+03 -0.10193928046E+03  0.20832426467E+03  0.00000000000E+00 0.  1.
         22    1    1    2    0    0  0.79848459211E+02  0.32484420056E+03 -0.60874939366E+02  0.34000777832E+03  0.00000000000E+00 0. -1.
<mgrwt>
<rscale>  0 0.67950189E+03</rscale>
<asrwt>0</asrwt>
<pdfrwt beam="1">  1        4 0.70274169E-01 0.67950189E+03</pdfrwt>
<pdfrwt beam="2">  1       -4 0.38877552E-01 0.67950189E+03</pdfrwt>
<totfact> 0.23752023E+01</totfact>
</mgrwt>
</event>
<event>
 6    1  0.1588846E-005  0.3413017E+04  0.7818608E-02  0.8134719E-01
         -2   -1    0    0    0  501 -0.00000000000E+00  0.00000000000E+00  0.93957759005E+03  0.93957759005E+03  0.00000000000E+00 0.  1.
          2   -1    0    0  501    0  0.00000000000E+00 -0.00000000000E+00 -0.30994468332E+04  0.30994468332E+04  0.00000000000E+00 0. -1.
         23    2    1    2    0    0  0.70274418566E+03 -0.86373094845E+03  0.44777037898E+03  0.12035941313E+04  0.90884425273E+02 0.  0.
         13    1    3    3    0    0  0.58059337049E+03 -0.72785860825E+03  0.33836577332E+03  0.99063525680E+03  0.00000000000E+00 0. -1.
        -13    1    3    3    0    0  0.12215081517E+03 -0.13587234020E+03  0.10940460566E+03  0.21295887447E+03  0.00000000000E+00 0.  1.
         22    1    1    2    0    0 -0.70274418566E+03  0.86373094845E+03 -0.26076396221E+04  0.28354302920E+04  0.00000000000E+00 0. -1.
<mgrwt>
<rscale>  0 0.34130167E+04</rscale>
<asrwt>0</asrwt>
<pdfrwt beam="1">  1        2 0.47683797E+00 0.34130167E+04</pdfrwt>
<pdfrwt beam="2">  1       -2 0.14455040E+00 0.34130167E+04</pdfrwt>
<totfact> 0.41139203E-01</totfact>
</mgrwt>
</event>
<event>
 6    1  0.1588846E-005  0.1806243E+03  0.7818608E-02  0.1167200E+00
          1   -1    0    0  501    0  0.00000000000E+00  0.00000000000E+00  0.73014370143E+03  0.73014370143E+03  0.00000000000E+00 0. -1.
         -1   -1    0    0    0  501 -0.00000000000E+00 -0.00000000000E+00 -0.11170795452E+02  0.11170795452E+02  0.00000000000E+00 0.  1.
         23    2    1    2    0    0 -0.23599936494E+02  0.63018721028E+02  0.50989874583E+03  0.52167770433E+03  0.87307387950E+02 0.  0.
         11    1    3    3    0    0 -0.18235122603E+02  0.47690568827E+02  0.10810449315E+03  0.11955539089E+03  0.00000000000E+00 0.  1.
        -11    1    3    3    0    0 -0.53648138910E+01  0.15328152201E+02  0.40179425269E+03  0.40212231344E+03  0.00000000000E+00 0. -1.
         22    1    1    2    0    0  0.23599936494E+02 -0.63018721028E+02  0.20907416014E+03  0.21963679255E+03  0.00000000000E+00 0.  1.
<mgrwt>
<rscale>  0 0.18062432E+03</rscale>
<asrwt>0</asrwt>
<pdfrwt beam="1">  1        1 0.11232976E+00 0.18062432E+03</pdfrwt>
<pdfrwt beam="2">  1       -1 0.17185845E-02 0.18062432E+03</pdfrwt>
<totfact> 0.21951466E+04</totfact>
</mgrwt>
</event>
<event>
 6    1  0.1588846E-005  0.1047072E+04  0.7818608E-02  0.9258373E-01
          1   -1    0    0  501    0  0.00000000000E+00  0.00000000000E+00  0.11647180851E+04  0.11647180851E+04  0.00000000000E+00 0. -1.
         -1   -1    0    0    0  501 -0.00000000000E+00 -0.00000000000E+00 -0.23532706434E+03  0.23532706434E+03  0.00000000000E+00 0.  1.
         23    2    1    2    0    0  0.21693978955E+02  0.21578098435E+03 -0.16343801296E+03  0.28590541006E+03  0.89430741310E+02 0.  0.
         13    1    3    3    0    0  0.31245585784E+02  0.16591465761E+03 -0.76782523852E+02  0.18547106570E+03  0.00000000000E+00 0. -1.
        -13    1    3    3    0    0 -0.95516068292E+01  0.49866326739E+02 -0.86655489107E+02  0.10043434436E+03  0.00000000000E+00 0.  1.
         22    1    1    2    0    0 -0.21693978955E+02 -0.21578098435E+03  0.10928290337E+04  0.11141397393E+04  0.00000000000E+00 0. -1.
<mgrwt>
<rscale>  0 0.10470715E+04</rscale>
<asrwt>0</asrwt>
<pdfrwt beam="1">  1        1 0.17918739E+00 0.10470715E+04</pdfrwt>
<pdfrwt beam="2">  1       -1 0.36204165E-01 0.10470715E+04</pdfrwt>
<totfact> 0.82734723E+01</totfact>
</mgrwt>
</event>
<event>
 6    1  0.1588846E-005  0.1946545E+04  0.7818608E-02  0.8632029E-01
          1   -1    0    0  501    0  0.00000000000E+00  0.00000000000E+00  0.76994976291E+03  0.76994976291E+03  0.00000000000E+00 0. -1.
         -1   -1    0    0    0  501 -0.00000000000E+00 -0.00000000000E+00 -0.12302870195E+04  0.12302870195E+04  0.00000000000E+00 0.  1.
         23    2    1    2    0    0  0.36929624238E+03  0.82087641358E+03 -0.60557656427E+03  0.10884735141E+04  0.88508839361E+02 0.  0.
         11    1    3    3    0    0  0.25624640326E+03  0.65591527864E+03 -0.48294039045E+03  0.85388435556E+03  0.00000000000E+00 0.  1.
        -11    1    3    3    0    0  0.11304983912E+03  0.16496113494E+03 -0.12263617382E+03  0.23458915852E+03  0.00000000000E+00 0. -1.
         22    1    1    2    0    0 -0.36929624238E+03 -0.82087641358E+03  0.14523930766E+03  0.91176326835E+03  0.00000000000E+00 0. -1.
<mgrwt>
<rscale>  0 0.19465448E+04</rscale>
<asrwt>0</asrwt>
<pdfrwt beam="1">  1        1 0.11845381E+00 0.19465448E+04</pdfrwt>
<pdfrwt beam="2">  1       -1 0.18927492E+00 0.19465448E+04</pdfrwt>
<totfact> 0.39153692E+00</totfact>
</mgrwt>
</event>
<event>
 6    1  0.1588846E-005  0.2861626E+04  0.7818608E-02  0.8284387E-01
         -2   -1    0    0    0  501 -0.00000000000E+00  0.00000000000E+00  0.30615376163E+04  0.30615376163E+04  0.00000000000E+00 0.  1.
          2   -1    0    0  501    0  0.00000000000E+00 -0.00000000000E+00 -0.66869208011E+03  0.66869208011E+03  0.00000000000E+00 0. -1.
         23    2    1    2    0    0 -0.96332790796E+03  0.10218242901E+04  0.15448250936E+04  0.20897223940E+04  0.91266511224E+02 0.  0.
         13    1    3    3    0    0 -0.24758644130E+02  0.10182409550E+02  0.37919242875E+02  0.46417032473E+02  0.00000000000E+00 0.  1.
        -13    1    3    3    0    0 -0.93856926383E+03  0.10116418806E+04  0.15069058507E+04  0.20433053615E+04  0.00000000000E+00 0. -1.
         22    1    1    2    0    0  0.96332790796E+03 -0.10218242901E+04  0.84802044262E+03  0.16405073024E+04  0.00000000000E+00 0.  1.
<mgrwt>
<rscale>  0 0.28616261E+04</rscale>
<asrwt>0</asrwt>
<pdfrwt beam="1">  1        2 0.10287571E+00 0.28616261E+04</pdfrwt>
<pdfrwt beam="2">  1       -2 0.47100578E+00 0.28616261E+04</pdfrwt>
<totfact> 0.94704588E-02</totfact>
</mgrwt>
</event>
<event>
 6    1  0.1588846E-005  0.1477458E+04  0.7818608E-02  0.8899583E-01
         -1   -1    0    0    0  501 -0.00000000000E+00  0.00000000000E+00  0.79132649655E+03  0.79132649655E+03  0.00000000000E+00 0.  1.
          1   -1    0    0  501    0  0.00000000000E+00 -0.00000000000E+00 -0.68962797919E+03  0.68962797919E+03  0.00000000000E+00 0. -1.
         23    2    1    2    0    0  0.62429278554E+03  0.38141836103E+03 -0.29473580618E+02  0.73769976334E+03  0.90059983804E+02 0.  0.
         13    1    3    3    0    0  0.22560838974E+03  0.16351751703E+03  0.26626348642E+02  0.27990370905E+03  0.00000000000E+00 0.  1.
        -13    1    3    3    0    0  0.39868439580E+03  0.21790084399E+03 -0.56099929260E+02  0.45779605430E+03  0.00000000000E+00 0. -1.
         22    1    1    2    0    0 -0.62429278554E+03 -0.38141836103E+03  0.13117209798E+03  0.74325471239E+03  0.00000000000E+00 0. -1.
<mgrwt>
<rscale>  0 0.14774585E+04</rscale>
<asrwt>0</asrwt>
<pdfrwt beam="1">  1        1 0.10609661E+00 0.14774585E+04</pdfrwt>
<pdfrwt beam="2">  1       -1 0.12174254E+00 0.14774585E+04</pdfrwt>
<totfact> 0.16142530E+01</totfact>
</mgrwt>
</event>
<event>
 6    1  0.1588846E-005  0.6028270E+03  0.7818608E-02  0.9899558E-01
         -1   -1    0    0    0  501 -0.00000000000E+00  0.00000000000E+00  0.88686213393E+02  0.88686213393E+02  0.00000000000E+00 0.  1.
          1   -1    0    0  501    0  0.00000000000E+00 -0.00000000000E+00 -0.10243993282E+04  0.10243993282E+04  0.00000000000E+00 0. -1.
         23    2    1    2    0    0  0.15676546645E+03 -0.24291620690E+03 -0.37934236480E+03  0.48608306431E+03  0.93767908318E+02 0.  0.
         11    1    3    3    0    0  0.56296075364E+02 -0.17181352271E+03 -0.22996634872E+03  0.29252975272E+03  0.00000000000E+00 0.  1.
        -11    1    3    3    0    0  0.10046939109E+03 -0.71102684194E+02 -0.14937601608E+03  0.19355331159E+03  0.00000000000E+00 0. -1.
         22    1    1    2    0    0 -0.15676546645E+03  0.24291620690E+03 -0.55637074996E+03  0.62700247724E+03  0.00000000000E+00 0. -1.
<mgrwt>
<rscale>  0 0.60282700E+03</rscale>
<asrwt>0</asrwt>
<pdfrwt beam="1">  1        1 0.15759989E+00 0.60282700E+03</pdfrwt>
<pdfrwt beam="2">  1       -1 0.13644033E-01 0.60282700E+03</pdfrwt>
<totfact> 0.56404571E+02</totfact>
</mgrwt>
</event>
<event>
 6    1  0.1588846E-005  0.1199803E+04  0.7818608E-02  0.9113029E-01
          1   -1    0    0  501    0  0.00000000000E+00  0.00000000000E+00  0.10097929980E+04  0.10097929980E+04  0.00000000000E+00 0. -1.
         -1   -1    0    0    0  501 -0.00000000000E+00 -0.00000000000E+00 -0.35639180025E+03  0.35639180025E+03  0.00000000000E+00 0.  1.
         23    2    1    2    0    0 -0.40487587729E+03 -0.31143022361E+03 -0.22875122573E+02  0.51868086220E+03  0.87139574207E+02 0.  0.
         13    1    3    3    0    0 -0.33825378874E+03 -0.26594326058E+03  0.12809119294E+02  0.43047127312E+03  0.00000000000E+00 0. -1.
        -13    1    3    3    0    0 -0.66622088554E+02 -0.45486963037E+02 -0.35684241868E+02  0.88209589089E+02  0.00000000000E+00 0.  1.
         22    1    1    2    0    0  0.40487587729E+03  0.31143022361E+03  0.67627632033E+03  0.84750393606E+03  0.00000000000E+00 0. -1.
<mgrwt>
<rscale>  0 0.11998032E+04</rscale>
<asrwt>0</asrwt>
<pdfrwt beam="1">  1        1 0.15535277E+00 0.11998032E+04</pdfrwt>
<pdfrwt beam="2">  1       -1 0.54829508E-01 0.11998032E+04</pdfrwt>
<totfact> 0.49451706E+01</totfact>
</mgrwt>
</event>
<event>
 6    1  0.1588846E-005  0.2394852E+04  0.7818608E-02  0.8441433E-01
         -1   -1    0    0    0  501 -0.00000000000E+00  0.00000000000E+00  0.14201356715E+04  0.14201356715E+04  0.00000000000E+00 0.  1.
          1   -1    0    0  501    0  0.00000000000E+00 -0.00000000000E+00 -0.10096421242E+04  0.10096421242E+04  0.00000000000E+00 0. -1.
         23    2    1    2    0    0  0.52340568090E+03 -0.55012834406E+03 -0.73195848653E+03  0.10579937926E+04  0.83623784612E+02 0.  0.
         13    1    3    3    0    0  0.30469627894E+03 -0.37858572273E+03 -0.46641493675E+03  0.67357988767E+03  0.00000000000E+00 0.  1.
        -13    1    3    3    0    0  0.21870940197E+03 -0.17154262133E+03 -0.26554354978E+03  0.38441390489E+03  0.00000000000E+00 0. -1.
         22    1    1    2    0    0 -0.52340568090E+03  0.55012834406E+03  0.11424520338E+04  0.13717840031E+04  0.00000000000E+00 0.  1.
<mgrwt>
<rscale>  0 0.23948518E+04</rscale>
<asrwt>0</asrwt>
<pdfrwt beam="1">  1        1 0.15532956E+00 0.23948518E+04</pdfrwt>
<pdfrwt beam="2">  1       -1 0.21848241E+00 0.23948518E+04</pdfrwt>
<totfact> 0.15019453E+00</totfact>
</mgrwt>
</event>
<event>
 6    1  0.1588846E-005  0.2133536E+04  0.7818608E-02  0.8546613E-01
         -1   -1    0    0    0  501 -0.00000000000E+00  0.00000000000E+00  0.96362243246E+03  0.96362243246E+03  0.00000000000E+00 0.  1.
          1   -1    0    0  501    0  0.00000000000E+00 -0.00000000000E+00 -0.11809544608E+04  0.11809544608E+04  0.00000000000E+00 0. -1.
         23    2    1    2    0    0  0.81869559950E+03 -0.19715925879E+03  0.54628167433E+03  0.10078094831E+04  0.90122297590E+02 0.  0.
         13    1    3    3    0    0  0.36601980386E+03 -0.10189934593E+03  0.19568420966E+03  0.42737136477E+03  0.00000000000E+00 0.  1.
        -13    1    3    3    0    0  0.45267579564E+03 -0.95259912858E+02  0.35059746467E+03  0.58043811831E+03  0.00000000000E+00 0. -1.
         22    1    1    2    0    0 -0.81869559950E+03  0.19715925879E+03 -0.76361370266E+03  0.11367674102E+04  0.00000000000E+00 0. -1.
<mgrwt>
<rscale>  0 0.21335362E+04</rscale>
<asrwt>0</asrwt>
<pdfrwt beam="1">  1        1 0.18168530E+00 0.21335362E+04</pdfrwt>
<pdfrwt beam="2">  1       -1 0.14824960E+00 0.21335362E+04</pdfrwt>
<totfact> 0.36443732E+00</totfact>
</mgrwt>
</event>
<event>
 6    1  0.1588846E-005  0.3468517E+04  0.7818608E-02  0.8121292E-01
          1   -1    0    0  501    0  0.00000000000E+00  0.00000000000E+00  0.23609514423E+04  0.23609514423E+04  0.00000000000E+00 0. -1.
         -1   -1    0    0    0  501 -0.00000000000E+00 -0.00000000000E+00 -0.12739152954E+04  0.12739152954E+04  0.00000000000E+00 0.  1.
         23    2    1    2    0    0 -0.15527841477E+04  0.94721764109E+02  0.13444069117E+04  0.20580501559E+04  0.89608470546E+02 0.  0.
         11    1    3    3    0    0 -0.91455997770E+03  0.74336480853E+02  0.84524156473E+03  0.12475492647E+04  0.00000000000E+00 0. -1.
        -11    1    3    3    0    0 -0.63822417003E+03  0.20385283256E+02  0.49916534696E+03  0.81050089117E+03  0.00000000000E+00 0.  1.
         22    1    1    2    0    0  0.15527841477E+04 -0.94721764109E+02 -0.25737076481E+03  0.15768165818E+04  0.00000000000E+00 0.  1.
<mgrwt>
<rscale>  0 0.34685168E+04</rscale>
<asrwt>0</asrwt>
<pdfrwt beam="1">  1        1 0.36322330E+00 0.34685168E+04</pdfrwt>
<pdfrwt beam="2">  1       -1 0.19598697E+00 0.34685168E+04</pdfrwt>
<totfact> 0.22182741E-01</totfact>
</mgrwt>
</event>
<event>
 6    1  0.1588846E-005  0.2761470E+04  0.7818608E-02  0.8315331E-01
          1   -1    0    0  501    0  0.00000000000E+00  0.00000000000E+00  0.14784483110E+04  0.14784483110E+04  0.00000000000E+00 0. -1.
         -1   -1    0    0    0  501 -0.00000000000E+00 -0.00000000000E+00 -0.12894794892E+04  0.12894794892E+04  0.00000000000E+00 0.  1.
         23    2    1    2    0    0  0.41264752818E+03 -0.99879851252E+03  0.95357786453E+03  0.14441062718E+04  0.90861043842E+02 0.  0.
         13    1    3    3    0    0  0.29468987016E+03 -0.75673500462E+03  0.76221582076E+03  0.11137607213E+04  0.00000000000E+00 0. -1.
        -13    1    3    3    0    0  0.11795765802E+03 -0.24206350790E+03  0.19136204376E+03  0.33034555050E+03  0.00000000000E+00 0.  1.
         22    1    1    2    0    0 -0.41264752818E+03  0.99879851252E+03 -0.76460904272E+03  0.13238215285E+04  0.00000000000E+00 0.  1.
<mgrwt>
<rscale>  0 0.27614697E+04</rscale>
<asrwt>0</asrwt>
<pdfrwt beam="1">  1        1 0.22745359E+00 0.27614697E+04</pdfrwt>
<pdfrwt beam="2">  1       -1 0.19838146E+00 0.27614697E+04</pdfrwt>
<totfact> 0.90831308E-01</totfact>
</mgrwt>
</event>
<event>
 6    1  0.1588846E-005  0.9823951E+03  0.7818608E-02  0.9328067E-01
          2   -1    0    0  501    0  0.00000000000E+00  0.00000000000E+00  0.54036855457E+03  0.54036855457E+03  0.00000000000E+00 0. -1.
         -2   -1    0    0    0  501 -0.00000000000E+00 -0.00000000000E+00 -0.44650087592E+03  0.44650087592E+03  0.00000000000E+00 0.  1.
         23    2    1    2    0    0 -0.35945876735E+03 -0.10881673799E+03 -0.26397580833E+03  0.46811741936E+03  0.91646074818E+02 0.  0.
         11    1    3    3    0    0 -0.20392489909E+03 -0.15989985730E+02 -0.12395358278E+03  0.23917678566E+03  0.00000000000E+00 0.  1.
        -11    1    3    3    0    0 -0.15553386825E+03 -0.92826752259E+02 -0.14002222555E+03  0.22894063369E+03  0.00000000000E+00 0. -1.
         22    1    1    2    0    0  0.35945876735E+03  0.10881673799E+03  0.35784348698E+03  0.51875201114E+03  0.00000000000E+00 0. -1.
<mgrwt>
<rscale>  0 0.98239510E+03</rscale>
<asrwt>0</asrwt>
<pdfrwt beam="1">  1        2 0.83133624E-01 0.98239510E+03</pdfrwt>
<pdfrwt beam="2">  1       -2 0.68692442E-01 0.98239510E+03</pdfrwt>
<totfact> 0.10890012E+02</totfact>
</mgrwt>
</event>
<event>
 6    1  0.1588846E-005  0.4041819E+04  0.7818608E-02  0.7996163E-01
          2   -1    0    0  501    0  0.00000000000E+00  0.00000000000E+00  0.22536117268E+04  0.22536117268E+04  0.00000000000E+00 0. -1.
         -2   -1    0    0    0  501 -0.00000000000E+00 -0.00000000000E+00 -0.18122351265E+04  0.18122351265E+04  0.00000000000E+00 0.  1.
         23    2    1    2    0    0  0.11324574411E+04  0.16640403800E+04  0.51249826310E+02  0.20155568392E+04  0.91392480236E+02 0.  0.
         13    1    3    3    0    0  0.48695417143E+03  0.79510438606E+03  0.32225448237E+02  0.93292755845E+03  0.00000000000E+00 0. -1.
        -13    1    3    3    0    0  0.64550326964E+03  0.86893599394E+03  0.19024378074E+02  0.10826292808E+04  0.00000000000E+00 0.  1.
         22    1    1    2    0    0 -0.11324574411E+04 -0.16640403800E+04  0.39012677399E+03  0.20502900141E+04  0.00000000000E+00 0.  1.
<mgrwt>
<rscale>  0 0.40418186E+04</rscale>
<asrwt>0</asrwt>
<pdfrwt beam="1">  1        2 0.34670950E+00 0.40418186E+04</pdfrwt>
<pdfrwt beam="2">  1       -2 0.27880540E+00 0.40418186E+04</pdfrwt>
<totfact> 0.16218070E-01</totfact>
</mgrwt>
</event>
<event>
 6    1  0.1588846E-005  0.2177166E+04  0.7818608E-02  0.8527992E-01
         -1   -1    0    0    0  501 -0.00000000000E+00  0.00000000000E+00  0.40714738091E+03  0.40714738091E+03  0.00000000000E+00 0.  1.
          1   -1    0    0  501    0  0.00000000000E+00 -0.00000000000E+00 -0.29105270185E+04  0.29105270185E+04  0.00000000000E+00 0. -1.
         23    2    1    2    0    0 -0.96060109247E+03 -0.20356637721E+03 -0.19637956599E+04  0.21972527833E+04  0.85045112229E+02 0.  0.
         11    1    3    3    0    0 -0.61241681940E+03 -0.15851430499E+03 -0.11960463718E+04  0.13530366104E+04  0.00000000000E+00 0.  1.
        -11    1    3    3    0    0 -0.34818427306E+03 -0.45052072221E+02 -0.76774928815E+03  0.84421617295E+03  0.00000000000E+00 0. -1.
         22    1    1    2    0    0  0.96060109247E+03  0.20356637721E+03 -0.53958397761E+03  0.11204216160E+04  0.00000000000E+00 0.  1.
<mgrwt>
<rscale>  0 0.21771665E+04</rscale>
<asrwt>0</asrwt>
<pdfrwt beam="1">  1        1 0.44777339E+00 0.21771665E+04</pdfrwt>
<pdfrwt beam="2">  1       -1 0.62638058E-01 0.21771665E+04</pdfrwt>
<totfact> 0.16407933E+00</totfact>
</mgrwt>
</event>
<event>
 6    1  0.1588846E-005  0.2153974E+04  0.7818608E-02  0.8537833E-01
         -2   -1    0    0    0  501 -0.00000000000E+00  0.00000000000E+00  0.43691697023E+03  0.43691697023E+03  0.00000000000E+00 0. -1.
          2   -1    0    0  501    0  0.00000000000E+00 -0.00000000000E+00 -0.26547391131E+04  0.26547391131E+04  0.00000000000E+00 0.  1.
         23    2    1    2    0    0  0.33368822232E+03  0.69306266140E+03 -0.21890670461E+04  0.23219090224E+04  0.86967197288E+02 0.  0.
         11    1    3    3    0    0  0.17710296989E+03  0.37506749931E+03 -0.13089758779E+04  0.13731201477E+04  0.00000000000E+00 0.  1.
        -11    1    3    3    0    0  0.15658525243E+03  0.31799516209E+03 -0.88009116817E+03  0.94878887466E+03  0.00000000000E+00 0. -1.
         22    1    1    2    0    0 -0.33368822232E+03 -0.69306266140E+03 -0.28755096799E+02  0.76974706101E+03  0.00000000000E+00 0. -1.
<mgrwt>
<rscale>  0 0.21539736E+04</rscale>
<asrwt>0</asrwt>
<pdfrwt beam="1">  1        2 0.40842139E+00 0.21539736E+04</pdfrwt>
<pdfrwt beam="2">  1       -2 0.67217997E-01 0.21539736E+04</pdfrwt>
<totfact> 0.52657206E+00</totfact>
</mgrwt>
</event>
<event>
 6    1  0.1588846E-005  0.2107369E+04  0.7818608E-02  0.8558004E-01
         -1   -1    0    0    0  501 -0.00000000000E+00  0.00000000000E+00  0.10680045936E+04  0.10680045936E+04  0.00000000000E+00 0.  1.
          1   -1    0    0  501    0  0.00000000000E+00 -0.00000000000E+00 -0.10395567133E+04  0.10395567133E+04  0.00000000000E+00 0. -1.
         23    2    1    2    0    0 -0.38262610673E+03 -0.85820235021E+03  0.48552359190E+03  0.10626535513E+04  0.10288537504E+03 0.  0.
         13    1    3    3    0    0 -0.71503020488E+02 -0.26074294591E+03  0.16422154412E+03  0.31633570986E+03  0.00000000000E+00 0. -1.
        -13    1    3    3    0    0 -0.31112308624E+03 -0.59745940430E+03  0.32130204778E+03  0.74631784147E+03  0.00000000000E+00 0.  1.
         22    1    1    2    0    0  0.38262610673E+03  0.85820235021E+03 -0.45707571167E+03  0.10449077556E+04  0.00000000000E+00 0.  1.
<mgrwt>
<rscale>  0 0.21073693E+04</rscale>
<asrwt>0</asrwt>
<pdfrwt beam="1">  1        1 0.15993180E+00 0.21073693E+04</pdfrwt>
<pdfrwt beam="2">  1       -1 0.16430840E+00 0.21073693E+04</pdfrwt>
<totfact> 0.35140480E+00</totfact>
</mgrwt>
</event>
<event>
 6    1  0.1588846E-005  0.1274724E+04  0.7818608E-02  0.9049853E-01
         -1   -1    0    0    0  501 -0.00000000000E+00  0.00000000000E+00  0.42996102368E+03  0.42996102368E+03  0.00000000000E+00 0.  1.
          1   -1    0    0  501    0  0.00000000000E+00 -0.00000000000E+00 -0.94480689053E+03  0.94480689053E+03  0.00000000000E+00 0. -1.
         23    2    1    2    0    0  0.17028373398E+03 -0.15501697639E+03  0.37853206591E+03  0.45218949274E+03  0.90343784476E+02 0.  0.
         13    1    3    3    0    0  0.15114961700E+03 -0.11791786950E+03  0.23809308186E+03  0.30567817438E+03  0.00000000000E+00 0. -1.
        -13    1    3    3    0    0  0.19134116987E+02 -0.37099106889E+02  0.14043898405E+03  0.14651131836E+03  0.00000000000E+00 0.  1.
         22    1    1    2    0    0 -0.17028373398E+03  0.15501697639E+03 -0.89337793276E+03  0.92257842147E+03  0.00000000000E+00 0. -1.
<mgrwt>
<rscale>  0 0.12747237E+04</rscale>
<asrwt>0</asrwt>
<pdfrwt beam="1">  1        1 0.14535491E+00 0.12747237E+04</pdfrwt>
<pdfrwt beam="2">  1       -1 0.66147850E-01 0.12747237E+04</pdfrwt>
<totfact> 0.38159219E+01</totfact>
</mgrwt>
</event>
<event>
 6    1  0.1588846E-005  0.7992970E+03  0.7818608E-02  0.9561035E-01
         -1   -1    0    0    0  501 -0.00000000000E+00  0.00000000000E+00  0.18667472809E+03  0.18667472809E+03  0.00000000000E+00 0.  1.
          1   -1    0    0  501    0  0.00000000000E+00 -0.00000000000E+00 -0.85560004158E+03  0.85560004158E+03  0.00000000000E+00 0. -1.
         23    2    1    2    0    0  0.24449747983E+03 -0.76158422174E+02 -0.73010875134E+03  0.77898303798E+03  0.90424895744E+02 0.  0.
         13    1    3    3    0    0  0.10487897281E+03 -0.79993443119E+02 -0.35215087719E+03  0.37604360144E+03  0.00000000000E+00 0. -1.
        -13    1    3    3    0    0  0.13961850701E+03  0.38350209448E+01 -0.37795787415E+03  0.40293943654E+03  0.00000000000E+00 0.  1.
         22    1    1    2    0    0 -0.24449747983E+03  0.76158422174E+02  0.61183437840E+02  0.26329173169E+03  0.00000000000E+00 0.  1.
<mgrwt>
<rscale>  0 0.79929695E+03</rscale>
<asrwt>0</asrwt>
<pdfrwt beam="1">  1        1 0.13163078E+00 0.79929695E+03</pdfrwt>
<pdfrwt beam="2">  1       -1 0.28719189E-01 0.79929695E+03</pdfrwt>
<totfact> 0.22032084E+02</totfact>
</mgrwt>
</event>
<event>
 6    1  0.1588846E-005  0.3873845E+04  0.7818608E-02  0.8030491E-01
          1   -1    0    0  501    0  0.00000000000E+00  0.00000000000E+00  0.19899644574E+04  0.19899644574E+04  0.00000000000E+00 0. -1.
         -1   -1    0    0    0  501 -0.00000000000E+00 -0.00000000000E+00 -0.18852944335E+04  0.18852944335E+04  0.00000000000E+00 0.  1.
         23    2    1    2    0    0  0.14600506151E+03 -0.43023617160E+03 -0.18301139309E+04  0.18878461021E+04  0.90693241221E+02 0.  0.
         13    1    3    3    0    0  0.60851270702E+01 -0.11917685117E+03 -0.38743682399E+03  0.40539788259E+03  0.00000000000E+00 0.  1.
        -13    1    3    3    0    0  0.13991993444E+03 -0.31105932043E+03 -0.14426771069E+04  0.14824482195E+04  0.00000000000E+00 0. -1.
         22    1    1    2    0    0 -0.14600506151E+03  0.43023617160E+03  0.19347839547E+04  0.19874127887E+04  0.00000000000E+00 0. -1.
<mgrwt>
<rscale>  0 0.38738451E+04</rscale>
<asrwt>0</asrwt>
<pdfrwt beam="1">  1        1 0.30614838E+00 0.38738451E+04</pdfrwt>
<pdfrwt beam="2">  1       -1 0.29004530E+00 0.38738451E+04</pdfrwt>
<totfact> 0.91718434E-02</totfact>
</mgrwt>
</event>
<event>
 6    1  0.1588846E-005  0.6870264E+03  0.7818608E-02  0.9739680E-01
         -1   -1    0    0    0  501 -0.00000000000E+00  0.00000000000E+00  0.12803264199E+03  0.12803264199E+03  0.00000000000E+00 0.  1.
          1   -1    0    0  501    0  0.00000000000E+00 -0.00000000000E+00 -0.92165018887E+03  0.92165018887E+03  0.00000000000E+00 0. -1.
         23    2    1    2    0    0  0.24518461952E+03 -0.22269378460E+03 -0.50374248125E+03  0.60952879756E+03  0.89782227086E+02 0.  0.
         13    1    3    3    0    0  0.19526861524E+03 -0.15526562360E+03 -0.43328544588E+03  0.49997352288E+03  0.00000000000E+00 0. -1.
        -13    1    3    3    0    0  0.49916004285E+02 -0.67428160992E+02 -0.70457035366E+02  0.10955527468E+03  0.00000000000E+00 0.  1.
         22    1    1    2    0    0 -0.24518461952E+03  0.22269378460E+03 -0.28987506564E+03  0.44015403330E+03  0.00000000000E+00 0. -1.
<mgrwt>
<rscale>  0 0.68702637E+03</rscale>
<asrwt>0</asrwt>
<pdfrwt beam="1">  1        1 0.14179233E+00 0.68702637E+03</pdfrwt>
<pdfrwt beam="2">  1       -1 0.19697330E-01 0.68702637E+03</pdfrwt>
<totfact> 0.37096222E+02</totfact>
</mgrwt>
</event>
<event>
 6    1  0.1588846E-005  0.1696406E+04  0.7818608E-02  0.8763417E-01
         -1   -1    0    0    0  501 -0.00000000000E+00  0.00000000000E+00  0.27704083173E+03  0.27704083173E+03  0.00000000000E+00 0.  1.
          1   -1    0    0  501    0  0.00000000000E+00 -0.00000000000E+00 -0.25969047203E+04  0.25969047203E+04  0.00000000000E+00 0. -1.
         23    2    1    2    0    0  0.37450121914E+00  0.38659613603E+03 -0.24377935990E+04  0.24697622653E+04  0.86205003869E+02 0.  0.
         11    1    3    3    0    0 -0.41568865152E+02  0.16335383180E+03 -0.10924465756E+04  0.11053741292E+04  0.00000000000E+00 0. -1.
        -11    1    3    3    0    0  0.41943366371E+02  0.22324230422E+03 -0.13453470235E+04  0.13643881361E+04  0.00000000000E+00 0.  1.
         22    1    1    2    0    0 -0.37450121914E+00 -0.38659613603E+03  0.11792971053E+03  0.40418328672E+03  0.00000000000E+00 0.  1.
<mgrwt>
<rscale>  0 0.16964064E+04</rscale>
<asrwt>0</asrwt>
<pdfrwt beam="1">  1        1 0.39952381E+00 0.16964064E+04</pdfrwt>
<pdfrwt beam="2">  1       -1 0.42621665E-01 0.16964064E+04</pdfrwt>
<totfact> 0.59925245E+00</totfact>
</mgrwt>
</event>
<event>
 6    1  0.2344521E-005  0.2624667E+04  0.7818608E-02  0.8359870E-01
          1   -1    0    0  501    0  0.00000000000E+00  0.00000000000E+00  0.12980066030E+04  0.12980066030E+04  0.00000000000E+00 0. -1.
         -1   -1    0    0    0  501 -0.00000000000E+00 -0.00000000000E+00 -0.13268184113E+04  0.13268184113E+04  0.00000000000E+00 0.  1.
         23    2    1    2    0    0  0.56493032590E+03 -0.10437969240E+04  0.54181879483E+03  0.13079052837E+04  0.91598760761E+02 0.  0.
         11    1    3    3    0    0  0.24247864881E+03 -0.35674562742E+03  0.20416177052E+03  0.47722674522E+03  0.00000000000E+00 0. -1.
        -11    1    3    3    0    0  0.32245167709E+03 -0.68705129657E+03  0.33765702431E+03  0.83067853845E+03  0.00000000000E+00 0.  1.
         22    1    1    2    0    0 -0.56493032590E+03  0.10437969240E+04 -0.57063060311E+03  0.13169197306E+04  0.00000000000E+00 0.  1.
<mgrwt>
<rscale>  0 0.26246669E+04</rscale>
<asrwt>0</asrwt>
<pdfrwt beam="1">  1        1 0.19969332E+00 0.26246669E+04</pdfrwt>
<pdfrwt beam="2">  1       -1 0.20412591E+00 0.26246669E+04</pdfrwt>
<totfact> 0.11245174E+00</totfact>
</mgrwt>
</event>
<event>
 6    1  0.1588846E-005  0.4704064E+04  0.7818608E-02  0.7875854E-01
         -2   -1    0    0    0  501 -0.00000000000E+00  0.00000000000E+00  0.14777764143E+04  0.14777764143E+04  0.00000000000E+00 0.  1.
          2   -1    0    0  501    0  0.00000000000E+00 -0.00000000000E+00 -0.37434988206E+04  0.37434988206E+04  0.00000000000E+00 0. -1.
         23    2    1    2    0    0 -0.45398642765E+03  0.53991329003E+03 -0.36226890005E+04  0.36919066152E+04  0.93213858222E+02 0.  0.
         11    1    3    3    0    0 -0.28476766235E+03  0.34624720090E+03 -0.25252986162E+04  0.25647831968E+04  0.00000000000E+00 0. -1.
        -11    1    3    3    0    0 -0.16921876530E+03  0.19366608913E+03 -0.10973903844E+04  0.11271234184E+04  0.00000000000E+00 0.  1.
         22    1    1    2    0    0  0.45398642765E+03 -0.53991329003E+03  0.13569665942E+04  0.15293686198E+04  0.00000000000E+00 0.  1.
<mgrwt>
<rscale>  0 0.47040639E+04</rscale>
<asrwt>0</asrwt>
<pdfrwt beam="1">  1        2 0.57592290E+00 0.47040639E+04</pdfrwt>
<pdfrwt beam="2">  1       -2 0.22735022E+00 0.47040639E+04</pdfrwt>
<totfact> 0.35764255E-02</totfact>
</mgrwt>
</event>
<event>
 6    1  0.1588846E-005  0.1115965E+04  0.7818608E-02  0.9189770E-01
         -2   -1    0    0    0  501 -0.00000000000E+00  0.00000000000E+00  0.24102764250E+03  0.24102764250E+03  0.00000000000E+00 0.  1.
          2   -1    0    0  501    0  0.00000000000E+00 -0.00000000000E+00 -0.12917373198E+04  0.12917373198E+04  0.00000000000E+00 0. -1.
         23    2    1    2    0    0 -0.46924606499E+02 -0.29208579212E+03 -0.11741848842E+04  0.12121995939E+04  0.56583431707E+02 0.  0.
         13    1    3    3    0    0 -0.40486903460E+02 -0.87422208004E+02 -0.36224403951E+03  0.37483673241E+03  0.00000000000E+00 0. -1.
        -13    1    3    3    0    0 -0.64377030381E+01 -0.20466358412E+03 -0.81194084465E+03  0.83736286154E+03  0.00000000000E+00 0.  1.
         22    1    1    2    0    0  0.46924606499E+02  0.29208579212E+03  0.12347520688E+03  0.32056536832E+03  0.00000000000E+00 0.  1.
<mgrwt>
<rscale>  0 0.11159649E+04</rscale>
<asrwt>0</asrwt>
<pdfrwt beam="1">  1        2 0.19872882E+00 0.11159649E+04</pdfrwt>
<pdfrwt beam="2">  1       -2 0.37081176E-01 0.11159649E+04</pdfrwt>
<totfact> 0.11355881E+02</totfact>
</mgrwt>
</event>
<event>
 6    1  0.1588846E-005  0.6502405E+04  0.7818608E-02  0.7631050E-01
         -2   -1    0    0    0  501 -0.00000000000E+00  0.00000000000E+00  0.28846832284E+04  0.28846832284E+04  0.00000000000E+00 0.  1.
          2   -1    0    0  501    0  0.00000000000E+00 -0.00000000000E+00 -0.36642911724E+04  0.36642911724E+04  0.00000000000E+00 0. -1.
         23    2    1    2    0    0  0.28968096975E+04 -0.99012611500E+03  0.71085373259E+03  0.31440761414E+04  0.89697304601E+02 0.  0.
         13    1    3    3    0    0  0.13902362210E+04 -0.47420790046E+03  0.29509833356E+03  0.14982366000E+04  0.00000000000E+00 0. -1.
        -13    1    3    3    0    0  0.15065734765E+04 -0.51591821454E+03  0.41575539903E+03  0.16458395414E+04  0.00000000000E+00 0.  1.
         22    1    1    2    0    0 -0.28968096975E+04  0.99012611500E+03 -0.14904616766E+04  0.34048982594E+04  0.00000000000E+00 0. -1.
<mgrwt>
<rscale>  0 0.65024055E+04</rscale>
<asrwt>0</asrwt>
<pdfrwt beam="1">  1        2 0.56373710E+00 0.65024055E+04</pdfrwt>
<pdfrwt beam="2">  1       -2 0.44379742E+00 0.65024055E+04</pdfrwt>
<totfact> 0.15346857E-03</totfact>
</mgrwt>
</event>
<event>
 6    1  0.1588846E-005  0.3569040E+03  0.7818608E-02  0.1059816E+00
          1   -1    0    0  501    0  0.00000000000E+00  0.00000000000E+00  0.37502462028E+03  0.37502462028E+03  0.00000000000E+00 0. -1.
         -1   -1    0    0    0  501 -0.00000000000E+00 -0.00000000000E+00 -0.84914757343E+02  0.84914757343E+02  0.00000000000E+00 0.  1.
         23    2    1    2    0    0  0.15281914086E+03 -0.69494799453E+02  0.15333695445E+03  0.24339828346E+03  0.86875116282E+02 0.  0.
         13    1    3    3    0    0  0.12468340034E+03 -0.31858896633E+02  0.66961433124E+02  0.14506816722E+03  0.00000000000E+00 0. -1.
        -13    1    3    3    0    0  0.28135740516E+02 -0.37635902820E+02  0.86375521322E+02  0.98330116237E+02  0.00000000000E+00 0.  1.
         22    1    1    2    0    0 -0.15281914086E+03  0.69494799453E+02  0.13677290849E+03  0.21654109416E+03  0.00000000000E+00 0.  1.
<mgrwt>
<rscale>  0 0.35690405E+03</rscale>
<asrwt>0</asrwt>
<pdfrwt beam="1">  1        1 0.57696094E-01 0.35690405E+03</pdfrwt>
<pdfrwt beam="2">  1       -1 0.13063809E-01 0.35690405E+03</pdfrwt>
<totfact> 0.26466080E+03</totfact>
</mgrwt>
</event>
<event>
 6    1  0.1588846E-005  0.2842223E+04  0.7818608E-02  0.8290278E-01
          1   -1    0    0  501    0  0.00000000000E+00  0.00000000000E+00  0.34430573819E+04  0.34430573819E+04  0.00000000000E+00 0. -1.
         -1   -1    0    0    0  501 -0.00000000000E+00 -0.00000000000E+00 -0.58655955828E+03  0.58655955828E+03  0.00000000000E+00 0.  1.
         23    2    1    2    0    0  0.29693925592E+03 -0.79576368034E+03  0.30425096279E+04  0.31601267746E+04  0.90131233069E+02 0.  0.
         11    1    3    3    0    0  0.18060864001E+03 -0.35540289437E+03  0.14181715428E+04  0.14731399197E+04  0.00000000000E+00 0. -1.
        -11    1    3    3    0    0  0.11633061592E+03 -0.44036078597E+03  0.16243380851E+04  0.16869868549E+04  0.00000000000E+00 0.  1.
         22    1    1    2    0    0 -0.29693925592E+03  0.79576368034E+03 -0.18601180428E+03  0.86949016555E+03  0.00000000000E+00 0.  1.
<mgrwt>
<rscale>  0 0.28422232E+04</rscale>
<asrwt>0</asrwt>
<pdfrwt beam="1">  1        1 0.52970112E+00 0.28422232E+04</pdfrwt>
<pdfrwt beam="2">  1       -1 0.90239934E-01 0.28422232E+04</pdfrwt>
<totfact> 0.28677644E-01</totfact>
</mgrwt>
</event>
<event>
 6    1  0.1588846E-005  0.3908585E+04  0.7818608E-02  0.8023246E-01
          2   -1    0    0  501    0  0.00000000000E+00  0.00000000000E+00  0.21771052506E+04  0.21771052506E+04  0.00000000000E+00 0. -1.
         -2   -1    0    0    0  501 -0.00000000000E+00 -0.00000000000E+00 -0.17542833442E+04  0.17542833442E+04  0.00000000000E+00 0.  1.
         23    2    1    2    0    0  0.71356274610E+03  0.28716148847E+03  0.20167576959E+04  0.21615680349E+04  0.11589328140E+03 0.  0.
         13    1    3    3    0    0  0.27104954617E+03  0.90431969162E+02  0.60553037464E+03  0.66956167165E+03  0.00000000000E+00 0.  1.
        -13    1    3    3    0    0  0.44251319993E+03  0.19672951931E+03  0.14112273212E+04  0.14920063633E+04  0.00000000000E+00 0. -1.
         22    1    1    2    0    0 -0.71356274610E+03 -0.28716148847E+03 -0.15939357895E+04  0.17698205599E+04  0.00000000000E+00 0.  1.
<mgrwt>
<rscale>  0 0.39085852E+04</rscale>
<asrwt>0</asrwt>
<pdfrwt beam="1">  1        2 0.33493927E+00 0.39085852E+04</pdfrwt>
<pdfrwt beam="2">  1       -2 0.26988974E+00 0.39085852E+04</pdfrwt>
<totfact> 0.20521701E-01</totfact>
</mgrwt>
</event>
<event>
 6    1  0.1588846E-005  0.1168753E+04  0.7818608E-02  0.9140655E-01
         -2   -1    0    0    0  501 -0.00000000000E+00  0.00000000000E+00  0.13910116896E+03  0.13910116896E+03  0.00000000000E+00 0. -1.
          2   -1    0    0  501    0  0.00000000000E+00 -0.00000000000E+00 -0.24550195265E+04  0.24550195265E+04  0.00000000000E+00 0.  1.
         23    2    1    2    0    0 -0.79664166055E+02 -0.16658497136E+03 -0.23874070440E+04  0.23961116949E+04  0.86844278092E+02 0.  0.
         11    1    3    3    0    0 -0.46434001691E+02 -0.15774069251E+03 -0.21427375065E+04  0.21490375205E+04  0.00000000000E+00 0. -1.
        -11    1    3    3    0    0 -0.33230164364E+02 -0.88442788561E+01 -0.24466953746E+03  0.24707417440E+03  0.00000000000E+00 0.  1.
         22    1    1    2    0    0  0.79664166055E+02  0.16658497136E+03  0.71488686417E+02  0.19800900061E+03  0.00000000000E+00 0. -1.
<mgrwt>
<rscale>  0 0.11687533E+04</rscale>
<asrwt>0</asrwt>
<pdfrwt beam="1">  1        2 0.37769532E+00 0.11687533E+04</pdfrwt>
<pdfrwt beam="2">  1       -2 0.21400179E-01 0.11687533E+04</pdfrwt>
<totfact> 0.69754954E+01</totfact>
</mgrwt>
</event>
<event>
 6    1  0.1588846E-005  0.5396648E+04  0.7818608E-02  0.7770073E-01
         -2   -1    0    0    0  501 -0.00000000000E+00  0.00000000000E+00  0.34229229967E+04  0.34229229967E+04  0.00000000000E+00 0.  1.
          2   -1    0    0  501    0  0.00000000000E+00 -0.00000000000E+00 -0.21271156994E+04  0.21271156994E+04  0.00000000000E+00 0. -1.
         23    2    1    2    0    0 -0.15569996692E+04 -0.16428913938E+04  0.21578862955E+04  0.31279486275E+04  0.65186274376E+02 0.  0.
         13    1    3    3    0    0 -0.72579277194E+03 -0.73666440538E+03  0.10210579235E+04  0.14532752242E+04  0.00000000000E+00 0.  1.
        -13    1    3    3    0    0 -0.83120689722E+03 -0.90622698842E+03  0.11368283719E+04  0.16746734033E+04  0.00000000000E+00 0. -1.
         22    1    1    2    0    0  0.15569996692E+04  0.16428913938E+04 -0.86207899815E+03  0.24220900686E+04  0.00000000000E+00 0.  1.
<mgrwt>
<rscale>  0 0.53966483E+04</rscale>
<asrwt>0</asrwt>
<pdfrwt beam="1">  1        2 0.32724857E+00 0.53966483E+04</pdfrwt>
<pdfrwt beam="2">  1       -2 0.52660354E+00 0.53966483E+04</pdfrwt>
<totfact> 0.46341076E-03</totfact>
</mgrwt>
</event>
<event>
 6    1  0.1588846E-005  0.1836701E+04  0.7818608E-02  0.8687022E-01
         -2   -1    0    0    0  501 -0.00000000000E+00  0.00000000000E+00  0.25508144377E+03  0.25508144377E+03  0.00000000000E+00 0.  1.
          2   -1    0    0  501    0  0.00000000000E+00 -0.00000000000E+00 -0.33062689520E+04  0.33062689520E+04  0.00000000000E+00 0. -1.
         23    2    1    2    0    0 -0.57366871743E+03  0.42451760993E+03 -0.26430153895E+04  0.27392096067E+04  0.91803714422E+02 0.  0.
         13    1    3    3    0    0 -0.16911224000E+03  0.13339481065E+03 -0.64719132234E+03  0.68209217334E+03  0.00000000000E+00 0. -1.
        -13    1    3    3    0    0 -0.40455647743E+03  0.29112279928E+03 -0.19958240672E+04  0.20571174334E+04  0.00000000000E+00 0.  1.
         22    1    1    2    0    0  0.57366871743E+03 -0.42451760993E+03 -0.40817211873E+03  0.82214078905E+03  0.00000000000E+00 0.  1.
<mgrwt>
<rscale>  0 0.18367012E+04</rscale>
<asrwt>0</asrwt>
<pdfrwt beam="1">  1        2 0.50865671E+00 0.18367012E+04</pdfrwt>
<pdfrwt beam="2">  1       -2 0.39243303E-01 0.18367012E+04</pdfrwt>
<totfact> 0.64127991E+00</totfact>
</mgrwt>
</event>
<event>
 6    1  0.1588846E-005  0.1763219E+04  0.7818608E-02  0.8726107E-01
          2   -1    0    0  501    0  0.00000000000E+00  0.00000000000E+00  0.25145188650E+04  0.25145188650E+04  0.00000000000E+00 0. -1.
         -2   -1    0    0    0  501 -0.00000000000E+00 -0.00000000000E+00 -0.30909918689E+03  0.30909918689E+03  0.00000000000E+00 0.  1.
         23    2    1    2    0    0  0.15289794379E+03  0.13258292421E+02  0.24920540521E+04  0.24984829601E+04  0.92358754632E+02 0.  0.
         13    1    3    3    0    0  0.15341963574E+03 -0.67941603007E+01  0.23509226442E+04  0.23559331536E+04  0.00000000000E+00 0.  1.
        -13    1    3    3    0    0 -0.52169194779E+00  0.20052452722E+02  0.14113140791E+03  0.14254980646E+03  0.00000000000E+00 0. -1.
         22    1    1    2    0    0 -0.15289794379E+03 -0.13258292421E+02 -0.28663437404E+03  0.32513509179E+03  0.00000000000E+00 0.  1.
<mgrwt>
<rscale>  0 0.17632195E+04</rscale>
<asrwt>0</asrwt>
<pdfrwt beam="1">  1        2 0.38684904E+00 0.17632195E+04</pdfrwt>
<pdfrwt beam="2">  1       -2 0.47553723E-01 0.17632195E+04</pdfrwt>
<totfact> 0.13565889E+01</totfact>
</mgrwt>
</event>
<event>
 6    1  0.1588846E-005  0.2400502E+04  0.7818608E-02  0.8439316E-01
          1   -1    0    0  501    0  0.00000000000E+00  0.00000000000E+00  0.10190372207E+04  0.10190372207E+04  0.00000000000E+00 0. -1.
         -1   -1    0    0    0  501 -0.00000000000E+00 -0.00000000000E+00 -0.14136894438E+04  0.14136894438E+04  0.00000000000E+00 0.  1.
         23    2    1    2    0    0 -0.53572936014E+02 -0.32699482971E+03  0.96979635343E+03  0.10286199747E+04  0.88081820236E+02 0.  0.
         13    1    3    3    0    0 -0.31479269549E+02 -0.13366038152E+03  0.27934436735E+03  0.31127048939E+03  0.00000000000E+00 0.  1.
        -13    1    3    3    0    0 -0.22093666464E+02 -0.19333444819E+03  0.69045198609E+03  0.71734948529E+03  0.00000000000E+00 0. -1.
         22    1    1    2    0    0  0.53572936014E+02  0.32699482971E+03 -0.13644485766E+04  0.14041066898E+04  0.00000000000E+00 0.  1.
<mgrwt>
<rscale>  0 0.24005017E+04</rscale>
<asrwt>0</asrwt>
<pdfrwt beam="1">  1        1 0.15677496E+00 0.24005017E+04</pdfrwt>
<pdfrwt beam="2">  1       -1 0.21749068E+00 0.24005017E+04</pdfrwt>
<totfact> 0.14989865E+00</totfact>
</mgrwt>
</event>
<event>
 6    1  0.1588846E-005  0.1440923E+04  0.7818608E-02  0.8924718E-01
         -1   -1    0    0    0  501 -0.00000000000E+00  0.00000000000E+00  0.12672901261E+04  0.12672901261E+04  0.00000000000E+00 0.  1.
          1   -1    0    0  501    0  0.00000000000E+00 -0.00000000000E+00 -0.40958628424E+03  0.40958628424E+03  0.00000000000E+00 0. -1.
         23    2    1    2    0    0 -0.37206194343E+03 -0.74492841541E+02 -0.27817703784E+03  0.47929357560E+03  0.91436284044E+02 0.  0.
         13    1    3    3    0    0 -0.50678285247E+02 -0.15967759193E+02 -0.83628740088E+02  0.99080896736E+02  0.00000000000E+00 0. -1.
        -13    1    3    3    0    0 -0.32138365818E+03 -0.58525082348E+02 -0.19454829775E+03  0.38021267886E+03  0.00000000000E+00 0.  1.
         22    1    1    2    0    0  0.37206194343E+03  0.74492841541E+02  0.11358808797E+04  0.11975828347E+04  0.00000000000E+00 0.  1.
<mgrwt>
<rscale>  0 0.14409228E+04</rscale>
<asrwt>0</asrwt>
<pdfrwt beam="1">  1        1 0.63013275E-01 0.14409228E+04</pdfrwt>
<pdfrwt beam="2">  1       -1 0.19496771E+00 0.14409228E+04</pdfrwt>
<totfact> 0.92132477E+00</totfact>
</mgrwt>
</event>
<event>
 6    1  0.1588846E-005  0.2374070E+04  0.7818608E-02  0.8449276E-01
         -2   -1    0    0    0  501 -0.00000000000E+00  0.00000000000E+00  0.10786496655E+04  0.10786496655E+04  0.00000000000E+00 0.  1.
          2   -1    0    0  501    0  0.00000000000E+00 -0.00000000000E+00 -0.13063108373E+04  0.13063108373E+04  0.00000000000E+00 0. -1.
         23    2    1    2    0    0  0.75123465135E+03 -0.38329306559E+03 -0.95071137173E+03  0.12740740697E+04  0.90252685547E+02 0.  0.
         13    1    3    3    0    0  0.27557166848E+03 -0.93803526974E+02 -0.34124138296E+03  0.44853598249E+03  0.00000000000E+00 0. -1.
        -13    1    3    3    0    0  0.47566298287E+03 -0.28948953862E+03 -0.60946998876E+03  0.82553808721E+03  0.00000000000E+00 0.  1.
         22    1    1    2    0    0 -0.75123465135E+03  0.38329306559E+03  0.72305019998E+03  0.11108864331E+04  0.00000000000E+00 0.  1.
<mgrwt>
<rscale>  0 0.23740697E+04</rscale>
<asrwt>0</asrwt>
<pdfrwt beam="1">  1        2 0.20097090E+00 0.23740697E+04</pdfrwt>
<pdfrwt beam="2">  1       -2 0.16594610E+00 0.23740697E+04</pdfrwt>
<totfact> 0.33666441E+00</totfact>
</mgrwt>
</event>
<event>
 6    1  0.1588846E-005  0.1121413E+04  0.7818608E-02  0.9184569E-01
          1   -1    0    0  501    0  0.00000000000E+00  0.00000000000E+00  0.65097198262E+03  0.65097198262E+03  0.00000000000E+00 0. -1.
         -1   -1    0    0    0  501 -0.00000000000E+00 -0.00000000000E+00 -0.48295785226E+03  0.48295785226E+03  0.00000000000E+00 0.  1.
         23    2    1    2    0    0 -0.47866121470E+03  0.17250166635E+03 -0.14457464216E+03  0.53678234551E+03  0.91433450912E+02 0.  0.
         13    1    3    3    0    0 -0.11579330689E+03  0.55994654159E+02  0.15110355333E+01  0.12863037916E+03  0.00000000000E+00 0.  1.
        -13    1    3    3    0    0 -0.36286790782E+03  0.11650701219E+03 -0.14608567770E+03  0.40815196636E+03  0.00000000000E+00 0. -1.
         22    1    1    2    0    0  0.47866121470E+03 -0.17250166635E+03  0.31258877252E+03  0.59714748937E+03  0.00000000000E+00 0. -1.
<mgrwt>
<rscale>  0 0.11214134E+04</rscale>
<asrwt>0</asrwt>
<pdfrwt beam="1">  1        1 0.10014954E+00 0.11214134E+04</pdfrwt>
<pdfrwt beam="2">  1       -1 0.74301208E-01 0.11214134E+04</pdfrwt>
<totfact> 0.55160377E+01</totfact>
</mgrwt>
</event>
<event>
 6    1  0.1588846E-005  0.1973611E+04  0.7818608E-02  0.8619059E-01
         -1   -1    0    0    0  501 -0.00000000000E+00  0.00000000000E+00  0.48881961562E+03  0.48881961562E+03  0.00000000000E+00 0.  1.
          1   -1    0    0  501    0  0.00000000000E+00 -0.00000000000E+00 -0.19921151865E+04  0.19921151865E+04  0.00000000000E+00 0. -1.
         23    2    1    2    0    0  0.69885128729E+03 -0.14106260590E+03  0.10147708569E+03  0.72492026352E+03  0.83186591611E+02 0.  0.
         13    1    3    3    0    0  0.28656825423E+03 -0.92207005114E+02  0.66400754594E+02  0.30827350897E+03  0.00000000000E+00 0.  1.
        -13    1    3    3    0    0  0.41228303306E+03 -0.48855600782E+02  0.35076331097E+02  0.41664675455E+03  0.00000000000E+00 0. -1.
         22    1    1    2    0    0 -0.69885128729E+03  0.14106260590E+03 -0.16047726566E+04  0.17560145386E+04  0.00000000000E+00 0. -1.
<mgrwt>
<rscale>  0 0.19736109E+04</rscale>
<asrwt>0</asrwt>
<pdfrwt beam="1">  1        1 0.30647926E+00 0.19736109E+04</pdfrwt>
<pdfrwt beam="2">  1       -1 0.75203017E-01 0.19736109E+04</pdfrwt>
<totfact> 0.49864963E+00</totfact>
</mgrwt>
</event>
<event>
 6    1  0.1588846E-005  0.2284834E+04  0.7818608E-02  0.8483925E-01
         -1   -1    0    0    0  501 -0.00000000000E+00  0.00000000000E+00  0.90674152408E+03  0.90674152408E+03  0.00000000000E+00 0.  1.
          1   -1    0    0  501    0  0.00000000000E+00 -0.00000000000E+00 -0.14393485508E+04  0.14393485508E+04  0.00000000000E+00 0. -1.
         23    2    1    2    0    0  0.77371465020E+03 -0.83615676822E+03 -0.32558646533E+03  0.11882256554E+04  0.89895276832E+02 0.  0.
         11    1    3    3    0    0  0.53163389665E+03 -0.51124304473E+03 -0.21068954962E+03  0.76706853486E+03  0.00000000000E+00 0. -1.
        -11    1    3    3    0    0  0.24208075355E+03 -0.32491372349E+03 -0.11489691571E+03  0.42115712055E+03  0.00000000000E+00 0.  1.
         22    1    1    2    0    0 -0.77371465020E+03  0.83615676822E+03 -0.20702056136E+03  0.11578644194E+04  0.00000000000E+00 0.  1.
<mgrwt>
<rscale>  0 0.22848344E+04</rscale>
<asrwt>0</asrwt>
<pdfrwt beam="1">  1        1 0.22143824E+00 0.22848344E+04</pdfrwt>
<pdfrwt beam="2">  1       -1 0.13949870E+00 0.22848344E+04</pdfrwt>
<totfact> 0.27611482E+00</totfact>
</mgrwt>
</event>
<event>
 6    1  0.1588846E-005  0.1111285E+04  0.7818608E-02  0.9194262E-01
         -2   -1    0    0    0  501 -0.00000000000E+00  0.00000000000E+00  0.57837657084E+03  0.57837657084E+03  0.00000000000E+00 0.  1.
          2   -1    0    0  501    0  0.00000000000E+00 -0.00000000000E+00 -0.53380169648E+03  0.53380169648E+03  0.00000000000E+00 0. -1.
         23    2    1    2    0    0  0.40409770272E+03 -0.77641812823E+02 -0.34581217591E+03  0.54496996919E+03  0.89905516334E+02 0.  0.
         11    1    3    3    0    0  0.34552978152E+03 -0.45467213644E+02 -0.32061791734E+03  0.47355458645E+03  0.00000000000E+00 0. -1.
        -11    1    3    3    0    0  0.58567921207E+02 -0.32174599180E+02 -0.25194258575E+02  0.71415382741E+02  0.00000000000E+00 0.  1.
         22    1    1    2    0    0 -0.40409770272E+03  0.77641812823E+02  0.39038705027E+03  0.56720829812E+03  0.00000000000E+00 0.  1.
<mgrwt>
<rscale>  0 0.11112847E+04</rscale>
<asrwt>0</asrwt>
<pdfrwt beam="1">  1        2 0.82123337E-01 0.11112847E+04</pdfrwt>
<pdfrwt beam="2">  1       -2 0.88981011E-01 0.11112847E+04</pdfrwt>
<totfact> 0.61426348E+01</totfact>
</mgrwt>
</event>
<event>
 6    1  0.1588846E-005  0.3738615E+04  0.7818608E-02  0.8059458E-01
         -2   -1    0    0    0  501 -0.00000000000E+00  0.00000000000E+00  0.13216502194E+04  0.13216502194E+04  0.00000000000E+00 0.  1.
          2   -1    0    0  501    0  0.00000000000E+00 -0.00000000000E+00 -0.26439002316E+04  0.26439002316E+04  0.00000000000E+00 0. -1.
         23    2    1    2    0    0 -0.85323869046E+03 -0.16983084041E+03 -0.24151867095E+04  0.25686362083E+04  0.88917668634E+02 0.  0.
         11    1    3    3    0    0 -0.36407131603E+03 -0.76510534234E+02 -0.90584631742E+03  0.97926469138E+03  0.00000000000E+00 0. -1.
        -11    1    3    3    0    0 -0.48916737443E+03 -0.93320306172E+02 -0.15093403921E+04  0.15893715170E+04  0.00000000000E+00 0.  1.
         22    1    1    2    0    0  0.85323869046E+03  0.16983084041E+03  0.10929366972E+04  0.13969142427E+04  0.00000000000E+00 0.  1.
<mgrwt>
<rscale>  0 0.37386154E+04</rscale>
<asrwt>0</asrwt>
<pdfrwt beam="1">  1        2 0.40675387E+00 0.37386154E+04</pdfrwt>
<pdfrwt beam="2">  1       -2 0.20333081E+00 0.37386154E+04</pdfrwt>
<totfact> 0.29219925E-01</totfact>
</mgrwt>
</event>
<event>
 6    1  0.1588846E-005  0.8009424E+03  0.7818608E-02  0.9558654E-01
         -1   -1    0    0    0  501 -0.00000000000E+00  0.00000000000E+00  0.43213447592E+02  0.43213447592E+02  0.00000000000E+00 0.  1.
          1   -1    0    0  501    0  0.00000000000E+00 -0.00000000000E+00 -0.37112792159E+04  0.37112792159E+04  0.00000000000E+00 0. -1.
         23    2    1    2    0    0 -0.23864770938E+03 -0.20434762162E+03 -0.29828370924E+04  0.30006697281E+04  0.89392491959E+02 0.  0.
         11    1    3    3    0    0 -0.10700946603E+03 -0.14977403517E+03 -0.16491186979E+04  0.16593600475E+04  0.00000000000E+00 0. -1.
        -11    1    3    3    0    0 -0.13163824334E+03 -0.54573586445E+02 -0.13337183945E+04  0.13413096806E+04  0.00000000000E+00 0.  1.
         22    1    1    2    0    0  0.23864770938E+03  0.20434762162E+03 -0.68522867588E+03  0.75382293538E+03  0.00000000000E+00 0.  1.
<mgrwt>
<rscale>  0 0.80094237E+03</rscale>
<asrwt>0</asrwt>
<pdfrwt beam="1">  1        1 0.57096606E+00 0.80094237E+03</pdfrwt>
<pdfrwt beam="2">  1       -1 0.66482223E-02 0.80094237E+03</pdfrwt>
<totfact> 0.21738973E+01</totfact>
</mgrwt>
</event>
<event>
 6    1  0.1588846E-005  0.4313831E+04  0.7818608E-02  0.7944066E-01
         -2   -1    0    0    0  501 -0.00000000000E+00  0.00000000000E+00  0.98499230371E+03  0.98499230371E+03  0.00000000000E+00 0.  1.
          2   -1    0    0  501    0  0.00000000000E+00 -0.00000000000E+00 -0.47231680073E+04  0.47231680073E+04  0.00000000000E+00 0. -1.
         23    2    1    2    0    0  0.15105827562E+04 -0.45372629104E+03 -0.38148508300E+04  0.41290444553E+04  0.90517666474E+02 0.  0.
         13    1    3    3    0    0  0.11596925566E+04 -0.33642648890E+03 -0.30128611718E+04  0.32458284072E+04  0.00000000000E+00 0.  1.
        -13    1    3    3    0    0  0.35089019964E+03 -0.11729980214E+03 -0.80198965823E+03  0.88321604814E+03  0.00000000000E+00 0. -1.
         22    1    1    2    0    0 -0.15105827562E+04  0.45372629104E+03  0.76675126471E+02  0.15791158557E+04  0.00000000000E+00 0.  1.
<mgrwt>
<rscale>  0 0.43138308E+04</rscale>
<asrwt>0</asrwt>
<pdfrwt beam="1">  1        2 0.72664122E+00 0.43138308E+04</pdfrwt>
<pdfrwt beam="2">  1       -2 0.15153728E+00 0.43138308E+04</pdfrwt>
<totfact> 0.16078087E-02</totfact>
</mgrwt>
</event>
<event>
 6    1  0.1588846E-005  0.2165665E+04  0.7818608E-02  0.8532856E-01
         -2   -1    0    0    0  501 -0.00000000000E+00  0.00000000000E+00  0.75443836291E+03  0.75443836291E+03  0.00000000000E+00 0.  1.
          2   -1    0    0  501    0  0.00000000000E+00 -0.00000000000E+00 -0.15541715026E+04  0.15541715026E+04  0.00000000000E+00 0. -1.
         23    2    1    2    0    0 -0.83026062940E+03  0.67770155667E+03 -0.54980331893E+03  0.12081204162E+04  0.93054489115E+02 0.  0.
         13    1    3    3    0    0 -0.33305212701E+03  0.21583204847E+03 -0.21580570108E+03  0.45175136201E+03  0.00000000000E+00 0. -1.
        -13    1    3    3    0    0 -0.49720850238E+03  0.46186950819E+03 -0.33399761785E+03  0.75636905421E+03  0.00000000000E+00 0.  1.
         22    1    1    2    0    0  0.83026062940E+03 -0.67770155667E+03 -0.24992982072E+03  0.11004894493E+04  0.00000000000E+00 0.  1.
<mgrwt>
<rscale>  0 0.21656654E+04</rscale>
<asrwt>0</asrwt>
<pdfrwt beam="1">  1        2 0.23910331E+00 0.21656654E+04</pdfrwt>
<pdfrwt beam="2">  1       -2 0.11606744E+00 0.21656654E+04</pdfrwt>
<totfact> 0.62530198E+00</totfact>
</mgrwt>
</event>
<event>
 6    1  0.1588846E-005  0.1224539E+04  0.7818608E-02  0.9091645E-01
         -2   -1    0    0    0  501 -0.00000000000E+00  0.00000000000E+00  0.17834461417E+03  0.17834461417E+03  0.00000000000E+00 0.  1.
          2   -1    0    0  501    0  0.00000000000E+00 -0.00000000000E+00 -0.21019639180E+04  0.21019639180E+04  0.00000000000E+00 0. -1.
         23    2    1    2    0    0 -0.40984517815E+03 -0.42126266580E+03 -0.67133422987E+03  0.89695998242E+03  0.91718363581E+02 0.  0.
         13    1    3    3    0    0 -0.11627649127E+03 -0.16386701552E+03 -0.18336611246E+03  0.27202160281E+03  0.00000000000E+00 0.  1.
        -13    1    3    3    0    0 -0.29356868689E+03 -0.25739565028E+03 -0.48796811740E+03  0.62493837961E+03  0.00000000000E+00 0. -1.
         22    1    1    2    0    0  0.40984517815E+03  0.42126266580E+03 -0.12522850739E+04  0.13833485497E+04  0.00000000000E+00 0. -1.
<mgrwt>
<rscale>  0 0.12245390E+04</rscale>
<asrwt>0</asrwt>
<pdfrwt beam="1">  1        2 0.32337907E+00 0.12245390E+04</pdfrwt>
<pdfrwt beam="2">  1       -2 0.27437632E-01 0.12245390E+04</pdfrwt>
<totfact> 0.70011251E+01</totfact>
</mgrwt>
</event>
<event>
 6    1  0.1588846E-005  0.2389589E+04  0.7818608E-02  0.8443411E-01
         -2   -1    0    0    0  501 -0.00000000000E+00  0.00000000000E+00  0.38989446182E+03  0.38989446182E+03  0.00000000000E+00 0.  1.
          2   -1    0    0  501    0  0.00000000000E+00 -0.00000000000E+00 -0.36613354123E+04  0.36613354123E+04  0.00000000000E+00 0. -1.
         23    2    1    2    0    0 -0.83260734393E+03  0.78912238545E+03 -0.21938091059E+04  0.24773049963E+04  0.91063293408E+02 0.  0.
         13    1    3    3    0    0 -0.22558406126E+03  0.24257066753E+03 -0.71178024149E+03  0.78508586130E+03  0.00000000000E+00 0.  1.
        -13    1    3    3    0    0 -0.60702328267E+03  0.54655171792E+03 -0.14820288644E+04  0.16922191350E+04  0.00000000000E+00 0. -1.
         22    1    1    2    0    0  0.83260734393E+03 -0.78912238545E+03 -0.10776318446E+04  0.15739248778E+04  0.00000000000E+00 0.  1.
<mgrwt>
<rscale>  0 0.23895894E+04</rscale>
<asrwt>0</asrwt>
<pdfrwt beam="1">  1        2 0.56328237E+00 0.23895894E+04</pdfrwt>
<pdfrwt beam="2">  1       -2 0.59983763E-01 0.23895894E+04</pdfrwt>
<totfact> 0.14574773E+00</totfact>
</mgrwt>
</event>
<event>
 6    1  0.1588846E-005  0.2138632E+04  0.7818608E-02  0.8544414E-01
         -2   -1    0    0    0  501 -0.00000000000E+00  0.00000000000E+00  0.75327154691E+03  0.75327154691E+03  0.00000000000E+00 0.  1.
          2   -1    0    0  501    0  0.00000000000E+00 -0.00000000000E+00 -0.15179602417E+04  0.15179602417E+04  0.00000000000E+00 0. -1.
         23    2    1    2    0    0  0.27788139990E+02  0.88065873516E+03 -0.10230150092E+04  0.13530463644E+04  0.88559396361E+02 0.  0.
         11    1    3    3    0    0  0.44179255137E+02  0.32160148831E+03 -0.33679527252E+03  0.46777171725E+03  0.00000000000E+00 0. -1.
        -11    1    3    3    0    0 -0.16391115147E+02  0.55905724685E+03 -0.68621973668E+03  0.88527464717E+03  0.00000000000E+00 0.  1.
         22    1    1    2    0    0 -0.27788139990E+02 -0.88065873516E+03  0.25832631439E+03  0.91818542421E+03  0.00000000000E+00 0.  1.
<mgrwt>
<rscale>  0 0.21386316E+04</rscale>
<asrwt>0</asrwt>
<pdfrwt beam="1">  1        2 0.23353235E+00 0.21386316E+04</pdfrwt>
<pdfrwt beam="2">  1       -2 0.11588793E+00 0.21386316E+04</pdfrwt>
<totfact> 0.65931082E+00</totfact>
</mgrwt>
</event>
<event>
 6    1  0.1588846E-005  0.1931734E+04  0.7818608E-02  0.8639220E-01
         -2   -1    0    0    0  501 -0.00000000000E+00  0.00000000000E+00  0.33154799230E+03  0.33154799230E+03  0.00000000000E+00 0.  1.
          2   -1    0    0  501    0  0.00000000000E+00 -0.00000000000E+00 -0.28137676852E+04  0.28137676852E+04  0.00000000000E+00 0. -1.
         23    2    1    2    0    0  0.46568816848E+03 -0.67857329547E+02 -0.26131840695E+04  0.26568264193E+04  0.92333925602E+02 0.  0.
         13    1    3    3    0    0  0.19986992833E+03 -0.62056449822E+02 -0.13323899883E+04  0.13487260923E+04  0.00000000000E+00 0. -1.
        -13    1    3    3    0    0  0.26581824014E+03 -0.58008797249E+01 -0.12807940812E+04  0.13081003270E+04  0.00000000000E+00 0.  1.
         22    1    1    2    0    0 -0.46568816848E+03  0.67857329547E+02  0.13096437659E+03  0.48848925819E+03  0.00000000000E+00 0.  1.
<mgrwt>
<rscale>  0 0.19317340E+04</rscale>
<asrwt>0</asrwt>
<pdfrwt beam="1">  1        2 0.43288733E+00 0.19317340E+04</pdfrwt>
<pdfrwt beam="2">  1       -2 0.51007384E-01 0.19317340E+04</pdfrwt>
<totfact> 0.77129734E+00</totfact>
</mgrwt>
</event>
<event>
 6    1  0.1588846E-005  0.5403914E+04  0.7818608E-02  0.7769051E-01
         -1   -1    0    0    0  501 -0.00000000000E+00  0.00000000000E+00  0.39663408911E+04  0.39663408911E+04  0.00000000000E+00 0.  1.
          1   -1    0    0  501    0  0.00000000000E+00 -0.00000000000E+00 -0.18406314412E+04  0.18406314412E+04  0.00000000000E+00 0. -1.
         23    2    1    2    0    0 -0.14778966355E+04  0.18350896853E+04  0.24825274183E+04  0.34238962360E+04  0.91599313310E+02 0.  0.
         13    1    3    3    0    0 -0.16734474538E+03  0.17981279480E+03  0.29129904612E+03  0.38104073174E+03  0.00000000000E+00 0.  1.
        -13    1    3    3    0    0 -0.13105518901E+04  0.16552768905E+04  0.21912283722E+04  0.30428555043E+04  0.00000000000E+00 0. -1.
         22    1    1    2    0    0  0.14778966355E+04 -0.18350896853E+04 -0.35681796836E+03  0.23830760963E+04  0.00000000000E+00 0. -1.
<mgrwt>
<rscale>  0 0.54039140E+04</rscale>
<asrwt>0</asrwt>
<pdfrwt beam="1">  1        1 0.28317407E+00 0.54039140E+04</pdfrwt>
<pdfrwt beam="2">  1       -1 0.61020629E+00 0.54039140E+04</pdfrwt>
<totfact> 0.10930848E-03</totfact>
</mgrwt>
</event>
<event>
 6    1  0.1588846E-005  0.2043137E+04  0.7818608E-02  0.8586714E-01
          1   -1    0    0  501    0  0.00000000000E+00  0.00000000000E+00  0.13543493523E+04  0.13543493523E+04  0.00000000000E+00 0. -1.
         -1   -1    0    0    0  501 -0.00000000000E+00 -0.00000000000E+00 -0.77055599126E+03  0.77055599126E+03  0.00000000000E+00 0.  1.
         23    2    1    2    0    0  0.17165793548E+03 -0.79590405862E+03  0.93070519053E+03  0.12398756634E+04  0.90276195933E+02 0.  0.
         13    1    3    3    0    0  0.45538564268E+02 -0.35258730036E+03  0.45620889160E+03  0.57837541267E+03  0.00000000000E+00 0. -1.
        -13    1    3    3    0    0  0.12611937121E+03 -0.44331675826E+03  0.47449629893E+03  0.66150025068E+03  0.00000000000E+00 0.  1.
         22    1    1    2    0    0 -0.17165793548E+03  0.79590405862E+03 -0.34691182952E+03  0.88502968018E+03  0.00000000000E+00 0.  1.
<mgrwt>
<rscale>  0 0.20431368E+04</rscale>
<asrwt>0</asrwt>
<pdfrwt beam="1">  1        1 0.20836144E+00 0.20431368E+04</pdfrwt>
<pdfrwt beam="2">  1       -1 0.11854708E+00 0.20431368E+04</pdfrwt>
<totfact> 0.48779097E+00</totfact>
</mgrwt>
</event>
<event>
 6    1  0.1588846E-005  0.3320482E+04  0.7818608E-02  0.8157703E-01
         -2   -1    0    0    0  501 -0.00000000000E+00  0.00000000000E+00  0.10782884498E+04  0.10782884498E+04  0.00000000000E+00 0.  1.
          2   -1    0    0  501    0  0.00000000000E+00 -0.00000000000E+00 -0.25562727339E+04  0.25562727339E+04  0.00000000000E+00 0. -1.
         23    2    1    2    0    0  0.57015882470E+03  0.30368505449E+03  0.93306285585E+03  0.11384734432E+04  0.90607892179E+02 0.  0.
         13    1    3    3    0    0  0.51727104025E+03  0.28526968914E+03  0.80306553625E+03  0.99692646676E+03  0.00000000000E+00 0. -1.
        -13    1    3    3    0    0  0.52887784456E+02  0.18415365341E+02  0.12999731961E+03  0.14154697641E+03  0.00000000000E+00 0.  1.
         22    1    1    2    0    0 -0.57015882470E+03 -0.30368505449E+03 -0.24110471399E+04  0.24960877405E+04  0.00000000000E+00 0. -1.
<mgrwt>
<rscale>  0 0.33204815E+04</rscale>
<asrwt>0</asrwt>
<pdfrwt beam="1">  1        2 0.39327272E+00 0.33204815E+04</pdfrwt>
<pdfrwt beam="2">  1       -2 0.16589053E+00 0.33204815E+04</pdfrwt>
<totfact> 0.61386289E-01</totfact>
</mgrwt>
</event>
<event>
 6    1  0.1588846E-005  0.2138294E+04  0.7818608E-02  0.8544560E-01
         -1   -1    0    0    0  501 -0.00000000000E+00  0.00000000000E+00  0.67166081959E+03  0.67166081959E+03  0.00000000000E+00 0.  1.
          1   -1    0    0  501    0  0.00000000000E+00 -0.00000000000E+00 -0.17018633557E+04  0.17018633557E+04  0.00000000000E+00 0. -1.
         23    2    1    2    0    0 -0.31577800109E+02  0.10552880280E+04 -0.34330798978E+03  0.11139789807E+04  0.91971811252E+02 0.  0.
         11    1    3    3    0    0 -0.51165843629E+02  0.81160072967E+03 -0.29298114068E+03  0.86437933614E+03  0.00000000000E+00 0. -1.
        -11    1    3    3    0    0  0.19588043521E+02  0.24368729833E+03 -0.50326849097E+02  0.24959964454E+03  0.00000000000E+00 0.  1.
         22    1    1    2    0    0  0.31577800109E+02 -0.10552880280E+04 -0.68689454632E+03  0.12595451946E+04  0.00000000000E+00 0. -1.
<mgrwt>
<rscale>  0 0.21382937E+04</rscale>
<asrwt>0</asrwt>
<pdfrwt beam="1">  1        1 0.26182513E+00 0.21382937E+04</pdfrwt>
<pdfrwt beam="2">  1       -1 0.10333243E+00 0.21382937E+04</pdfrwt>
<totfact> 0.38487713E+00</totfact>
</mgrwt>
</event>
<event>
 6    1  0.1588846E-005  0.3095716E+04  0.7818608E-02  0.8216915E-01
          2   -1    0    0  501    0  0.00000000000E+00  0.00000000000E+00  0.31666785755E+04  0.31666785755E+04  0.00000000000E+00 0. -1.
         -2   -1    0    0    0  501 -0.00000000000E+00 -0.00000000000E+00 -0.75658598735E+03  0.75658598735E+03  0.00000000000E+00 0.  1.
         23    2    1    2    0    0 -0.12044122825E+04 -0.95965773411E+03  0.13808558550E+04  0.20710010380E+04  0.10358809854E+03 0.  0.
         13    1    3    3    0    0 -0.68669681471E+03 -0.52528060749E+03  0.70965042668E+03  0.11185150692E+04  0.00000000000E+00 0.  1.
        -13    1    3    3    0    0 -0.51771546775E+03 -0.43437712662E+03  0.67120542831E+03  0.95248596876E+03  0.00000000000E+00 0. -1.
         22    1    1    2    0    0  0.12044122825E+04  0.95965773411E+03  0.10292367331E+04  0.18522635249E+04  0.00000000000E+00 0. -1.
<mgrwt>
<rscale>  0 0.30957162E+04</rscale>
<asrwt>0</asrwt>
<pdfrwt beam="1">  1        2 0.48718131E+00 0.30957162E+04</pdfrwt>
<pdfrwt beam="2">  1       -2 0.11639785E+00 0.30957162E+04</pdfrwt>
<totfact> 0.66224817E-01</totfact>
</mgrwt>
</event>
<event>
 6    1  0.1588846E-005  0.4800200E+04  0.7818608E-02  0.7860090E-01
          2   -1    0    0  501    0  0.00000000000E+00  0.00000000000E+00  0.11913872222E+04  0.11913872222E+04  0.00000000000E+00 0. -1.
         -2   -1    0    0    0  501 -0.00000000000E+00 -0.00000000000E+00 -0.48351039254E+04  0.48351039254E+04  0.00000000000E+00 0.  1.
         23    2    1    2    0    0 -0.14860470883E+04 -0.12367442827E+04 -0.38840953474E+02  0.19358919811E+04  0.91086626461E+02 0.  0.
         11    1    3    3    0    0 -0.90676951212E+03 -0.78480282927E+03  0.13578705185E+02  0.11993043026E+04  0.00000000000E+00 0. -1.
        -11    1    3    3    0    0 -0.57927757616E+03 -0.45194145344E+03 -0.52419658659E+02  0.73658767855E+03  0.00000000000E+00 0.  1.
         22    1    1    2    0    0  0.14860470883E+04  0.12367442827E+04 -0.36048757498E+04  0.40905991665E+04  0.00000000000E+00 0.  1.
<mgrwt>
<rscale>  0 0.48002004E+04</rscale>
<asrwt>0</asrwt>
<pdfrwt beam="1">  1        2 0.18329034E+00 0.48002004E+04</pdfrwt>
<pdfrwt beam="2">  1       -2 0.74386215E+00 0.48002004E+04</pdfrwt>
<totfact> 0.21752678E-03</totfact>
</mgrwt>
</event>
<event>
 6    1  0.1588846E-005  0.2655906E+04  0.7818608E-02  0.8349455E-01
          2   -1    0    0  501    0  0.00000000000E+00  0.00000000000E+00  0.19222979006E+04  0.19222979006E+04  0.00000000000E+00 0. -1.
         -2   -1    0    0    0  501 -0.00000000000E+00 -0.00000000000E+00 -0.91737072488E+03  0.91737072488E+03  0.00000000000E+00 0.  1.
         23    2    1    2    0    0 -0.67587944503E+03  0.19573588526E+03  0.17052040534E+04  0.18469384172E+04  0.91296726345E+02 0.  0.
         13    1    3    3    0    0 -0.22667915397E+03  0.34324736878E+02  0.63481063304E+03  0.67494160209E+03  0.00000000000E+00 0.  1.
        -13    1    3    3    0    0 -0.44920029105E+03  0.16141114838E+03  0.10703934204E+04  0.11719968151E+04  0.00000000000E+00 0. -1.
         22    1    1    2    0    0  0.67587944503E+03 -0.19573588526E+03 -0.70027687768E+03  0.99273020826E+03  0.00000000000E+00 0.  1.
<mgrwt>
<rscale>  0 0.26559065E+04</rscale>
<asrwt>0</asrwt>
<pdfrwt beam="1">  1        2 0.29573814E+00 0.26559065E+04</pdfrwt>
<pdfrwt beam="2">  1       -2 0.14113396E+00 0.26559065E+04</pdfrwt>
<totfact> 0.22855071E+00</totfact>
</mgrwt>
</event>
<event>
 6    1  0.1588846E-005  0.1217570E+04  0.7818608E-02  0.9097615E-01
         -1   -1    0    0    0  501 -0.00000000000E+00  0.00000000000E+00  0.54534816529E+03  0.54534816529E+03  0.00000000000E+00 0.  1.
          1   -1    0    0  501    0  0.00000000000E+00 -0.00000000000E+00 -0.67960129954E+03  0.67960129954E+03  0.00000000000E+00 0. -1.
         23    2    1    2    0    0  0.36203556800E+03  0.41602421257E+03  0.18366433690E+03  0.58838256623E+03  0.91189679502E+02 0.  0.
         13    1    3    3    0    0  0.15389449110E+03  0.23236995119E+03  0.63185770832E+02  0.28578269759E+03  0.00000000000E+00 0. -1.
        -13    1    3    3    0    0  0.20814107689E+03  0.18365426138E+03  0.12047856607E+03  0.30259986863E+03  0.00000000000E+00 0.  1.
         22    1    1    2    0    0 -0.36203556800E+03 -0.41602421257E+03 -0.31791747115E+03  0.63656689861E+03  0.00000000000E+00 0. -1.
<mgrwt>
<rscale>  0 0.12175702E+04</rscale>
<asrwt>0</asrwt>
<pdfrwt beam="1">  1        1 0.10455405E+00 0.12175702E+04</pdfrwt>
<pdfrwt beam="2">  1       -1 0.83899718E-01 0.12175702E+04</pdfrwt>
<totfact> 0.39685187E+01</totfact>
</mgrwt>
</event>
<event>
 6    1  0.1588846E-005  0.1726272E+04  0.7818608E-02  0.8746521E-01
          2   -1    0    0  501    0  0.00000000000E+00  0.00000000000E+00  0.18023014595E+04  0.18023014595E+04  0.00000000000E+00 0.  1.
         -2   -1    0    0    0  501 -0.00000000000E+00 -0.00000000000E+00 -0.41336248315E+03  0.41336248315E+03  0.00000000000E+00 0. -1.
         23    2    1    2    0    0 -0.76867230168E+03  0.18057109878E+03  0.11362268105E+04  0.13866123955E+04  0.90661686089E+02 0.  0.
         11    1    3    3    0    0 -0.66384241152E+02 -0.47915395406E+01  0.70985507762E+02  0.97307598042E+02  0.00000000000E+00 0.  1.
        -11    1    3    3    0    0 -0.70228806053E+03  0.18536263832E+03  0.10652413028E+04  0.12893047975E+04  0.00000000000E+00 0. -1.
         22    1    1    2    0    0  0.76867230168E+03 -0.18057109878E+03  0.25271216582E+03  0.82905154715E+03  0.00000000000E+00 0.  1.
<mgrwt>
<rscale>  0 0.17262721E+04</rscale>
<asrwt>0</asrwt>
<pdfrwt beam="1">  1        2 0.27727714E+00 0.17262721E+04</pdfrwt>
<pdfrwt beam="2">  1       -2 0.63594229E-01 0.17262721E+04</pdfrwt>
<totfact> 0.18691576E+01</totfact>
</mgrwt>
</event>
<event>
 6    1  0.1588846E-005  0.1456353E+04  0.7818608E-02  0.8914008E-01
          1   -1    0    0  501    0  0.00000000000E+00  0.00000000000E+00  0.14546826362E+04  0.14546826362E+04  0.00000000000E+00 0. -1.
         -1   -1    0    0    0  501 -0.00000000000E+00 -0.00000000000E+00 -0.36450618109E+03  0.36450618109E+03  0.00000000000E+00 0.  1.
         23    2    1    2    0    0 -0.39304825847E+03 -0.48032646538E+03  0.81553282861E+02  0.63490795937E+03  0.10609774783E+03 0.  0.
         11    1    3    3    0    0 -0.32800435049E+03 -0.34272232030E+03  0.88381622393E+02  0.48255233286E+03  0.00000000000E+00 0.  1.
        -11    1    3    3    0    0 -0.65043907988E+02 -0.13760414508E+03 -0.68283395326E+01  0.15235562652E+03  0.00000000000E+00 0. -1.
         22    1    1    2    0    0  0.39304825847E+03  0.48032646538E+03  0.10086231723E+04  0.11842808579E+04  0.00000000000E+00 0. -1.
<mgrwt>
<rscale>  0 0.14563527E+04</rscale>
<asrwt>0</asrwt>
<pdfrwt beam="1">  1        1 0.22379733E+00 0.14563527E+04</pdfrwt>
<pdfrwt beam="2">  1       -1 0.56077875E-01 0.14563527E+04</pdfrwt>
<totfact> 0.21966734E+01</totfact>
</mgrwt>
</event>
<event>
 6    1  0.1588846E-005  0.1430968E+04  0.7818608E-02  0.8931702E-01
          2   -1    0    0  501    0  0.00000000000E+00  0.00000000000E+00  0.10569853832E+04  0.10569853832E+04  0.00000000000E+00 0. -1.
         -2   -1    0    0    0  501 -0.00000000000E+00 -0.00000000000E+00 -0.48431861314E+03  0.48431861314E+03  0.00000000000E+00 0.  1.
         23    2    1    2    0    0 -0.24815268544E+03 -0.28642551268E+03 -0.35801395963E+03  0.53642293362E+03  0.12631800669E+03 0.  0.
         11    1    3    3    0    0 -0.49834390928E+02 -0.12036910328E+03 -0.18093037177E+03  0.22295288061E+03  0.00000000000E+00 0. -1.
        -11    1    3    3    0    0 -0.19831829451E+03 -0.16605640939E+03 -0.17708358786E+03  0.31347005300E+03  0.00000000000E+00 0.  1.
         22    1    1    2    0    0  0.24815268544E+03  0.28642551268E+03  0.93068072967E+03  0.10048810627E+04  0.00000000000E+00 0. -1.
<mgrwt>
<rscale>  0 0.14309685E+04</rscale>
<asrwt>0</asrwt>
<pdfrwt beam="1">  1        2 0.16261314E+00 0.14309685E+04</pdfrwt>
<pdfrwt beam="2">  1       -2 0.74510556E-01 0.14309685E+04</pdfrwt>
<totfact> 0.36467323E+01</totfact>
</mgrwt>
</event>
<event>
 6    1  0.1588846E-005  0.1154971E+04  0.7818608E-02  0.9153210E-01
         -4   -1    0    0    0  501 -0.00000000000E+00  0.00000000000E+00  0.17644770474E+04  0.17644770474E+04  0.00000000000E+00 0.  1.
          4   -1    0    0  501    0  0.00000000000E+00 -0.00000000000E+00 -0.18900195369E+03  0.18900195369E+03  0.00000000000E+00 0. -1.
         23    2    1    2    0    0 -0.66516186315E+02 -0.56897807400E+03  0.84561948667E+03  0.10256591593E+04  0.93509053276E+02 0.  0.
         11    1    3    3    0    0 -0.29033969741E+02 -0.60958225268E+02  0.66339365896E+02  0.94656157191E+02  0.00000000000E+00 0. -1.
        -11    1    3    3    0    0 -0.37482216575E+02 -0.50801984873E+03  0.77928012077E+03  0.93100300209E+03  0.00000000000E+00 0.  1.
         22    1    1    2    0    0  0.66516186315E+02  0.56897807400E+03  0.72985560705E+03  0.92781984182E+03  0.00000000000E+00 0.  1.
<mgrwt>
<rscale>  0 0.11549712E+04</rscale>
<asrwt>0</asrwt>
<pdfrwt beam="1">  1        4 0.29077225E-01 0.11549712E+04</pdfrwt>
<pdfrwt beam="2">  1       -4 0.27145800E+00 0.11549712E+04</pdfrwt>
<totfact> 0.10588600E+00</totfact>
</mgrwt>
</event>
<event>
 6    1  0.1588846E-005  0.2324474E+04  0.7818608E-02  0.8468333E-01
          1   -1    0    0  501    0  0.00000000000E+00  0.00000000000E+00  0.12970278554E+04  0.12970278554E+04  0.00000000000E+00 0. -1.
         -1   -1    0    0    0  501 -0.00000000000E+00 -0.00000000000E+00 -0.10414541178E+04  0.10414541178E+04  0.00000000000E+00 0.  1.
         23    2    1    2    0    0 -0.99503757919E+03  0.21046624311E+03 -0.43409465025E+03  0.11096458129E+04  0.92086053502E+02 0.  0.
         13    1    3    3    0    0 -0.28005096014E+03  0.88464125395E+02 -0.15850150416E+03  0.33373218092E+03  0.00000000000E+00 0.  1.
        -13    1    3    3    0    0 -0.71498661905E+03  0.12200211771E+03 -0.27559314609E+03  0.77591363199E+03  0.00000000000E+00 0. -1.
         22    1    1    2    0    0  0.99503757919E+03 -0.21046624311E+03  0.68966838789E+03  0.12288361603E+04  0.00000000000E+00 0. -1.
<mgrwt>
<rscale>  0 0.23244741E+04</rscale>
<asrwt>0</asrwt>
<pdfrwt beam="1">  1        1 0.19954275E+00 0.23244741E+04</pdfrwt>
<pdfrwt beam="2">  1       -1 0.16022371E+00 0.23244741E+04</pdfrwt>
<totfact> 0.23869265E+00</totfact>
</mgrwt>
</event>
<event>
 6    1  0.1588846E-005  0.1374895E+04  0.7818608E-02  0.8972194E-01
         -2   -1    0    0    0  501 -0.00000000000E+00  0.00000000000E+00  0.31246593583E+03  0.31246593583E+03  0.00000000000E+00 0. -1.
          2   -1    0    0  501    0  0.00000000000E+00 -0.00000000000E+00 -0.15124348180E+04  0.15124348180E+04  0.00000000000E+00 0.  1.
         23    2    1    2    0    0 -0.55549002827E+03 -0.39837231144E+03 -0.65130277715E+03  0.94837113950E+03  0.89122615945E+02 0.  0.
         11    1    3    3    0    0 -0.18069377664E+03 -0.80112457267E+02 -0.18479740596E+03  0.27058885413E+03  0.00000000000E+00 0.  1.
        -11    1    3    3    0    0 -0.37479625163E+03 -0.31825985418E+03 -0.46650537119E+03  0.67778228537E+03  0.00000000000E+00 0. -1.
         22    1    1    2    0    0  0.55549002827E+03  0.39837231144E+03 -0.54866610506E+03  0.87652961438E+03  0.00000000000E+00 0. -1.
<mgrwt>
<rscale>  0 0.13748954E+04</rscale>
<asrwt>0</asrwt>
<pdfrwt beam="1">  1        2 0.23268227E+00 0.13748954E+04</pdfrwt>
<pdfrwt beam="2">  1       -2 0.48071684E-01 0.13748954E+04</pdfrwt>
<totfact> 0.49915405E+01</totfact>
</mgrwt>
</event>
<event>
 6    1  0.1588846E-005  0.2713133E+04  0.7818608E-02  0.8330756E-01
         -2   -1    0    0    0  501 -0.00000000000E+00  0.00000000000E+00  0.21075710004E+04  0.21075710004E+04  0.00000000000E+00 0.  1.
          2   -1    0    0  501    0  0.00000000000E+00 -0.00000000000E+00 -0.87317238607E+03  0.87317238607E+03  0.00000000000E+00 0. -1.
         23    2    1    2    0    0  0.86844296946E+03 -0.94556923715E+03  0.10939557021E+04  0.16892254481E+04  0.91919328529E+02 0.  0.
         13    1    3    3    0    0  0.51511145010E+03 -0.49393988393E+03  0.59847154213E+03  0.93138853423E+03  0.00000000000E+00 0. -1.
        -13    1    3    3    0    0  0.35333151936E+03 -0.45162935322E+03  0.49548415993E+03  0.75783691386E+03  0.00000000000E+00 0.  1.
         22    1    1    2    0    0 -0.86844296946E+03  0.94556923715E+03  0.14044291223E+03  0.12915179383E+04  0.00000000000E+00 0. -1.
<mgrwt>
<rscale>  0 0.27131331E+04</rscale>
<asrwt>0</asrwt>
<pdfrwt beam="1">  1        2 0.13433421E+00 0.27131331E+04</pdfrwt>
<pdfrwt beam="2">  1       -2 0.32424169E+00 0.27131331E+04</pdfrwt>
<totfact> 0.60418663E-01</totfact>
</mgrwt>
</event>
<event>
 6    1  0.2715607E-005  0.2378868E+04  0.7818608E-02  0.8447458E-01
         -1   -1    0    0    0  501 -0.00000000000E+00  0.00000000000E+00  0.60647824369E+03  0.60647824369E+03  0.00000000000E+00 0.  1.
          1   -1    0    0  501    0  0.00000000000E+00 -0.00000000000E+00 -0.23327355952E+04  0.23327355952E+04  0.00000000000E+00 0. -1.
         23    2    1    2    0    0  0.78320471883E+03  0.87230913911E+03 -0.10994823824E+04  0.16098607152E+04  0.91962748630E+02 0.  0.
         13    1    3    3    0    0  0.41570956853E+03  0.50182461275E+03 -0.55878865024E+03  0.85842130854E+03  0.00000000000E+00 0. -1.
        -13    1    3    3    0    0  0.36749515030E+03  0.37048452636E+03 -0.54069373220E+03  0.75143940661E+03  0.00000000000E+00 0.  1.
         22    1    1    2    0    0 -0.78320471883E+03 -0.87230913911E+03 -0.62677496910E+03  0.13293531238E+04  0.00000000000E+00 0. -1.
<mgrwt>
<rscale>  0 0.23788681E+04</rscale>
<asrwt>0</asrwt>
<pdfrwt beam="1">  1        1 0.35888240E+00 0.23788681E+04</pdfrwt>
<pdfrwt beam="2">  1       -1 0.93304346E-01 0.23788681E+04</pdfrwt>
<totfact> 0.17685241E+00</totfact>
</mgrwt>
</event>
<event>
 6    1  0.1588846E-005  0.1792979E+04  0.7818608E-02  0.8710042E-01
         -1   -1    0    0    0  501 -0.00000000000E+00  0.00000000000E+00  0.61102923174E+03  0.61102923174E+03  0.00000000000E+00 0.  1.
          1   -1    0    0  501    0  0.00000000000E+00 -0.00000000000E+00 -0.13153103173E+04  0.13153103173E+04  0.00000000000E+00 0. -1.
         23    2    1    2    0    0  0.70608133236E+03  0.53984543761E+03 -0.45905643591E+03  0.10043205290E+04  0.89123337525E+02 0.  0.
         11    1    3    3    0    0  0.47379422500E+03  0.31218314049E+03 -0.30972342888E+03  0.64642701309E+03  0.00000000000E+00 0. -1.
        -11    1    3    3    0    0  0.23228710736E+03  0.22766229712E+03 -0.14933300703E+03  0.35789351596E+03  0.00000000000E+00 0.  1.
         22    1    1    2    0    0 -0.70608133236E+03 -0.53984543761E+03 -0.24522464964E+03  0.92201901998E+03  0.00000000000E+00 0.  1.
<mgrwt>
<rscale>  0 0.17929786E+04</rscale>
<asrwt>0</asrwt>
<pdfrwt beam="1">  1        1 0.20235543E+00 0.17929786E+04</pdfrwt>
<pdfrwt beam="2">  1       -1 0.94004497E-01 0.17929786E+04</pdfrwt>
<totfact> 0.91313012E+00</totfact>
</mgrwt>
</event>
<event>
 6    1  0.1588846E-005  0.1090427E+04  0.7818608E-02  0.9214573E-01
          3   -1    0    0  501    0  0.00000000000E+00  0.00000000000E+00  0.24741587811E+04  0.24741587811E+04  0.00000000000E+00 0. -1.
         -3   -1    0    0    0  501 -0.00000000000E+00 -0.00000000000E+00 -0.12014489994E+03  0.12014489994E+03  0.00000000000E+00 0.  1.
         23    2    1    2    0    0  0.65090146542E+02  0.56679230326E+02  0.24568679186E+04  0.24600344912E+04  0.90113630546E+02 0.  0.
         11    1    3    3    0    0  0.35801361030E+01  0.53346535890E+02  0.67984089156E+03  0.68194010595E+03  0.00000000000E+00 0. -1.
        -11    1    3    3    0    0  0.61510010439E+02  0.33326944357E+01  0.17770270270E+04  0.17780943853E+04  0.00000000000E+00 0.  1.
         22    1    1    2    0    0 -0.65090146542E+02 -0.56679230326E+02 -0.10285403740E+03  0.13426918982E+03  0.00000000000E+00 0.  1.
<mgrwt>
<rscale>  0 0.10904266E+04</rscale>
<asrwt>0</asrwt>
<pdfrwt beam="1">  1        3 0.38063977E+00 0.10904266E+04</pdfrwt>
<pdfrwt beam="2">  1       -3 0.18483833E-01 0.10904266E+04</pdfrwt>
<totfact> 0.99355314E-01</totfact>
</mgrwt>
</event>
<event>
 6    1  0.1588846E-005  0.2486464E+04  0.7818608E-02  0.8407824E-01
          2   -1    0    0  501    0  0.00000000000E+00  0.00000000000E+00  0.13001274772E+04  0.13001274772E+04  0.00000000000E+00 0. -1.
         -2   -1    0    0    0  501 -0.00000000000E+00 -0.00000000000E+00 -0.11888260374E+04  0.11888260374E+04  0.00000000000E+00 0.  1.
         23    2    1    2    0    0  0.71303139985E+03 -0.52988957327E+03  0.92395589070E+03  0.12849585007E+04  0.90703492458E+02 0.  0.
         11    1    3    3    0    0  0.34740579112E+03 -0.26699226044E+03  0.52016175497E+03  0.68010580219E+03  0.00000000000E+00 0. -1.
        -11    1    3    3    0    0  0.36562560873E+03 -0.26289731282E+03  0.40379413573E+03  0.60485269852E+03  0.00000000000E+00 0.  1.
         22    1    1    2    0    0 -0.71303139985E+03  0.52988957327E+03 -0.81265445088E+03  0.12039950139E+04  0.00000000000E+00 0.  1.
<mgrwt>
<rscale>  0 0.24864637E+04</rscale>
<asrwt>0</asrwt>
<pdfrwt beam="1">  1        2 0.20001961E+00 0.24864637E+04</pdfrwt>
<pdfrwt beam="2">  1       -2 0.18289631E+00 0.24864637E+04</pdfrwt>
<totfact> 0.25560859E+00</totfact>
</mgrwt>
</event>
<event>
 6    1  0.1588846E-005  0.1428464E+04  0.7818608E-02  0.8933469E-01
         -1   -1    0    0    0  501 -0.00000000000E+00  0.00000000000E+00  0.88553578402E+03  0.88553578402E+03  0.00000000000E+00 0.  1.
          1   -1    0    0  501    0  0.00000000000E+00 -0.00000000000E+00 -0.57606619593E+03  0.57606619593E+03  0.00000000000E+00 0. -1.
         23    2    1    2    0    0 -0.35865050654E+03 -0.60986129618E+03  0.78618263360E+02  0.71738875744E+03  0.88909007131E+02 0.  0.
         13    1    3    3    0    0 -0.10861159387E+03 -0.25957388128E+03  0.52399537923E+02  0.28621808074E+03  0.00000000000E+00 0. -1.
        -13    1    3    3    0    0 -0.25003891267E+03 -0.35028741490E+03  0.26218725437E+02  0.43117067670E+03  0.00000000000E+00 0.  1.
         22    1    1    2    0    0  0.35865050654E+03  0.60986129618E+03  0.23085132474E+03  0.74421322251E+03  0.00000000000E+00 0.  1.
<mgrwt>
<rscale>  0 0.14284638E+04</rscale>
<asrwt>0</asrwt>
<pdfrwt beam="1">  1        1 0.88625568E-01 0.14284638E+04</pdfrwt>
<pdfrwt beam="2">  1       -1 0.13623627E+00 0.14284638E+04</pdfrwt>
<totfact> 0.15901278E+01</totfact>
</mgrwt>
</event>
<event>
 6    1  0.1588846E-005  0.3262895E+04  0.7818608E-02  0.8172401E-01
         -1   -1    0    0    0  501 -0.00000000000E+00  0.00000000000E+00  0.12089312754E+04  0.12089312754E+04  0.00000000000E+00 0.  1.
          1   -1    0    0  501    0  0.00000000000E+00 -0.00000000000E+00 -0.22016311093E+04  0.22016311093E+04  0.00000000000E+00 0. -1.
         23    2    1    2    0    0 -0.15271811950E+04 -0.50233875682E+03 -0.77884454425E+03  0.17887237016E+04  0.91142897744E+02 0.  0.
         11    1    3    3    0    0 -0.12948745241E+04 -0.45769290267E+03 -0.65172317768E+03  0.15201729924E+04  0.00000000000E+00 0. -1.
        -11    1    3    3    0    0 -0.23230667082E+03 -0.44645854143E+02 -0.12712136657E+03  0.26855070925E+03  0.00000000000E+00 0.  1.
         22    1    1    2    0    0  0.15271811950E+04  0.50233875682E+03 -0.21385528970E+03  0.16218386830E+04  0.00000000000E+00 0.  1.
<mgrwt>
<rscale>  0 0.32628949E+04</rscale>
<asrwt>0</asrwt>
<pdfrwt beam="1">  1        1 0.33871248E+00 0.32628949E+04</pdfrwt>
<pdfrwt beam="2">  1       -1 0.18598943E+00 0.32628949E+04</pdfrwt>
<totfact> 0.34103614E-01</totfact>
</mgrwt>
</event>
<event>
 6    1  0.1588846E-005  0.5504517E+04  0.7818608E-02  0.7755068E-01
          1   -1    0    0  501    0  0.00000000000E+00  0.00000000000E+00  0.33563760297E+04  0.33563760297E+04  0.00000000000E+00 0. -1.
         -1   -1    0    0    0  501 -0.00000000000E+00 -0.00000000000E+00 -0.22568765305E+04  0.22568765305E+04  0.00000000000E+00 0.  1.
         23    2    1    2    0    0  0.14416307257E+03 -0.95495954461E+03 -0.20774262397E+04  0.22927724934E+04  0.91516126456E+02 0.  0.
         13    1    3    3    0    0  0.66797813267E+02 -0.69525268681E+03 -0.14579537966E+04  0.16166222563E+04  0.00000000000E+00 0. -1.
        -13    1    3    3    0    0  0.77365259304E+02 -0.25970685780E+03 -0.61947244308E+03  0.67615023706E+03  0.00000000000E+00 0.  1.
         22    1    1    2    0    0 -0.14416307257E+03  0.95495954461E+03  0.31769257390E+04  0.33204800668E+04  0.00000000000E+00 0. -1.
<mgrwt>
<rscale>  0 0.55045168E+04</rscale>
<asrwt>0</asrwt>
<pdfrwt beam="1">  1        1 0.51636554E+00 0.55045168E+04</pdfrwt>
<pdfrwt beam="2">  1       -1 0.34721177E+00 0.55045168E+04</pdfrwt>
<totfact> 0.36353842E-03</totfact>
</mgrwt>
</event>
<event>
 6    1  0.1588846E-005  0.1266239E+04  0.7818608E-02  0.9056774E-01
          2   -1    0    0  501    0  0.00000000000E+00  0.00000000000E+00  0.70720451268E+03  0.70720451268E+03  0.00000000000E+00 0. -1.
         -2   -1    0    0    0  501 -0.00000000000E+00 -0.00000000000E+00 -0.56679587743E+03  0.56679587743E+03  0.00000000000E+00 0.  1.
         23    2    1    2    0    0  0.18409117691E+03 -0.59077748708E+03 -0.48351830641E+02  0.62705517284E+03  0.89177853789E+02 0.  0.
         11    1    3    3    0    0  0.49089107097E+01 -0.80644102632E+02  0.16599561580E+02  0.82480992588E+02  0.00000000000E+00 0. -1.
        -11    1    3    3    0    0  0.17918226620E+03 -0.51013338445E+03 -0.64951392221E+02  0.54457418026E+03  0.00000000000E+00 0.  1.
         22    1    1    2    0    0 -0.18409117691E+03  0.59077748708E+03  0.18876046590E+03  0.64694521727E+03  0.00000000000E+00 0.  1.
<mgrwt>
<rscale>  0 0.12662395E+04</rscale>
<asrwt>0</asrwt>
<pdfrwt beam="1">  1        2 0.10880069E+00 0.12662395E+04</pdfrwt>
<pdfrwt beam="2">  1       -2 0.87199365E-01 0.12662395E+04</pdfrwt>
<totfact> 0.45177641E+01</totfact>
</mgrwt>
</event>
<event>
 6    1  0.1588846E-005  0.1053254E+04  0.7818608E-02  0.9251991E-01
         -2   -1    0    0    0  501 -0.00000000000E+00  0.00000000000E+00  0.97982672577E+02  0.97982672577E+02  0.00000000000E+00 0.  1.
          2   -1    0    0  501    0  0.00000000000E+00 -0.00000000000E+00 -0.28304605270E+04  0.28304605270E+04  0.00000000000E+00 0. -1.
         23    2    1    2    0    0  0.40099499532E+03  0.32202676864E+03 -0.16378076444E+04  0.17189800564E+04  0.89332682906E+02 0.  0.
         13    1    3    3    0    0  0.10476322237E+03  0.12856692764E+03 -0.60121097182E+03  0.62366611282E+03  0.00000000000E+00 0. -1.
        -13    1    3    3    0    0  0.29623177295E+03  0.19345984100E+03 -0.10365966726E+04  0.10953139436E+04  0.00000000000E+00 0.  1.
         22    1    1    2    0    0 -0.40099499532E+03 -0.32202676864E+03 -0.10946702100E+04  0.12094631431E+04  0.00000000000E+00 0. -1.
<mgrwt>
<rscale>  0 0.10532542E+04</rscale>
<asrwt>0</asrwt>
<pdfrwt beam="1">  1        2 0.43545550E+00 0.10532542E+04</pdfrwt>
<pdfrwt beam="2">  1       -2 0.15074256E-01 0.10532542E+04</pdfrwt>
<totfact> 0.78147250E+01</totfact>
</mgrwt>
</event>
<event>
 6    1  0.1588846E-005  0.2724013E+04  0.7818608E-02  0.8327255E-01
         -2   -1    0    0    0  501 -0.00000000000E+00  0.00000000000E+00  0.13173133856E+04  0.13173133856E+04  0.00000000000E+00 0.  1.
          2   -1    0    0  501    0  0.00000000000E+00 -0.00000000000E+00 -0.14082162841E+04  0.14082162841E+04  0.00000000000E+00 0. -1.
         23    2    1    2    0    0  0.33169309640E+03 -0.12247879725E+03 -0.13599227468E+04  0.14081714262E+04  0.92387890517E+02 0.  0.
         13    1    3    3    0    0  0.16498084702E+03 -0.10862415557E+03 -0.69469075006E+03  0.72222789013E+03  0.00000000000E+00 0. -1.
        -13    1    3    3    0    0  0.16671224939E+03 -0.13854641683E+02 -0.66523199679E+03  0.68594353612E+03  0.00000000000E+00 0.  1.
         22    1    1    2    0    0 -0.33169309640E+03  0.12247879725E+03  0.12690198483E+04  0.13173582434E+04  0.00000000000E+00 0.  1.
<mgrwt>
<rscale>  0 0.27240133E+04</rscale>
<asrwt>0</asrwt>
<pdfrwt beam="1">  1        2 0.21664866E+00 0.27240133E+04</pdfrwt>
<pdfrwt beam="2">  1       -2 0.20266360E+00 0.27240133E+04</pdfrwt>
<totfact> 0.16014419E+00</totfact>
</mgrwt>
</event>
<event>
 6    1  0.1588846E-005  0.2963546E+04  0.7818608E-02  0.8254218E-01
          1   -1    0    0  501    0  0.00000000000E+00  0.00000000000E+00  0.13307981849E+04  0.13307981849E+04  0.00000000000E+00 0. -1.
         -1   -1    0    0    0  501 -0.00000000000E+00 -0.00000000000E+00 -0.16498758274E+04  0.16498758274E+04  0.00000000000E+00 0.  1.
         23    2    1    2    0    0  0.16875024086E+03  0.14212249620E+04 -0.53999276841E+03  0.15325163795E+04  0.93044221130E+02 0.  0.
         13    1    3    3    0    0  0.17932763540E+03  0.12675627230E+04 -0.47957641176E+03  0.13670651749E+04  0.00000000000E+00 0. -1.
        -13    1    3    3    0    0 -0.10577394537E+02  0.15366223902E+03 -0.60416356652E+02  0.16545120467E+03  0.00000000000E+00 0.  1.
         22    1    1    2    0    0 -0.16875024086E+03 -0.14212249620E+04  0.22091512589E+03  0.14481576328E+04  0.00000000000E+00 0. -1.
<mgrwt>
<rscale>  0 0.29635464E+04</rscale>
<asrwt>0</asrwt>
<pdfrwt beam="1">  1        1 0.20473818E+00 0.29635464E+04</pdfrwt>
<pdfrwt beam="2">  1       -1 0.25382705E+00 0.29635464E+04</pdfrwt>
<totfact> 0.48319524E-01</totfact>
</mgrwt>
</event>
<event>
 6    1  0.1588846E-005  0.4602614E+04  0.7818608E-02  0.7892914E-01
         -2   -1    0    0    0  501 -0.00000000000E+00  0.00000000000E+00  0.17257292258E+04  0.17257292258E+04  0.00000000000E+00 0. -1.
          2   -1    0    0  501    0  0.00000000000E+00 -0.00000000000E+00 -0.30688557856E+04  0.30688557856E+04  0.00000000000E+00 0.  1.
         23    2    1    2    0    0 -0.48225524505E+03  0.42203026296E+03 -0.29732960884E+04  0.30429765060E+04  0.92394383418E+02 0.  0.
         13    1    3    3    0    0 -0.33213436823E+03  0.23638352269E+03 -0.17900142255E+04  0.18358489415E+04  0.00000000000E+00 0.  1.
        -13    1    3    3    0    0 -0.15012087682E+03  0.18564674027E+03 -0.11832818629E+04  0.12071275645E+04  0.00000000000E+00 0. -1.
         22    1    1    2    0    0  0.48225524505E+03 -0.42203026296E+03  0.16301695287E+04  0.17516085055E+04  0.00000000000E+00 0. -1.
<mgrwt>
<rscale>  0 0.46026141E+04</rscale>
<asrwt>0</asrwt>
<pdfrwt beam="1">  1        2 0.47213166E+00 0.46026141E+04</pdfrwt>
<pdfrwt beam="2">  1       -2 0.26549680E+00 0.46026141E+04</pdfrwt>
<totfact> 0.61085831E-02</totfact>
</mgrwt>
</event>
<event>
 6    1  0.1588846E-005  0.4332642E+04  0.7818608E-02  0.7940610E-01
          2   -1    0    0  501    0  0.00000000000E+00  0.00000000000E+00  0.26428568770E+04  0.26428568770E+04  0.00000000000E+00 0. -1.
         -2   -1    0    0    0  501 -0.00000000000E+00 -0.00000000000E+00 -0.17757094935E+04  0.17757094935E+04  0.00000000000E+00 0.  1.
         23    2    1    2    0    0 -0.21214370858E+03 -0.10015346397E+04  0.23796758209E+04  0.25921439491E+04  0.90976111205E+02 0.  0.
         11    1    3    3    0    0 -0.12040655775E+03 -0.40841730643E+03  0.91226013024E+03  0.10067377914E+04  0.00000000000E+00 0.  1.
        -11    1    3    3    0    0 -0.91737150829E+02 -0.59311733324E+03  0.14674156906E+04  0.15854061577E+04  0.00000000000E+00 0. -1.
         22    1    1    2    0    0  0.21214370858E+03  0.10015346397E+04 -0.15125284374E+04  0.18264224214E+04  0.00000000000E+00 0.  1.
<mgrwt>
<rscale>  0 0.43326417E+04</rscale>
<asrwt>0</asrwt>
<pdfrwt beam="1">  1        2 0.40659337E+00 0.43326417E+04</pdfrwt>
<pdfrwt beam="2">  1       -2 0.27318608E+00 0.43326417E+04</pdfrwt>
<totfact> 0.10218717E-01</totfact>
</mgrwt>
</event>
<event>
 6    1  0.1752697E-005  0.2706895E+04  0.7818608E-02  0.8332771E-01
         -1   -1    0    0    0  501 -0.00000000000E+00  0.00000000000E+00  0.72304803927E+03  0.72304803927E+03  0.00000000000E+00 0.  1.
          1   -1    0    0  501    0  0.00000000000E+00 -0.00000000000E+00 -0.25334700529E+04  0.25334700529E+04  0.00000000000E+00 0. -1.
         23    2    1    2    0    0  0.22661067993E+03  0.42660126364E+03 -0.24252003891E+04  0.24746654914E+04  0.95033303576E+02 0.  0.
         11    1    3    3    0    0  0.74133653071E+02  0.11062638292E+03 -0.88847287715E+03  0.89839748917E+03  0.00000000000E+00 0. -1.
        -11    1    3    3    0    0  0.15247702686E+03  0.31597488072E+03 -0.15367275119E+04  0.15762680022E+04  0.00000000000E+00 0.  1.
         22    1    1    2    0    0 -0.22661067993E+03 -0.42660126364E+03  0.61477837545E+03  0.78185260076E+03  0.00000000000E+00 0.  1.
<mgrwt>
<rscale>  0 0.27068953E+04</rscale>
<asrwt>0</asrwt>
<pdfrwt beam="1">  1        1 0.38976463E+00 0.27068953E+04</pdfrwt>
<pdfrwt beam="2">  1       -1 0.11123816E+00 0.27068953E+04</pdfrwt>
<totfact> 0.83237617E-01</totfact>
</mgrwt>
</event>
<event>
 6    1  0.1588846E-005  0.2371469E+04  0.7818608E-02  0.8450263E-01
          1   -1    0    0  501    0  0.00000000000E+00  0.00000000000E+00  0.14076956921E+04  0.14076956921E+04  0.00000000000E+00 0. -1.
         -1   -1    0    0    0  501 -0.00000000000E+00 -0.00000000000E+00 -0.99877166523E+03  0.99877166523E+03  0.00000000000E+00 0.  1.
         23    2    1    2    0    0 -0.65152886713E+03  0.32869247720E+03  0.11508577489E+04  0.13657972573E+04  0.91651408393E+02 0.  0.
         11    1    3    3    0    0 -0.92902218540E+02  0.84649884236E+02  0.20853065747E+03  0.24347784338E+03  0.00000000000E+00 0.  1.
        -11    1    3    3    0    0 -0.55862664859E+03  0.24404259296E+03  0.94232709139E+03  0.11223194139E+04  0.00000000000E+00 0. -1.
         22    1    1    2    0    0  0.65152886713E+03 -0.32869247720E+03 -0.74193372199E+03  0.10406701000E+04  0.00000000000E+00 0.  1.
<mgrwt>
<rscale>  0 0.23714692E+04</rscale>
<asrwt>0</asrwt>
<pdfrwt beam="1">  1        1 0.21656857E+00 0.23714692E+04</pdfrwt>
<pdfrwt beam="2">  1       -1 0.15365718E+00 0.23714692E+04</pdfrwt>
<totfact> 0.22278026E+00</totfact>
</mgrwt>
</event>
<event>
 6    1  0.1588846E-005  0.2097693E+04  0.7818608E-02  0.8562260E-01
         -2   -1    0    0    0  501 -0.00000000000E+00  0.00000000000E+00  0.14021751951E+04  0.14021751951E+04  0.00000000000E+00 0. -1.
          2   -1    0    0  501    0  0.00000000000E+00 -0.00000000000E+00 -0.78455152511E+03  0.78455152511E+03  0.00000000000E+00 0.  1.
         23    2    1    2    0    0 -0.28634437462E+03  0.53155062306E+03  0.12008142494E+04  0.13472921382E+04  0.93284931547E+02 0.  0.
         13    1    3    3    0    0 -0.43787970151E+02  0.16304177317E+03  0.29965867219E+03  0.34394087565E+03  0.00000000000E+00 0.  1.
        -13    1    3    3    0    0 -0.24255640446E+03  0.36850884989E+03  0.90115557717E+03  0.10033512625E+04  0.00000000000E+00 0. -1.
         22    1    1    2    0    0  0.28634437462E+03 -0.53155062306E+03 -0.58319057932E+03  0.83943458206E+03  0.00000000000E+00 0.  1.
<mgrwt>
<rscale>  0 0.20976927E+04</rscale>
<asrwt>0</asrwt>
<pdfrwt beam="1">  1        2 0.12070023E+00 0.20976927E+04</pdfrwt>
<pdfrwt beam="2">  1       -2 0.21571926E+00 0.20976927E+04</pdfrwt>
<totfact> 0.34271521E+00</totfact>
</mgrwt>
</event>
<event>
 6    1  0.1588846E-005  0.3506425E+04  0.7818608E-02  0.8112269E-01
          1   -1    0    0  501    0  0.00000000000E+00  0.00000000000E+00  0.12992526569E+04  0.12992526569E+04  0.00000000000E+00 0. -1.
         -1   -1    0    0    0  501 -0.00000000000E+00 -0.00000000000E+00 -0.23657856621E+04  0.23657856621E+04  0.00000000000E+00 0.  1.
         23    2    1    2    0    0 -0.58296166557E+03 -0.10897232421E+04  0.76434235106E+03  0.14560915976E+04  0.92964849378E+02 0.  0.
         13    1    3    3    0    0 -0.39191384010E+03 -0.65044207752E+03  0.44106418187E+03  0.87818504132E+03  0.00000000000E+00 0. -1.
        -13    1    3    3    0    0 -0.19104782547E+03 -0.43928116457E+03  0.32327816919E+03  0.57790655632E+03  0.00000000000E+00 0.  1.
         22    1    1    2    0    0  0.58296166557E+03  0.10897232421E+04 -0.18308753563E+04  0.22089467214E+04  0.00000000000E+00 0.  1.
<mgrwt>
<rscale>  0 0.35064246E+04</rscale>
<asrwt>0</asrwt>
<pdfrwt beam="1">  1        1 0.19988502E+00 0.35064246E+04</pdfrwt>
<pdfrwt beam="2">  1       -1 0.36396702E+00 0.35064246E+04</pdfrwt>
<totfact> 0.92563590E-02</totfact>
</mgrwt>
</event>
<event>
 6    1  0.1588846E-005  0.1159734E+04  0.7818608E-02  0.9148850E-01
          2   -1    0    0  501    0  0.00000000000E+00  0.00000000000E+00  0.75728485675E+03  0.75728485675E+03  0.00000000000E+00 0. -1.
         -2   -1    0    0    0  501 -0.00000000000E+00 -0.00000000000E+00 -0.44401522493E+03  0.44401522493E+03  0.00000000000E+00 0.  1.
         23    2    1    2    0    0 -0.38124540167E+03  0.41768370643E+03  0.41403740186E+02  0.57382992467E+03  0.88083924977E+02 0.  0.
         13    1    3    3    0    0 -0.68234186899E+02  0.12499252984E+03 -0.69461199755E+01  0.14257378918E+03  0.00000000000E+00 0.  1.
        -13    1    3    3    0    0 -0.31301121477E+03  0.29269117658E+03  0.48349860162E+02  0.43125613549E+03  0.00000000000E+00 0. -1.
         22    1    1    2    0    0  0.38124540167E+03 -0.41768370643E+03  0.27186589163E+03  0.62747015701E+03  0.00000000000E+00 0. -1.
<mgrwt>
<rscale>  0 0.11597345E+04</rscale>
<asrwt>0</asrwt>
<pdfrwt beam="1">  1        2 0.11650536E+00 0.11597345E+04</pdfrwt>
<pdfrwt beam="2">  1       -2 0.68310035E-01 0.11597345E+04</pdfrwt>
<totfact> 0.71862013E+01</totfact>
</mgrwt>
</event>
<event>
 6    1  0.1588846E-005  0.1768613E+04  0.7818608E-02  0.8723171E-01
          1   -1    0    0  501    0  0.00000000000E+00  0.00000000000E+00  0.75335723282E+03  0.75335723282E+03  0.00000000000E+00 0. -1.
         -1   -1    0    0    0  501 -0.00000000000E+00 -0.00000000000E+00 -0.10380169806E+04  0.10380169806E+04  0.00000000000E+00 0.  1.
         23    2    1    2    0    0 -0.14695802809E+03 -0.75415452305E+03  0.29602742113E+03  0.82828372195E+03  0.89866475014E+02 0.  0.
         11    1    3    3    0    0 -0.13548846729E+03 -0.56181024455E+03  0.18997559157E+03  0.60834085926E+03  0.00000000000E+00 0. -1.
        -11    1    3    3    0    0 -0.11469560799E+02 -0.19234427850E+03  0.10605182956E+03  0.21994286269E+03  0.00000000000E+00 0.  1.
         22    1    1    2    0    0  0.14695802809E+03  0.75415452305E+03 -0.58068716896E+03  0.96309049152E+03  0.00000000000E+00 0.  1.
<mgrwt>
<rscale>  0 0.17686126E+04</rscale>
<asrwt>0</asrwt>
<pdfrwt beam="1">  1        1 0.11590111E+00 0.17686126E+04</pdfrwt>
<pdfrwt beam="2">  1       -1 0.15969492E+00 0.17686126E+04</pdfrwt>
<totfact> 0.67610081E+00</totfact>
</mgrwt>
</event>
<event>
 6    1  0.1588846E-005  0.9040049E+03  0.7818608E-02  0.9420589E-01
          1   -1    0    0  501    0  0.00000000000E+00  0.00000000000E+00  0.16858082644E+04  0.16858082644E+04  0.00000000000E+00 0. -1.
         -1   -1    0    0    0  501 -0.00000000000E+00 -0.00000000000E+00 -0.12119184400E+03  0.12119184400E+03  0.00000000000E+00 0.  1.
         23    2    1    2    0    0 -0.21224149734E+03  0.22215996362E+03  0.14404717274E+04  0.14756190476E+04  0.89951507792E+02 0.  0.
         11    1    3    3    0    0 -0.60931711963E+02  0.49893238498E+02  0.57179467801E+03  0.57719248312E+03  0.00000000000E+00 0.  1.
        -11    1    3    3    0    0 -0.15130978538E+03  0.17226672512E+03  0.86867704937E+03  0.89842656452E+03  0.00000000000E+00 0. -1.
         22    1    1    2    0    0  0.21224149734E+03 -0.22215996362E+03  0.12414469304E+03  0.33138106078E+03  0.00000000000E+00 0.  1.
<mgrwt>
<rscale>  0 0.90400489E+03</rscale>
<asrwt>0</asrwt>
<pdfrwt beam="1">  1        1 0.25935510E+00 0.90400489E+03</pdfrwt>
<pdfrwt beam="2">  1       -1 0.18644900E-01 0.90400489E+03</pdfrwt>
<totfact> 0.11327911E+02</totfact>
</mgrwt>
</event>
<event>
 6    1  0.1588846E-005  0.1901431E+04  0.7818608E-02  0.8654144E-01
         -2   -1    0    0    0  501 -0.00000000000E+00  0.00000000000E+00  0.72115071679E+03  0.72115071679E+03  0.00000000000E+00 0.  1.
          2   -1    0    0  501    0  0.00000000000E+00 -0.00000000000E+00 -0.12533582132E+04  0.12533582132E+04  0.00000000000E+00 0. -1.
         23    2    1    2    0    0  0.73960263753E+03  0.17799105155E+03 -0.85456254722E+03  0.11483094053E+04  0.98206249136E+02 0.  0.
         11    1    3    3    0    0  0.30597629832E+03  0.62111222884E+02 -0.28140208629E+03  0.42031706283E+03  0.00000000000E+00 0. -1.
        -11    1    3    3    0    0  0.43362633921E+03  0.11587982866E+03 -0.57316046093E+03  0.72799234249E+03  0.00000000000E+00 0.  1.
         22    1    1    2    0    0 -0.73960263753E+03 -0.17799105155E+03  0.32235505077E+03  0.82619952471E+03  0.00000000000E+00 0.  1.
<mgrwt>
<rscale>  0 0.19014312E+04</rscale>
<asrwt>0</asrwt>
<pdfrwt beam="1">  1        2 0.19282434E+00 0.19014312E+04</pdfrwt>
<pdfrwt beam="2">  1       -2 0.11094626E+00 0.19014312E+04</pdfrwt>
<totfact> 0.10612245E+01</totfact>
</mgrwt>
</event>
<event>
 6    1  0.1588846E-005  0.3165191E+04  0.7818608E-02  0.8198071E-01
          1   -1    0    0  501    0  0.00000000000E+00  0.00000000000E+00  0.19831398838E+04  0.19831398838E+04  0.00000000000E+00 0. -1.
         -1   -1    0    0    0  501 -0.00000000000E+00 -0.00000000000E+00 -0.12629508494E+04  0.12629508494E+04  0.00000000000E+00 0.  1.
         23    2    1    2    0    0  0.76738381036E+03 -0.13473508559E+04  0.67695694396E+03  0.16949294731E+04  0.10140499766E+03 0.  0.
         13    1    3    3    0    0  0.52326265248E+03 -0.82979985155E+03  0.40421321997E+03  0.10610183431E+04  0.00000000000E+00 0. -1.
        -13    1    3    3    0    0  0.24412115788E+03 -0.51755100431E+03  0.27274372399E+03  0.63391113002E+03  0.00000000000E+00 0.  1.
         22    1    1    2    0    0 -0.76738381036E+03  0.13473508559E+04  0.43232090504E+02  0.15511612601E+04  0.00000000000E+00 0.  1.
<mgrwt>
<rscale>  0 0.31651908E+04</rscale>
<asrwt>0</asrwt>
<pdfrwt beam="1">  1        1 0.30509844E+00 0.31651908E+04</pdfrwt>
<pdfrwt beam="2">  1       -1 0.19430013E+00 0.31651908E+04</pdfrwt>
<totfact> 0.42328067E-01</totfact>
</mgrwt>
</event>
<event>
 6    1  0.1588846E-005  0.1417633E+04  0.7818608E-02  0.8941153E-01
          1   -1    0    0  501    0  0.00000000000E+00  0.00000000000E+00  0.20923490243E+04  0.20923490243E+04  0.00000000000E+00 0. -1.
         -1   -1    0    0    0  501 -0.00000000000E+00 -0.00000000000E+00 -0.24012284798E+03  0.24012284798E+03  0.00000000000E+00 0.  1.
         23    2    1    2    0    0  0.33719619051E+03  0.61391396311E+03  0.10743740513E+04  0.12857409835E+04  0.90877113475E+02 0.  0.
         11    1    3    3    0    0  0.23739425367E+03  0.38387526965E+03  0.75587951921E+03  0.88038065737E+03  0.00000000000E+00 0. -1.
        -11    1    3    3    0    0  0.99801936837E+02  0.23003869346E+03  0.31849453206E+03  0.40536032617E+03  0.00000000000E+00 0.  1.
         22    1    1    2    0    0 -0.33719619051E+03 -0.61391396311E+03  0.77785212505E+03  0.10467308887E+04  0.00000000000E+00 0.  1.
<mgrwt>
<rscale>  0 0.14176330E+04</rscale>
<asrwt>0</asrwt>
<pdfrwt beam="1">  1        1 0.32189984E+00 0.14176330E+04</pdfrwt>
<pdfrwt beam="2">  1       -1 0.36941978E-01 0.14176330E+04</pdfrwt>
<totfact> 0.17701690E+01</totfact>
</mgrwt>
</event>
<event>
 6    1  0.1588846E-005  0.1376357E+04  0.7818608E-02  0.8971112E-01
          2   -1    0    0  501    0  0.00000000000E+00  0.00000000000E+00  0.70897498633E+03  0.70897498633E+03  0.00000000000E+00 0. -1.
         -2   -1    0    0    0  501 -0.00000000000E+00 -0.00000000000E+00 -0.66799227701E+03  0.66799227701E+03  0.00000000000E+00 0.  1.
         23    2    1    2    0    0  0.23429073928E+03  0.14097759204E+02 -0.62342318353E+03  0.67232119064E+03  0.90930854437E+02 0.  0.
         11    1    3    3    0    0  0.18535880515E+03  0.78570737978E+01 -0.36735482577E+03  0.41154488002E+03  0.00000000000E+00 0. -1.
        -11    1    3    3    0    0  0.48931934131E+02  0.62406854059E+01 -0.25606835776E+03  0.26077631061E+03  0.00000000000E+00 0.  1.
         22    1    1    2    0    0 -0.23429073928E+03 -0.14097759204E+02  0.66440589284E+03  0.70464607270E+03  0.00000000000E+00 0. -1.
<mgrwt>
<rscale>  0 0.13763572E+04</rscale>
<asrwt>0</asrwt>
<pdfrwt beam="1">  1        2 0.10907307E+00 0.13763572E+04</pdfrwt>
<pdfrwt beam="2">  1       -2 0.10276804E+00 0.13763572E+04</pdfrwt>
<totfact> 0.30425589E+01</totfact>
</mgrwt>
</event>
<event>
 6    1  0.1588846E-005  0.1154773E+04  0.7818608E-02  0.9153392E-01
          1   -1    0    0  501    0  0.00000000000E+00  0.00000000000E+00  0.61799909157E+03  0.61799909157E+03  0.00000000000E+00 0. -1.
         -1   -1    0    0    0  501 -0.00000000000E+00 -0.00000000000E+00 -0.53944254275E+03  0.53944254275E+03  0.00000000000E+00 0.  1.
         23    2    1    2    0    0  0.65854474333E+02 -0.18901658151E+03  0.57865024564E+03  0.61877867339E+03  0.89369234009E+02 0.  0.
         11    1    3    3    0    0  0.21193956758E+01 -0.13079211842E+03  0.38901414091E+03  0.41041816713E+03  0.00000000000E+00 0. -1.
        -11    1    3    3    0    0  0.63735078657E+02 -0.58224463093E+02  0.18963610473E+03  0.20836050627E+03  0.00000000000E+00 0.  1.
         22    1    1    2    0    0 -0.65854474333E+02  0.18901658151E+03 -0.50009369682E+03  0.53866296093E+03  0.00000000000E+00 0.  1.
<mgrwt>
<rscale>  0 0.11547727E+04</rscale>
<asrwt>0</asrwt>
<pdfrwt beam="1">  1        1 0.95076784E-01 0.11547727E+04</pdfrwt>
<pdfrwt beam="2">  1       -1 0.82991160E-01 0.11547727E+04</pdfrwt>
<totfact> 0.46989261E+01</totfact>
</mgrwt>
</event>
<event>
 6    1  0.1588846E-005  0.3866227E+04  0.7818608E-02  0.8032090E-01
         -2   -1    0    0    0  501 -0.00000000000E+00  0.00000000000E+00  0.20373701756E+04  0.20373701756E+04  0.00000000000E+00 0.  1.
          2   -1    0    0  501    0  0.00000000000E+00 -0.00000000000E+00 -0.18341918409E+04  0.18341918409E+04  0.00000000000E+00 0. -1.
         23    2    1    2    0    0 -0.12005106274E+04  0.14228962184E+04  0.61899600519E+03  0.19640076267E+04  0.91161880366E+02 0.  0.
         13    1    3    3    0    0 -0.94317738335E+03  0.10641873499E+04  0.45395847296E+03  0.14927011045E+04  0.00000000000E+00 0. -1.
        -13    1    3    3    0    0 -0.25733324404E+03  0.35870886851E+03  0.16503753223E+03  0.47130652221E+03  0.00000000000E+00 0.  1.
         22    1    1    2    0    0  0.12005106274E+04 -0.14228962184E+04 -0.41581767049E+03  0.19075543898E+04  0.00000000000E+00 0. -1.
<mgrwt>
<rscale>  0 0.38662270E+04</rscale>
<asrwt>0</asrwt>
<pdfrwt beam="1">  1        2 0.28218336E+00 0.38662270E+04</pdfrwt>
<pdfrwt beam="2">  1       -2 0.31344157E+00 0.38662270E+04</pdfrwt>
<totfact> 0.17310580E-01</totfact>
</mgrwt>
</event>
<event>
 6    1  0.1588846E-005  0.1791352E+04  0.7818608E-02  0.8710912E-01
         -1   -1    0    0    0  501 -0.00000000000E+00  0.00000000000E+00  0.56067753192E+03  0.56067753192E+03  0.00000000000E+00 0.  1.
          1   -1    0    0  501    0  0.00000000000E+00 -0.00000000000E+00 -0.14308328216E+04  0.14308328216E+04  0.00000000000E+00 0. -1.
         23    2    1    2    0    0 -0.25165887362E+03 -0.14866446659E+03 -0.13745828208E+04  0.14085176893E+04  0.94925432119E+02 0.  0.
         11    1    3    3    0    0 -0.12379256975E+03 -0.31454408082E+02 -0.72548630146E+03  0.73664398030E+03  0.00000000000E+00 0. -1.
        -11    1    3    3    0    0 -0.12786630387E+03 -0.11721005851E+03 -0.64909651934E+03  0.67187370904E+03  0.00000000000E+00 0.  1.
         22    1    1    2    0    0  0.25165887362E+03  0.14866446659E+03  0.50442753114E+03  0.58299266416E+03  0.00000000000E+00 0.  1.
<mgrwt>
<rscale>  0 0.17913524E+04</rscale>
<asrwt>0</asrwt>
<pdfrwt beam="1">  1        1 0.22012812E+00 0.17913524E+04</pdfrwt>
<pdfrwt beam="2">  1       -1 0.86258084E-01 0.17913524E+04</pdfrwt>
<totfact> 0.91524652E+00</totfact>
</mgrwt>
</event>
<event>
 6    1  0.1588846E-005  0.1918816E+04  0.7818608E-02  0.8645547E-01
         -2   -1    0    0    0  501 -0.00000000000E+00  0.00000000000E+00  0.43439105018E+03  0.43439105018E+03  0.00000000000E+00 0.  1.
          2   -1    0    0  501    0  0.00000000000E+00 -0.00000000000E+00 -0.21189739759E+04  0.21189739759E+04  0.00000000000E+00 0. -1.
         23    2    1    2    0    0  0.30888926200E+03  0.44308460641E+03 -0.18958259120E+04  0.19733993858E+04  0.91720786768E+02 0.  0.
         13    1    3    3    0    0  0.30458983337E+03  0.39221342433E+03 -0.17344518047E+04  0.18041422892E+04  0.00000000000E+00 0. -1.
        -13    1    3    3    0    0  0.42994286353E+01  0.50871182082E+02 -0.16137410733E+03  0.16925709666E+03  0.00000000000E+00 0.  1.
         22    1    1    2    0    0 -0.30888926200E+03 -0.44308460641E+03  0.21124298628E+03  0.57996564025E+03  0.00000000000E+00 0.  1.
<mgrwt>
<rscale>  0 0.19188156E+04</rscale>
<asrwt>0</asrwt>
<pdfrwt beam="1">  1        2 0.32599599E+00 0.19188156E+04</pdfrwt>
<pdfrwt beam="2">  1       -2 0.66829394E-01 0.19188156E+04</pdfrwt>
<totfact> 0.11025725E+01</totfact>
</mgrwt>
</event>
<event>
 6    1  0.1588846E-005  0.3464866E+04  0.7818608E-02  0.8122167E-01
         -2   -1    0    0    0  501 -0.00000000000E+00  0.00000000000E+00  0.21469682102E+04  0.21469682102E+04  0.00000000000E+00 0. -1.
          2   -1    0    0  501    0  0.00000000000E+00 -0.00000000000E+00 -0.13979362617E+04  0.13979362617E+04  0.00000000000E+00 0.  1.
         23    2    1    2    0    0 -0.89883808211E+03  0.35017305385E+03  0.18456338253E+04  0.20844022495E+04  0.88529402771E+02 0.  0.
         13    1    3    3    0    0 -0.24991150445E+03  0.13307776466E+03  0.49239956476E+03  0.56799892859E+03  0.00000000000E+00 0. -1.
        -13    1    3    3    0    0 -0.64892657766E+03  0.21709528919E+03  0.13532342606E+04  0.15164033209E+04  0.00000000000E+00 0.  1.
         22    1    1    2    0    0  0.89883808211E+03 -0.35017305385E+03 -0.10966018768E+04  0.14605022224E+04  0.00000000000E+00 0.  1.
<mgrwt>
<rscale>  0 0.34648664E+04</rscale>
<asrwt>0</asrwt>
<pdfrwt beam="1">  1        2 0.21506712E+00 0.34648664E+04</pdfrwt>
<pdfrwt beam="2">  1       -2 0.33030280E+00 0.34648664E+04</pdfrwt>
<totfact> 0.24707430E-01</totfact>
</mgrwt>
</event>
<event>
 6    1  0.1588846E-005  0.1753415E+04  0.7818608E-02  0.8731473E-01
         -2   -1    0    0    0  501 -0.00000000000E+00  0.00000000000E+00  0.78856099976E+03  0.78856099976E+03  0.00000000000E+00 0.  1.
          2   -1    0    0  501    0  0.00000000000E+00 -0.00000000000E+00 -0.97470678598E+03  0.97470678598E+03  0.00000000000E+00 0. -1.
         23    2    1    2    0    0 -0.23997645981E+03 -0.96799420526E+02 -0.93307712642E+03  0.97278359485E+03  0.93360427823E+02 0.  0.
         11    1    3    3    0    0 -0.13810123170E+03 -0.20482535060E+02 -0.36914016596E+03  0.39465927908E+03  0.00000000000E+00 0.  1.
        -11    1    3    3    0    0 -0.10187522811E+03 -0.76316885467E+02 -0.56393696046E+03  0.57812431577E+03  0.00000000000E+00 0. -1.
         22    1    1    2    0    0  0.23997645981E+03  0.96799420526E+02  0.74693134020E+03  0.79048419089E+03  0.00000000000E+00 0.  1.
<mgrwt>
<rscale>  0 0.17534147E+04</rscale>
<asrwt>0</asrwt>
<pdfrwt beam="1">  1        2 0.14995489E+00 0.17534147E+04</pdfrwt>
<pdfrwt beam="2">  1       -2 0.12131708E+00 0.17534147E+04</pdfrwt>
<totfact> 0.12808232E+01</totfact>
</mgrwt>
</event>
<event>
 6    1  0.1588846E-005  0.1625092E+04  0.7818608E-02  0.8805279E-01
          1   -1    0    0  501    0  0.00000000000E+00  0.00000000000E+00  0.88553980444E+03  0.88553980444E+03  0.00000000000E+00 0. -1.
         -1   -1    0    0    0  501 -0.00000000000E+00 -0.00000000000E+00 -0.74556941696E+03  0.74556941696E+03  0.00000000000E+00 0.  1.
         23    2    1    2    0    0 -0.35152609556E+02 -0.72365589453E+03  0.43377606487E+03  0.84929381114E+03  0.90690371814E+02 0.  0.
         13    1    3    3    0    0  0.14701976766E+02 -0.52796418073E+03  0.31831658073E+03  0.61667476827E+03  0.00000000000E+00 0.  1.
        -13    1    3    3    0    0 -0.49854586322E+02 -0.19569171380E+03  0.11545948414E+03  0.23261904287E+03  0.00000000000E+00 0. -1.
         22    1    1    2    0    0  0.35152609556E+02  0.72365589453E+03 -0.29380567739E+03  0.78181541026E+03  0.00000000000E+00 0. -1.
<mgrwt>
<rscale>  0 0.16250925E+04</rscale>
<asrwt>0</asrwt>
<pdfrwt beam="1">  1        1 0.13623689E+00 0.16250925E+04</pdfrwt>
<pdfrwt beam="2">  1       -1 0.11470299E+00 0.16250925E+04</pdfrwt>
<totfact> 0.12372771E+01</totfact>
</mgrwt>
</event>
<event>
 6    1  0.1588846E-005  0.1850714E+04  0.7818608E-02  0.8679786E-01
          2   -1    0    0  501    0  0.00000000000E+00  0.00000000000E+00  0.51062343030E+03  0.51062343030E+03  0.00000000000E+00 0. -1.
         -2   -1    0    0    0  501 -0.00000000000E+00 -0.00000000000E+00 -0.16769410180E+04  0.16769410180E+04  0.00000000000E+00 0.  1.
         23    2    1    2    0    0  0.79444780444E+03  0.46618161883E+03 -0.51428727603E+03  0.10590184177E+04  0.92498600579E+02 0.  0.
         13    1    3    3    0    0  0.63041600576E+03  0.35979408735E+03 -0.44594917758E+03  0.85190773831E+03  0.00000000000E+00 0. -1.
        -13    1    3    3    0    0  0.16403179868E+03  0.10638753148E+03 -0.68338098444E+02  0.20711067942E+03  0.00000000000E+00 0.  1.
         22    1    1    2    0    0 -0.79444780444E+03 -0.46618161883E+03 -0.65203031164E+03  0.11285460305E+04  0.00000000000E+00 0.  1.
<mgrwt>
<rscale>  0 0.18507138E+04</rscale>
<asrwt>0</asrwt>
<pdfrwt beam="1">  1        2 0.78557450E-01 0.18507138E+04</pdfrwt>
<pdfrwt beam="2">  1       -2 0.25799093E+00 0.18507138E+04</pdfrwt>
<totfact> 0.32429867E+00</totfact>
</mgrwt>
</event>
<event>
 6    1  0.1588846E-005  0.4978317E+03  0.7818608E-02  0.1014346E+00
         -1   -1    0    0    0  501 -0.00000000000E+00  0.00000000000E+00  0.59043448535E+03  0.59043448535E+03  0.00000000000E+00 0. -1.
          1   -1    0    0  501    0  0.00000000000E+00 -0.00000000000E+00 -0.10493815030E+03  0.10493815030E+03  0.00000000000E+00 0.  1.
         23    2    1    2    0    0  0.31014701158E+02 -0.17624859901E+03  0.47594988720E+03  0.51616154501E+03  0.88707187287E+02 0.  0.
         11    1    3    3    0    0  0.34056193199E+02 -0.21160136968E+02  0.59386554691E+02  0.71654299032E+02  0.00000000000E+00 0.  1.
        -11    1    3    3    0    0 -0.30414920410E+01 -0.15508846204E+03  0.41656333251E+03  0.44450724598E+03  0.00000000000E+00 0. -1.
         22    1    1    2    0    0 -0.31014701158E+02  0.17624859901E+03  0.95464478566E+01  0.17921109064E+03  0.00000000000E+00 0.  1.
<mgrwt>
<rscale>  0 0.49783171E+03</rscale>
<asrwt>0</asrwt>
<pdfrwt beam="1">  1        1 0.16144331E-01 0.49783171E+03</pdfrwt>
<pdfrwt beam="2">  1       -1 0.90836072E-01 0.49783171E+03</pdfrwt>
<totfact> 0.41976184E+02</totfact>
</mgrwt>
</event>
<event>
 6    1  0.1588846E-005  0.2459628E+04  0.7818608E-02  0.8417511E-01
         -2   -1    0    0    0  501 -0.00000000000E+00  0.00000000000E+00  0.47888417762E+03  0.47888417762E+03  0.00000000000E+00 0.  1.
          2   -1    0    0  501    0  0.00000000000E+00 -0.00000000000E+00 -0.31582641617E+04  0.31582641617E+04  0.00000000000E+00 0. -1.
         23    2    1    2    0    0 -0.10510144628E+04 -0.49608863440E+03 -0.19285983762E+04  0.22535268748E+04  0.90312483693E+02 0.  0.
         13    1    3    3    0    0 -0.48960298771E+03 -0.18536292741E+03 -0.90051038906E+03  0.10416282740E+04  0.00000000000E+00 0. -1.
        -13    1    3    3    0    0 -0.56141147509E+03 -0.31072570699E+03 -0.10280879871E+04  0.12118986008E+04  0.00000000000E+00 0.  1.
         22    1    1    2    0    0  0.10510144628E+04  0.49608863440E+03 -0.75078160784E+03  0.13836214644E+04  0.00000000000E+00 0.  1.
<mgrwt>
<rscale>  0 0.24596282E+04</rscale>
<asrwt>0</asrwt>
<pdfrwt beam="1">  1        2 0.48588681E+00 0.24596282E+04</pdfrwt>
<pdfrwt beam="2">  1       -2 0.73674486E-01 0.24596282E+04</pdfrwt>
<totfact> 0.20530863E+00</totfact>
</mgrwt>
</event>
<event>
 6    1  0.1588846E-005  0.5011493E+03  0.7818608E-02  0.1013479E+00
         -1   -1    0    0    0  501 -0.00000000000E+00  0.00000000000E+00  0.83464577472E+02  0.83464577472E+02  0.00000000000E+00 0.  1.
          1   -1    0    0  501    0  0.00000000000E+00 -0.00000000000E+00 -0.75226713491E+03  0.75226713491E+03  0.00000000000E+00 0. -1.
         23    2    1    2    0    0 -0.21923602463E+02  0.22897735189E+03 -0.47211526696E+03  0.53308148149E+03  0.91497369274E+02 0.  0.
         13    1    3    3    0    0  0.31433963910E+02  0.96276530221E+02 -0.23919990956E+03  0.25975731191E+03  0.00000000000E+00 0. -1.
        -13    1    3    3    0    0 -0.53357566373E+02  0.13270082167E+03 -0.23291535740E+03  0.27332416958E+03  0.00000000000E+00 0.  1.
         22    1    1    2    0    0  0.21923602463E+02 -0.22897735189E+03 -0.19668729048E+03  0.30265023090E+03  0.00000000000E+00 0.  1.
<mgrwt>
<rscale>  0 0.50114931E+03</rscale>
<asrwt>0</asrwt>
<pdfrwt beam="1">  1        1 0.11573340E+00 0.50114931E+03</pdfrwt>
<pdfrwt beam="2">  1       -1 0.12840704E-01 0.50114931E+03</pdfrwt>
<totfact> 0.10400782E+03</totfact>
</mgrwt>
</event>
<event>
 6    1  0.1588846E-005  0.2316209E+04  0.7818608E-02  0.8471558E-01
         -1   -1    0    0    0  501 -0.00000000000E+00  0.00000000000E+00  0.70177340556E+03  0.70177340556E+03  0.00000000000E+00 0.  1.
          1   -1    0    0  501    0  0.00000000000E+00 -0.00000000000E+00 -0.19111661475E+04  0.19111661475E+04  0.00000000000E+00 0. -1.
         23    2    1    2    0    0 -0.67963583080E+03 -0.10001920669E+03  0.44378484415E+03  0.82271475282E+03  0.89475540830E+02 0.  0.
         13    1    3    3    0    0 -0.29833210649E+03 -0.86826985155E+02  0.18342843353E+03  0.36081430313E+03  0.00000000000E+00 0. -1.
        -13    1    3    3    0    0 -0.38130372431E+03 -0.13192221537E+02  0.26035641062E+03  0.46190044970E+03  0.00000000000E+00 0.  1.
         22    1    1    2    0    0  0.67963583080E+03  0.10001920669E+03 -0.16531775861E+04  0.17902248002E+04  0.00000000000E+00 0. -1.
<mgrwt>
<rscale>  0 0.23162086E+04</rscale>
<asrwt>0</asrwt>
<pdfrwt beam="1">  1        1 0.29402556E+00 0.23162086E+04</pdfrwt>
<pdfrwt beam="2">  1       -1 0.10796514E+00 0.23162086E+04</pdfrwt>
<totfact> 0.24644483E+00</totfact>
</mgrwt>
</event>
<event>
 6    1  0.1588846E-005  0.2414319E+04  0.7818608E-02  0.8434162E-01
          2   -1    0    0  501    0  0.00000000000E+00  0.00000000000E+00  0.22801580251E+04  0.22801580251E+04  0.00000000000E+00 0. -1.
         -2   -1    0    0    0  501 -0.00000000000E+00 -0.00000000000E+00 -0.63909327618E+03  0.63909327618E+03  0.00000000000E+00 0.  1.
         23    2    1    2    0    0 -0.78788984646E+03 -0.50192322896E+03  0.17429048044E+04  0.19795339316E+04  0.90222453133E+02 0.  0.
         11    1    3    3    0    0 -0.60729827609E+03 -0.34770765850E+03  0.13447231356E+04  0.15159129669E+04  0.00000000000E+00 0. -1.
        -11    1    3    3    0    0 -0.18059157037E+03 -0.15421557046E+03  0.39818166884E+03  0.46362096465E+03  0.00000000000E+00 0.  1.
         22    1    1    2    0    0  0.78788984646E+03  0.50192322896E+03 -0.10184005555E+03  0.93971736966E+03  0.00000000000E+00 0.  1.
<mgrwt>
<rscale>  0 0.24143187E+04</rscale>
<asrwt>0</asrwt>
<pdfrwt beam="1">  1        2 0.35079354E+00 0.24143187E+04</pdfrwt>
<pdfrwt beam="2">  1       -2 0.98322044E-01 0.24143187E+04</pdfrwt>
<totfact> 0.35921647E+00</totfact>
</mgrwt>
</event>
<event>
 6    1  0.1588846E-005  0.3944771E+04  0.7818608E-02  0.8015782E-01
         -2   -1    0    0    0  501 -0.00000000000E+00  0.00000000000E+00  0.13299942955E+04  0.13299942955E+04  0.00000000000E+00 0.  1.
          2   -1    0    0  501    0  0.00000000000E+00 -0.00000000000E+00 -0.29250530769E+04  0.29250530769E+04  0.00000000000E+00 0. -1.
         23    2    1    2    0    0 -0.10521337484E+04  0.16543349250E+04 -0.57634959189E+03  0.20456180613E+04  0.92546917595E+02 0.  0.
         11    1    3    3    0    0 -0.20038372696E+03  0.25748551756E+03 -0.11174594502E+03  0.34487618939E+03  0.00000000000E+00 0. -1.
        -11    1    3    3    0    0 -0.85175002142E+03  0.13968494074E+04 -0.46460364687E+03  0.17007418719E+04  0.00000000000E+00 0.  1.
         22    1    1    2    0    0  0.10521337484E+04 -0.16543349250E+04 -0.10187091895E+04  0.22094293112E+04  0.00000000000E+00 0. -1.
<mgrwt>
<rscale>  0 0.39447707E+04</rscale>
<asrwt>0</asrwt>
<pdfrwt beam="1">  1        2 0.45000816E+00 0.39447707E+04</pdfrwt>
<pdfrwt beam="2">  1       -2 0.20461451E+00 0.39447707E+04</pdfrwt>
<totfact> 0.19052169E-01</totfact>
</mgrwt>
</event>
<event>
 6    1  0.1588846E-005  0.4871491E+03  0.7818608E-02  0.1017189E+00
          1   -1    0    0  501    0  0.00000000000E+00  0.00000000000E+00  0.15998438544E+03  0.15998438544E+03  0.00000000000E+00 0. -1.
         -1   -1    0    0    0  501 -0.00000000000E+00 -0.00000000000E+00 -0.37083969033E+03  0.37083969033E+03  0.00000000000E+00 0.  1.
         23    2    1    2    0    0 -0.15343321394E+03 -0.17114097940E+03 -0.16105002668E+03  0.29563999530E+03  0.92924215125E+02 0.  0.
         13    1    3    3    0    0 -0.29982790092E+02 -0.97270799862E+02 -0.86662025256E+02  0.13368202134E+03  0.00000000000E+00 0. -1.
        -13    1    3    3    0    0 -0.12345042385E+03 -0.73870179534E+02 -0.74388001424E+02  0.16195797396E+03  0.00000000000E+00 0.  1.
         22    1    1    2    0    0  0.15343321394E+03  0.17114097940E+03 -0.49805278217E+02  0.23518408047E+03  0.00000000000E+00 0. -1.
<mgrwt>
<rscale>  0 0.48714909E+03</rscale>
<asrwt>0</asrwt>
<pdfrwt beam="1">  1        1 0.24612982E-01 0.48714909E+03</pdfrwt>
<pdfrwt beam="2">  1       -1 0.57052260E-01 0.48714909E+03</pdfrwt>
<totfact> 0.62574140E+02</totfact>
</mgrwt>
</event>
<event>
 6    1  0.1588846E-005  0.2882425E+04  0.7818608E-02  0.8278126E-01
         -2   -1    0    0    0  501 -0.00000000000E+00  0.00000000000E+00  0.16744479592E+04  0.16744479592E+04  0.00000000000E+00 0.  1.
          2   -1    0    0  501    0  0.00000000000E+00 -0.00000000000E+00 -0.12404644072E+04  0.12404644072E+04  0.00000000000E+00 0. -1.
         23    2    1    2    0    0  0.14014835359E+04 -0.10520202336E+03  0.53308863304E+03  0.15059959798E+04  0.92826899394E+02 0.  0.
         11    1    3    3    0    0  0.42368970686E+03  0.10340749597E+02  0.16760226812E+03  0.45575258538E+03  0.00000000000E+00 0. -1.
        -11    1    3    3    0    0  0.97779382908E+03 -0.11554277296E+03  0.36548636492E+03  0.10502433944E+04  0.00000000000E+00 0.  1.
         22    1    1    2    0    0 -0.14014835359E+04  0.10520202336E+03 -0.99105081047E+02  0.14089163866E+04  0.00000000000E+00 0. -1.
<mgrwt>
<rscale>  0 0.28824247E+04</rscale>
<asrwt>0</asrwt>
<pdfrwt beam="1">  1        2 0.19084068E+00 0.28824247E+04</pdfrwt>
<pdfrwt beam="2">  1       -2 0.25760738E+00 0.28824247E+04</pdfrwt>
<totfact> 0.89372881E-01</totfact>
</mgrwt>
</event>
<event>
 6    1  0.1588846E-005  0.4879951E+04  0.7818608E-02  0.7847297E-01
          2   -1    0    0  501    0  0.00000000000E+00  0.00000000000E+00  0.25314259502E+04  0.25314259502E+04  0.00000000000E+00 0. -1.
         -2   -1    0    0    0  501 -0.00000000000E+00 -0.00000000000E+00 -0.23518292089E+04  0.23518292089E+04  0.00000000000E+00 0.  1.
         23    2    1    2    0    0 -0.85863773628E+03 -0.19791930972E+02  0.23742695195E+04  0.25265118369E+04  0.91955577542E+02 0.  0.
         13    1    3    3    0    0 -0.30864710675E+03  0.87984940301E+01  0.97665060483E+03  0.10242982251E+04  0.00000000000E+00 0. -1.
        -13    1    3    3    0    0 -0.54999062952E+03 -0.28590425002E+02  0.13976189147E+04  0.15022136119E+04  0.00000000000E+00 0.  1.
         22    1    1    2    0    0  0.85863773628E+03  0.19791930972E+02 -0.21946727783E+04  0.23567433221E+04  0.00000000000E+00 0.  1.
<mgrwt>
<rscale>  0 0.48799514E+04</rscale>
<asrwt>0</asrwt>
<pdfrwt beam="1">  1        2 0.38945015E+00 0.48799514E+04</pdfrwt>
<pdfrwt beam="2">  1       -2 0.36181988E+00 0.48799514E+04</pdfrwt>
<totfact> 0.32125566E-02</totfact>
</mgrwt>
</event>
<event>
 6    1  0.1588846E-005  0.4286624E+04  0.7818608E-02  0.7949096E-01
          2   -1    0    0  501    0  0.00000000000E+00  0.00000000000E+00  0.28290582075E+04  0.28290582075E+04  0.00000000000E+00 0. -1.
         -2   -1    0    0    0  501 -0.00000000000E+00 -0.00000000000E+00 -0.16237867031E+04  0.16237867031E+04  0.00000000000E+00 0.  1.
         23    2    1    2    0    0  0.16879240860E+04 -0.52532252211E+03 -0.65416705553E+03  0.18871942659E+04  0.92283195376E+02 0.  0.
         11    1    3    3    0    0  0.13326610545E+04 -0.40072949066E+03 -0.55211084717E+03  0.14971292524E+04  0.00000000000E+00 0.  1.
        -11    1    3    3    0    0  0.35526303153E+03 -0.12459303145E+03 -0.10205620836E+03  0.39006501345E+03  0.00000000000E+00 0. -1.
         22    1    1    2    0    0 -0.16879240860E+04  0.52532252211E+03  0.18594385600E+04  0.25656506447E+04  0.00000000000E+00 0. -1.
<mgrwt>
<rscale>  0 0.42866244E+04</rscale>
<asrwt>0</asrwt>
<pdfrwt beam="1">  1        2 0.43523972E+00 0.42866244E+04</pdfrwt>
<pdfrwt beam="2">  1       -2 0.24981334E+00 0.42866244E+04</pdfrwt>
<totfact> 0.11025103E-01</totfact>
</mgrwt>
</event>
<event>
 6    1  0.1645748E-005  0.5457203E+04  0.7818608E-02  0.7761606E-01
         -1   -1    0    0    0  501 -0.00000000000E+00  0.00000000000E+00  0.25852959755E+04  0.25852959755E+04  0.00000000000E+00 0.  1.
          1   -1    0    0  501    0  0.00000000000E+00 -0.00000000000E+00 -0.28798503655E+04  0.28798503655E+04  0.00000000000E+00 0. -1.
         23    2    1    2    0    0 -0.80354747521E+03 -0.23579725070E+04 -0.12604092290E+04  0.27933307674E+04  0.91337083899E+02 0.  0.
         13    1    3    3    0    0 -0.44211234650E+03 -0.14138175316E+04 -0.72164165450E+03  0.16477590895E+04  0.00000000000E+00 0.  1.
        -13    1    3    3    0    0 -0.36143512871E+03 -0.94415497545E+03 -0.53876757455E+03  0.11455716779E+04  0.00000000000E+00 0. -1.
         22    1    1    2    0    0  0.80354747521E+03  0.23579725070E+04  0.96585483907E+03  0.26718155735E+04  0.00000000000E+00 0. -1.
<mgrwt>
<rscale>  0 0.54572028E+04</rscale>
<asrwt>0</asrwt>
<pdfrwt beam="1">  1        1 0.44305390E+00 0.54572028E+04</pdfrwt>
<pdfrwt beam="2">  1       -1 0.39773784E+00 0.54572028E+04</pdfrwt>
<totfact> 0.37741060E-03</totfact>
</mgrwt>
</event>
<event>
 6    1  0.1588846E-005  0.5400920E+03  0.7818608E-02  0.1003814E+00
         -2   -1    0    0    0  501 -0.00000000000E+00  0.00000000000E+00  0.66259568731E+02  0.66259568731E+02  0.00000000000E+00 0. -1.
          2   -1    0    0  501    0  0.00000000000E+00 -0.00000000000E+00 -0.11005934409E+04  0.11005934409E+04  0.00000000000E+00 0.  1.
         23    2    1    2    0    0 -0.12138739564E+03  0.18881832109E+03 -0.23813960896E+03  0.33962114191E+03  0.90800817623E+02 0.  0.
         13    1    3    3    0    0 -0.10758202578E+03  0.10669346508E+03 -0.11177915820E+03  0.18828692990E+03  0.00000000000E+00 0. -1.
        -13    1    3    3    0    0 -0.13805369860E+02  0.82124856005E+02 -0.12636045075E+03  0.15133421201E+03  0.00000000000E+00 0.  1.
         22    1    1    2    0    0  0.12138739564E+03 -0.18881832109E+03 -0.79619426323E+03  0.82723186774E+03  0.00000000000E+00 0.  1.
<mgrwt>
<rscale>  0 0.54009202E+03</rscale>
<asrwt>0</asrwt>
<pdfrwt beam="1">  1        2 0.16932206E+00 0.54009202E+03</pdfrwt>
<pdfrwt beam="2">  1       -2 0.10193780E-01 0.54009202E+03</pdfrwt>
<totfact> 0.14619750E+03</totfact>
</mgrwt>
</event>
<event>
 6    1  0.1588846E-005  0.4691679E+04  0.7818608E-02  0.7877913E-01
          2   -1    0    0  501    0  0.00000000000E+00  0.00000000000E+00  0.35545524180E+04  0.35545524180E+04  0.00000000000E+00 0.  1.
         -2   -1    0    0    0  501 -0.00000000000E+00 -0.00000000000E+00 -0.15481451181E+04  0.15481451181E+04  0.00000000000E+00 0. -1.
         23    2    1    2    0    0 -0.14487878373E+04 -0.90300715440E+03  0.27519845665E+04  0.32398251360E+04  0.92950199054E+02 0.  0.
         11    1    3    3    0    0 -0.12937648572E+04 -0.77265940301E+03  0.24426180474E+04  0.28700545263E+04  0.00000000000E+00 0.  1.
        -11    1    3    3    0    0 -0.15502298019E+03 -0.13034775139E+03  0.30936651906E+03  0.36977060970E+03  0.00000000000E+00 0. -1.
         22    1    1    2    0    0  0.14487878373E+04  0.90300715440E+03 -0.74557726661E+03  0.18628724001E+04  0.00000000000E+00 0. -1.
<mgrwt>
<rscale>  0 0.46916790E+04</rscale>
<asrwt>0</asrwt>
<pdfrwt beam="1">  1        2 0.54685422E+00 0.46916790E+04</pdfrwt>
<pdfrwt beam="2">  1       -2 0.23817617E+00 0.46916790E+04</pdfrwt>
<totfact> 0.42113083E-02</totfact>
</mgrwt>
</event>
<event>
 6    1  0.1588846E-005  0.5324512E+04  0.7818608E-02  0.7780309E-01
         -2   -1    0    0    0  501 -0.00000000000E+00  0.00000000000E+00  0.20983056926E+04  0.20983056926E+04  0.00000000000E+00 0.  1.
          2   -1    0    0  501    0  0.00000000000E+00 -0.00000000000E+00 -0.33777755664E+04  0.33777755664E+04  0.00000000000E+00 0. -1.
         23    2    1    2    0    0  0.66301825353E+03  0.25432869785E+04 -0.20929784092E+03  0.26382704761E+04  0.93614416447E+02 0.  0.
         11    1    3    3    0    0  0.38742537414E+03  0.14768837777E+04 -0.16784364598E+03  0.15360519532E+04  0.00000000000E+00 0. -1.
        -11    1    3    3    0    0  0.27559287939E+03  0.10664032008E+04 -0.41454194934E+02  0.11022185229E+04  0.00000000000E+00 0.  1.
         22    1    1    2    0    0 -0.66301825353E+03 -0.25432869785E+04 -0.10701720329E+04  0.28378107829E+04  0.00000000000E+00 0. -1.
<mgrwt>
<rscale>  0 0.53245115E+04</rscale>
<asrwt>0</asrwt>
<pdfrwt beam="1">  1        2 0.51965777E+00 0.53245115E+04</pdfrwt>
<pdfrwt beam="2">  1       -2 0.32281627E+00 0.53245115E+04</pdfrwt>
<totfact> 0.16089116E-02</totfact>
</mgrwt>
</event>
<event>
 6    1  0.1588846E-005  0.1192712E+04  0.7818608E-02  0.9119260E-01
          1   -1    0    0  501    0  0.00000000000E+00  0.00000000000E+00  0.56647956770E+03  0.56647956770E+03  0.00000000000E+00 0. -1.
         -1   -1    0    0    0  501 -0.00000000000E+00 -0.00000000000E+00 -0.62780763453E+03  0.62780763453E+03  0.00000000000E+00 0.  1.
         23    2    1    2    0    0  0.30824371725E+03  0.74074287295E+02 -0.53261063654E+03  0.62630089099E+03  0.89875061283E+02 0.  0.
         11    1    3    3    0    0  0.20208207570E+03  0.65078138135E+02 -0.27415514525E+03  0.34674684289E+03  0.00000000000E+00 0.  1.
        -11    1    3    3    0    0  0.10616164154E+03  0.89961491600E+01 -0.25845549128E+03  0.27955404810E+03  0.00000000000E+00 0. -1.
         22    1    1    2    0    0 -0.30824371725E+03 -0.74074287295E+02  0.47128256970E+03  0.56798631125E+03  0.00000000000E+00 0. -1.
<mgrwt>
<rscale>  0 0.11927115E+04</rscale>
<asrwt>0</asrwt>
<pdfrwt beam="1">  1        1 0.87150703E-01 0.11927115E+04</pdfrwt>
<pdfrwt beam="2">  1       -1 0.96585790E-01 0.11927115E+04</pdfrwt>
<totfact> 0.38016718E+01</totfact>
</mgrwt>
</event>
<event>
 6    1  0.1631919E-005  0.3877449E+04  0.7818608E-02  0.8029736E-01
         -2   -1    0    0    0  501 -0.00000000000E+00  0.00000000000E+00  0.14529766628E+04  0.14529766628E+04  0.00000000000E+00 0. -1.
          2   -1    0    0  501    0  0.00000000000E+00 -0.00000000000E+00 -0.25868632303E+04  0.25868632303E+04  0.00000000000E+00 0.  1.
         23    2    1    2    0    0  0.10846730526E+04  0.14104904646E+04  0.23204609165E+03  0.17966789512E+04  0.90613925745E+02 0.  0.
         13    1    3    3    0    0  0.71470253201E+03  0.86813019199E+03  0.12356921072E+03  0.11312466969E+04  0.00000000000E+00 0. -1.
        -13    1    3    3    0    0  0.36997052060E+03  0.54236027256E+03  0.10847688093E+03  0.66543225430E+03  0.00000000000E+00 0.  1.
         22    1    1    2    0    0 -0.10846730526E+04 -0.14104904646E+04 -0.13659326592E+04  0.22431609419E+04  0.00000000000E+00 0.  1.
<mgrwt>
<rscale>  0 0.38774486E+04</rscale>
<asrwt>0</asrwt>
<pdfrwt beam="1">  1        2 0.39797896E+00 0.38774486E+04</pdfrwt>
<pdfrwt beam="2">  1       -2 0.22353487E+00 0.38774486E+04</pdfrwt>
<totfact> 0.23168401E-01</totfact>
</mgrwt>
</event>
<event>
 6    1  0.1588846E-005  0.2312418E+04  0.7818608E-02  0.8473041E-01
          1   -1    0    0  501    0  0.00000000000E+00  0.00000000000E+00  0.30720056524E+04  0.30720056524E+04  0.00000000000E+00 0. -1.
         -1   -1    0    0    0  501 -0.00000000000E+00 -0.00000000000E+00 -0.43516172350E+03  0.43516172350E+03  0.00000000000E+00 0.  1.
         23    2    1    2    0    0 -0.47011831431E+03 -0.70161028154E+03  0.25141601758E+04  0.26537509946E+04  0.90137312112E+02 0.  0.
         11    1    3    3    0    0 -0.30300324910E+03 -0.52007616428E+03  0.18312351351E+04  0.19276182987E+04  0.00000000000E+00 0. -1.
        -11    1    3    3    0    0 -0.16711506521E+03 -0.18153411727E+03  0.68292504076E+03  0.72613269590E+03  0.00000000000E+00 0.  1.
         22    1    1    2    0    0  0.47011831431E+03  0.70161028154E+03  0.12268375308E+03  0.85341638131E+03  0.00000000000E+00 0.  1.
<mgrwt>
<rscale>  0 0.23124180E+04</rscale>
<asrwt>0</asrwt>
<pdfrwt beam="1">  1        1 0.47261624E+00 0.23124180E+04</pdfrwt>
<pdfrwt beam="2">  1       -1 0.66947959E-01 0.23124180E+04</pdfrwt>
<totfact> 0.10808789E+00</totfact>
</mgrwt>
</event>
<event>
 6    1  0.1588846E-005  0.3610856E+04  0.7818608E-02  0.8088010E-01
          2   -1    0    0  501    0  0.00000000000E+00  0.00000000000E+00  0.21304720924E+04  0.21304720924E+04  0.00000000000E+00 0. -1.
         -2   -1    0    0    0  501 -0.00000000000E+00 -0.00000000000E+00 -0.15299751746E+04  0.15299751746E+04  0.00000000000E+00 0.  1.
         23    2    1    2    0    0 -0.20987101053E+03 -0.31507286575E+03  0.20887613061E+04  0.21247885675E+04  0.92119004257E+02 0.  0.
         11    1    3    3    0    0 -0.72288254931E+02 -0.14607993516E+03  0.11216435825E+04  0.11334236920E+04  0.00000000000E+00 0. -1.
        -11    1    3    3    0    0 -0.13758275560E+03 -0.16899293059E+03  0.96711772357E+03  0.99136487554E+03  0.00000000000E+00 0.  1.
         22    1    1    2    0    0  0.20987101053E+03  0.31507286575E+03 -0.14882643883E+04  0.15356586994E+04  0.00000000000E+00 0.  1.
<mgrwt>
<rscale>  0 0.36108555E+04</rscale>
<asrwt>0</asrwt>
<pdfrwt beam="1">  1        2 0.32776494E+00 0.36108555E+04</pdfrwt>
<pdfrwt beam="2">  1       -2 0.23538080E+00 0.36108555E+04</pdfrwt>
<totfact> 0.36407671E-01</totfact>
</mgrwt>
</event>
<event>
 6    1  0.1588846E-005  0.1993706E+04  0.7818608E-02  0.8609569E-01
          1   -1    0    0  501    0  0.00000000000E+00  0.00000000000E+00  0.68503091718E+03  0.68503091718E+03  0.00000000000E+00 0. -1.
         -1   -1    0    0    0  501 -0.00000000000E+00 -0.00000000000E+00 -0.14506143034E+04  0.14506143034E+04  0.00000000000E+00 0.  1.
         23    2    1    2    0    0  0.49816490723E+03 -0.80545230819E+03 -0.70968222417E+03  0.11869373438E+04  0.90827877058E+02 0.  0.
         13    1    3    3    0    0  0.10648595279E+03 -0.15398958019E+03 -0.18569113231E+03  0.26369157280E+03  0.00000000000E+00 0.  1.
        -13    1    3    3    0    0  0.39167895444E+03 -0.65146272800E+03 -0.52399109186E+03  0.92324577100E+03  0.00000000000E+00 0. -1.
         22    1    1    2    0    0 -0.49816490723E+03  0.80545230819E+03 -0.55901162059E+02  0.94870787679E+03  0.00000000000E+00 0. -1.
<mgrwt>
<rscale>  0 0.19937057E+04</rscale>
<asrwt>0</asrwt>
<pdfrwt beam="1">  1        1 0.10538937E+00 0.19937057E+04</pdfrwt>
<pdfrwt beam="2">  1       -1 0.22317143E+00 0.19937057E+04</pdfrwt>
<totfact> 0.27381065E+00</totfact>
</mgrwt>
</event>
<event>
 6    1  0.1588846E-005  0.2273499E+04  0.7818608E-02  0.8488444E-01
          2   -1    0    0  501    0  0.00000000000E+00  0.00000000000E+00  0.14596352944E+04  0.14596352944E+04  0.00000000000E+00 0. -1.
         -2   -1    0    0    0  501 -0.00000000000E+00 -0.00000000000E+00 -0.88528907072E+03  0.88528907072E+03  0.00000000000E+00 0.  1.
         23    2    1    2    0    0 -0.69677747506E+03 -0.44204873507E+03 -0.51575500304E+03  0.97772773756E+03  0.95091386027E+02 0.  0.
         11    1    3    3    0    0 -0.45491751983E+03 -0.34037943051E+03 -0.34544069965E+03  0.66493411970E+03  0.00000000000E+00 0. -1.
        -11    1    3    3    0    0 -0.24185995523E+03 -0.10166930456E+03 -0.17031430339E+03  0.31279361786E+03  0.00000000000E+00 0.  1.
         22    1    1    2    0    0  0.69677747506E+03  0.44204873507E+03  0.10901012267E+04  0.13671966276E+04  0.00000000000E+00 0. -1.
<mgrwt>
<rscale>  0 0.22734988E+04</rscale>
<asrwt>0</asrwt>
<pdfrwt beam="1">  1        2 0.22455927E+00 0.22734988E+04</pdfrwt>
<pdfrwt beam="2">  1       -2 0.13619832E+00 0.22734988E+04</pdfrwt>
<totfact> 0.46896262E+00</totfact>
</mgrwt>
</event>
<event>
 6    1  0.1588846E-005  0.3202341E+04  0.7818608E-02  0.8188199E-01
          1   -1    0    0  501    0  0.00000000000E+00  0.00000000000E+00  0.28516037531E+04  0.28516037531E+04  0.00000000000E+00 0. -1.
         -1   -1    0    0    0  501 -0.00000000000E+00 -0.00000000000E+00 -0.89905450307E+03  0.89905450307E+03  0.00000000000E+00 0.  1.
         23    2    1    2    0    0 -0.65435769109E+03 -0.40649952163E+03 -0.66513664783E+03  0.10219762834E+04  0.92751897470E+02 0.  0.
         13    1    3    3    0    0 -0.41536652903E+03 -0.21451500324E+03 -0.36676468253E+03  0.59419051861E+03  0.00000000000E+00 0.  1.
        -13    1    3    3    0    0 -0.23899116206E+03 -0.19198451839E+03 -0.29837196529E+03  0.42778576474E+03  0.00000000000E+00 0. -1.
         22    1    1    2    0    0  0.65435769109E+03  0.40649952163E+03  0.26176858979E+04  0.27286819729E+04  0.00000000000E+00 0. -1.
<mgrwt>
<rscale>  0 0.32023411E+04</rscale>
<asrwt>0</asrwt>
<pdfrwt beam="1">  1        1 0.43870827E+00 0.32023411E+04</pdfrwt>
<pdfrwt beam="2">  1       -1 0.13831608E+00 0.32023411E+04</pdfrwt>
<totfact> 0.27682041E-01</totfact>
</mgrwt>
</event>
<event>
 6    1  0.1588846E-005  0.2347401E+04  0.7818608E-02  0.8459463E-01
          1   -1    0    0  501    0  0.00000000000E+00  0.00000000000E+00  0.11134962289E+04  0.11134962289E+04  0.00000000000E+00 0. -1.
         -1   -1    0    0    0  501 -0.00000000000E+00 -0.00000000000E+00 -0.12371595612E+04  0.12371595612E+04  0.00000000000E+00 0.  1.
         23    2    1    2    0    0  0.10054550413E+04 -0.52207128974E+03  0.23849451610E+03  0.11612624243E+04  0.90291263392E+02 0.  0.
         11    1    3    3    0    0  0.32953586206E+03 -0.14074700746E+03  0.10838718358E+03  0.37436798214E+03  0.00000000000E+00 0.  1.
        -11    1    3    3    0    0  0.67591917921E+03 -0.38132428228E+03  0.13010733251E+03  0.78689444213E+03  0.00000000000E+00 0. -1.
         22    1    1    2    0    0 -0.10054550413E+04  0.52207128974E+03 -0.36215784831E+03  0.11893933658E+04  0.00000000000E+00 0.  1.
<mgrwt>
<rscale>  0 0.23474007E+04</rscale>
<asrwt>0</asrwt>
<pdfrwt beam="1">  1        1 0.17130711E+00 0.23474007E+04</pdfrwt>
<pdfrwt beam="2">  1       -1 0.19033224E+00 0.23474007E+04</pdfrwt>
<totfact> 0.19596051E+00</totfact>
</mgrwt>
</event>
<event>
 6    1  0.1588846E-005  0.2797764E+04  0.7818608E-02  0.8303963E-01
          1   -1    0    0  501    0  0.00000000000E+00  0.00000000000E+00  0.27980298660E+04  0.27980298660E+04  0.00000000000E+00 0. -1.
         -1   -1    0    0    0  501 -0.00000000000E+00 -0.00000000000E+00 -0.69937471470E+03  0.69937471470E+03  0.00000000000E+00 0.  1.
         23    2    1    2    0    0 -0.46155981457E+03  0.70397954071E+02 -0.59602018618E+03  0.76257944756E+03  0.91071494694E+02 0.  0.
         13    1    3    3    0    0 -0.25200378677E+03  0.72783925310E+02 -0.28283535020E+03  0.38574505007E+03  0.00000000000E+00 0. -1.
        -13    1    3    3    0    0 -0.20955602780E+03 -0.23859712396E+01 -0.31318483598E+03  0.37683439750E+03  0.00000000000E+00 0.  1.
         22    1    1    2    0    0  0.46155981457E+03 -0.70397954071E+02  0.26946753375E+04  0.27348251331E+04  0.00000000000E+00 0. -1.
<mgrwt>
<rscale>  0 0.27977643E+04</rscale>
<asrwt>0</asrwt>
<pdfrwt beam="1">  1        1 0.43046613E+00 0.27977643E+04</pdfrwt>
<pdfrwt beam="2">  1       -1 0.10759611E+00 0.27977643E+04</pdfrwt>
<totfact> 0.58175692E-01</totfact>
</mgrwt>
</event>
<event>
 6    1  0.1588846E-005  0.2557819E+04  0.7818608E-02  0.8382672E-01
         -1   -1    0    0    0  501 -0.00000000000E+00  0.00000000000E+00  0.79646046827E+03  0.79646046827E+03  0.00000000000E+00 0.  1.
          1   -1    0    0  501    0  0.00000000000E+00 -0.00000000000E+00 -0.20535974225E+04  0.20535974225E+04  0.00000000000E+00 0. -1.
         23    2    1    2    0    0 -0.11404791955E+04 -0.28054008774E+03 -0.11888448666E+04  0.16735973749E+04  0.90446229054E+02 0.  0.
         13    1    3    3    0    0 -0.73869367170E+03 -0.22325013431E+03 -0.80001879500E+03  0.11115480356E+04  0.00000000000E+00 0.  1.
        -13    1    3    3    0    0 -0.40178552375E+03 -0.57289953426E+02 -0.38882607160E+03  0.56204933931E+03  0.00000000000E+00 0. -1.
         22    1    1    2    0    0  0.11404791955E+04  0.28054008774E+03 -0.68292087587E+02  0.11764605158E+04  0.00000000000E+00 0.  1.
<mgrwt>
<rscale>  0 0.25578187E+04</rscale>
<asrwt>0</asrwt>
<pdfrwt beam="1">  1        1 0.31593806E+00 0.25578187E+04</pdfrwt>
<pdfrwt beam="2">  1       -1 0.12253238E+00 0.25578187E+04</pdfrwt>
<totfact> 0.14241967E+00</totfact>
</mgrwt>
</event>
<event>
 6    1  0.1588846E-005  0.4910388E+04  0.7818608E-02  0.7842481E-01
         -1   -1    0    0    0  501 -0.00000000000E+00  0.00000000000E+00  0.30167119547E+04  0.30167119547E+04  0.00000000000E+00 0.  1.
          1   -1    0    0  501    0  0.00000000000E+00 -0.00000000000E+00 -0.19981949615E+04  0.19981949615E+04  0.00000000000E+00 0. -1.
         23    2    1    2    0    0 -0.11550383328E+04 -0.19349122761E+04 -0.48381730601E+03  0.23065850348E+04  0.90864023822E+02 0.  0.
         11    1    3    3    0    0 -0.65201193994E+03 -0.10688660833E+04 -0.31327997633E+03  0.12906349667E+04  0.00000000000E+00 0.  1.
        -11    1    3    3    0    0 -0.50302639285E+03 -0.86604619283E+03 -0.17053732967E+03  0.10159500681E+04  0.00000000000E+00 0. -1.
         22    1    1    2    0    0  0.11550383328E+04  0.19349122761E+04  0.15023342992E+04  0.27083218814E+04  0.00000000000E+00 0.  1.
<mgrwt>
<rscale>  0 0.49103884E+04</rscale>
<asrwt>0</asrwt>
<pdfrwt beam="1">  1        1 0.30741461E+00 0.49103884E+04</pdfrwt>
<pdfrwt beam="2">  1       -1 0.46410953E+00 0.49103884E+04</pdfrwt>
<totfact> 0.56404647E-03</totfact>
</mgrwt>
</event>
<event>
 6    1  0.1588846E-005  0.1139798E+04  0.7818608E-02  0.9167247E-01
         -2   -1    0    0    0  501 -0.00000000000E+00  0.00000000000E+00  0.17286749192E+04  0.17286749192E+04  0.00000000000E+00 0. -1.
          2   -1    0    0  501    0  0.00000000000E+00 -0.00000000000E+00 -0.18788082025E+03  0.18788082025E+03  0.00000000000E+00 0.  1.
         23    2    1    2    0    0 -0.20886294874E+03 -0.31038779269E+03  0.14902582446E+04  0.15390399308E+04  0.88373976303E+02 0.  0.
         13    1    3    3    0    0 -0.13880795448E+03 -0.21434044122E+03  0.83828556194E+03  0.87631738333E+03  0.00000000000E+00 0. -1.
        -13    1    3    3    0    0 -0.70054994268E+02 -0.96047351468E+02  0.65197268268E+03  0.66272254746E+03  0.00000000000E+00 0.  1.
         22    1    1    2    0    0  0.20886294874E+03  0.31038779269E+03  0.50535854324E+02  0.37751580865E+03  0.00000000000E+00 0.  1.
<mgrwt>
<rscale>  0 0.11397980E+04</rscale>
<asrwt>0</asrwt>
<pdfrwt beam="1">  1        2 0.28904743E-01 0.11397980E+04</pdfrwt>
<pdfrwt beam="2">  1       -2 0.26594998E+00 0.11397980E+04</pdfrwt>
<totfact> 0.94938445E+00</totfact>
</mgrwt>
</event>
